Membrane in water t=   0.00000 step= 0
64760
    1TCq1    O1    1   3.475   0.987  11.943
    1TCq1    C1    2   3.380   1.021  11.847
    1TCq1    O2    3   3.397   1.084  11.742
    1TCq1    C2    4   3.274   0.925  11.847
    1TCq1    C3    5   3.165   0.949  11.766
    1TCq1    C4    6   3.075   0.848  11.740
    1TCq1    C5    7   3.091   0.718  11.782
    1TCq1    C6    8   3.200   0.694  11.860
    1TCq1    C7    9   3.293   0.793  11.892
    1TCq1    C8   10   3.228   0.557  11.894
    1TCq1    O4   11   3.132   0.479  11.907
    1TCq1    C9   12   2.968   0.867  11.646
    1TCq1    O5   13   2.986   0.965  11.565
    1TCq1    O6   14   2.888   0.773  11.629
    1TCq1    H1   15   3.448   0.932  12.019
    1TCq1    H2   16   3.153   1.047  11.722
    1TCq1    H3   17   3.021   0.638  11.763
    1TCq1    H4   18   3.381   0.767  11.950
    2MPD2     C   19   3.522   0.131  11.953
    2MPD2    C1   20   3.400   0.165  12.011
    2MPD2    C2   21   3.352   0.294  11.986
    2MPD2    C3   22   3.413   0.389  11.903
    2MPD2    C4   23   3.532   0.351  11.854
    2MPD2    C5   24   3.588   0.223  11.875
    2MPD2     H   25   3.264   0.334  12.035
    2MPD2    H1   26   3.584   0.417  11.786
    2MPD2    H2   27   3.566   0.040  11.991
    2MPD2    H3   28   3.682   0.189  11.832
    2MPD2     N   29   3.364   0.515  11.875
    2MPD2    H5   30   3.426   0.588  11.842
    2MPD2    N1   31   3.313   0.078  12.083
    2MPD2    H7   32   3.233   0.119  12.129
    3TCq1    O1   33   2.908   1.202  10.822
    3TCq1    C1   34   2.824   1.145  10.727
    3TCq1    O2   35   2.858   1.099  10.618
    3TCq1    C2   36   2.696   1.195  10.742
    3TCq1    C3   37   2.640   1.264  10.641
    3TCq1    C4   38   2.514   1.306  10.663
    3TCq1    C5   39   2.438   1.276  10.778
    3TCq1    C6   40   2.508   1.214  10.878
    3TCq1    C7   41   2.632   1.165  10.857
    3TCq1    C8   42   2.430   1.142  10.975
    3TCq1    O4   43   2.458   1.022  10.975
    3TCq1    C9   44   2.445   1.368  10.553
    3TCq1    O5   45   2.334   1.422  10.574
    3TCq1    O6   46   2.511   1.378  10.444
    3TCq1    H1   47   2.867   1.251  10.897
    3TCq1    H2   48   2.689   1.301  10.552
    3TCq1    H3   49   2.334   1.305  10.778
    3TCq1    H4   50   2.687   1.113  10.934
    4MPD2     C   51   2.097   1.078  11.340
    4MPD2    C1   52   2.111   1.215  11.325
    4MPD2    C2   53   2.192   1.267  11.223
    4MPD2    C3   54   2.251   1.174  11.135
    4MPD2    C4   55   2.210   1.042  11.135
    4MPD2    C5   56   2.130   1.004  11.236
    4MPD2     H   57   2.207   1.374  11.230
    4MPD2    H1   58   2.234   0.962  11.066
    4MPD2    H2   59   2.047   1.035  11.426
    4MPD2    H3   60   2.105   0.899  11.248
    4MPD2     N   61   2.344   1.219  11.043
    4MPD2    H5   62   2.360   1.318  11.029
    4MPD2    N1   63   2.065   1.300  11.427
    4MPD2    H7   64   2.095   1.397  11.430
    5TCq1    O1   65   3.738   2.676  12.531
    5TCq1    C1   66   3.771   2.758  12.432
    5TCq1    O2   67   3.850   2.726  12.344
    5TCq1    C2   68   3.654   2.837  12.399
    5TCq1    C3   69   3.599   2.912  12.501
    5TCq1    C4   70   3.474   2.964  12.480
    5TCq1    C5   71   3.403   2.935  12.365
    5TCq1    C6   72   3.466   2.861  12.270
    5TCq1    C7   73   3.590   2.803  12.286
    5TCq1    C8   74   3.407   2.846  12.140
    5TCq1    O4   75   3.447   2.757  12.066
    5TCq1    C9   76   3.414   3.045  12.579
    5TCq1    O5   77   3.478   3.080  12.680
    5TCq1    O6   78   3.300   3.097  12.545
    5TCq1    H1   79   3.647   2.693  12.563
    5TCq1    H2   80   3.649   2.946  12.591
    5TCq1    H3   81   3.297   2.958  12.361
    5TCq1    H4   82   3.640   2.740  12.213
    6MPD2     C   83   3.167   3.090  11.990
    6MPD2    C1   84   3.253   2.981  11.992
    6MPD2    C2   85   3.251   2.890  11.888
    6MPD2    C3   86   3.168   2.909  11.779
    6MPD2    C4   87   3.088   3.019  11.773
    6MPD2    C5   88   3.089   3.109  11.874
    6MPD2     H   89   3.315   2.802  11.893
    6MPD2    H1   90   3.019   3.053  11.696
    6MPD2    H2   91   3.150   3.155  12.075
    6MPD2    H3   92   3.021   3.194  11.873
    6MPD2     N   93   3.155   2.814  11.679
    6MPD2    H5   94   3.204   2.726  11.693
    6MPD2    N1   95   3.326   2.960  12.114
    6MPD2    H7   96   3.318   3.023  12.194
    7TCq1    O1   97   0.683   2.364  13.618
    7TCq1    C1   98   0.549   2.380  13.625
    7TCq1    O2   99   0.482   2.483  13.618
    7TCq1    C2  100   0.487   2.258  13.678
    7TCq1    C3  101   0.354   2.277  13.722
    7TCq1    C4  102   0.274   2.171  13.755
    7TCq1    C5  103   0.318   2.043  13.743
    7TCq1    C6  104   0.445   2.026  13.698
    7TCq1    C7  105   0.524   2.126  13.647
    7TCq1    C8  106   0.492   1.893  13.685
    7TCq1    O4  107   0.420   1.812  13.740
    7TCq1    C9  108   0.142   2.199  13.792
    7TCq1    O5  109   0.115   2.322  13.783
    7TCq1    O6  110   0.106   2.119  13.880
    7TCq1    H1  111   0.716   2.279  13.655
    7TCq1    H2  112   0.312   2.376  13.737
    7TCq1    H3  113   0.253   1.959  13.765
    7TCq1    H4  114   0.618   2.097  13.602
    8MPD2     C  115   0.829   1.527  13.574
    8MPD2    C1  116   0.715   1.522  13.654
    8MPD2    C2  117   0.636   1.635  13.662
    8MPD2    C3  118   0.665   1.747  13.586
    8MPD2    C4  119   0.775   1.744  13.501
    8MPD2    C5  120   0.851   1.630  13.490
    8MPD2     H  121   0.553   1.640  13.731
    8MPD2    H1  122   0.792   1.829  13.436
    8MPD2    H2  123   0.899   1.444  13.566
    8MPD2    H3  124   0.904   1.598  13.401
    8MPD2     N  125   0.603   1.874  13.606
    8MPD2    H5  126   0.634   1.953  13.551
    8MPD2    N1  127   0.695   1.410  13.739
    8MPD2    H7  128   0.770   1.343  13.751
    9TCq1    O1  129   2.720   1.205  11.225
    9TCq1    C1  130   2.792   1.299  11.161
    9TCq1    O2  131   2.805   1.313  11.039
    9TCq1    C2  132   2.862   1.390  11.258
    9TCq1    C3  133   2.879   1.518  11.214
    9TCq1    C4  134   2.902   1.625  11.301
    9TCq1    C5  135   2.901   1.602  11.430
    9TCq1    C6  136   2.884   1.477  11.473
    9TCq1    C7  137   2.867   1.368  11.393
    9TCq1    C8  138   2.939   1.451  11.605
    9TCq1    O4  139   3.015   1.530  11.655
    9TCq1    C9  140   2.922   1.763  11.254
    9TCq1    O5  141   2.920   1.860  11.337
    9TCq1    O6  142   2.950   1.773  11.131
    9TCq1    H1  143   2.735   1.193  11.321
    9TCq1    H2  144   2.876   1.539  11.108
    9TCq1    H3  145   2.924   1.690  11.489
    9TCq1    H4  146   2.881   1.268  11.432
   10MPD2     C  147   3.028   1.342  11.870
   10MPD2    C1  148   2.925   1.289  11.795
   10MPD2    C2  149   2.857   1.181  11.845
   10MPD2    C3  150   2.886   1.133  11.970
   10MPD2    C4  151   2.988   1.183  12.045
   10MPD2    C5  152   3.064   1.284  11.987
   10MPD2     H  153   2.777   1.144  11.782
   10MPD2    H1  154   3.017   1.154  12.145
   10MPD2    H2  155   3.089   1.426  11.839
   10MPD2    H3  156   3.145   1.317  12.051
   10MPD2     N  157   2.810   1.030  12.037
   10MPD2    H5  158   2.837   1.018  12.134
   10MPD2    N1  159   2.893   1.336  11.667
   10MPD2    H7  160   2.830   1.271  11.622
   11TCq1    O1  161   4.377   0.383  14.414
   11TCq1    C1  162   4.289   0.323  14.499
   11TCq1    O2  163   4.221   0.223  14.470
   11TCq1    C2  164   4.223   0.426  14.578
   11TCq1    C3  165   4.300   0.499  14.663
   11TCq1    C4  166   4.258   0.532  14.786
   11TCq1    C5  167   4.142   0.487  14.837
   11TCq1    C6  168   4.069   0.400  14.758
   11TCq1    C7  169   4.105   0.378  14.627
   11TCq1    C8  170   3.937   0.360  14.805
   11TCq1    O4  171   3.888   0.442  14.880
   11TCq1    C9  172   4.340   0.612  14.875
   11TCq1    O5  173   4.453   0.646  14.830
   11TCq1    O6  174   4.308   0.625  14.995
   11TCq1    H1  175   4.356   0.478  14.405
   11TCq1    H2  176   4.398   0.532  14.630
   11TCq1    H3  177   4.120   0.518  14.938
   11TCq1    H4  178   4.040   0.314  14.569
   12MPD2     C  179   3.640   0.323  14.747
   12MPD2    C1  180   3.738   0.230  14.710
   12MPD2    C2  181   3.699   0.122  14.640
   12MPD2    C3  182   3.570   0.101  14.598
   12MPD2    C4  183   3.477   0.197  14.629
   12MPD2    C5  184   3.513   0.309  14.702
   12MPD2     H  185   3.781   0.060  14.604
   12MPD2    H1  186   3.383   0.193  14.576
   12MPD2    H2  187   3.669   0.411  14.803
   12MPD2    H3  188   3.431   0.378  14.720
   12MPD2     N  189   3.521   4.769  14.529
   12MPD2    H5  190   3.432   4.764  14.481
   12MPD2    N1  191   3.879   0.255  14.734
   12MPD2    H7  192   3.953   0.195  14.699
   13TCq1    O1  193   3.491   1.280  11.273
   13TCq1    C1  194   3.540   1.177  11.204
   13TCq1    O2  195   3.658   1.138  11.201
   13TCq1    C2  196   3.451   1.149  11.091
   13TCq1    C3  197   3.510   1.121  10.970
   13TCq1    C4  198   3.426   1.088  10.869
   13TCq1    C5  199   3.292   1.067  10.886
   13TCq1    C6  200   3.248   1.074  11.016
   13TCq1    C7  201   3.320   1.121  11.123
   13TCq1    C8  202   3.106   1.049  11.044
   13TCq1    O4  203   3.059   1.092  11.145
   13TCq1    C9  204   3.478   1.088  10.734
   13TCq1    O5  205   3.573   1.164  10.711
   13TCq1    O6  206   3.398   1.035  10.652
   13TCq1    H1  207   3.397   1.295  11.249
   13TCq1    H2  208   3.616   1.136  10.953
   13TCq1    H3  209   3.228   1.030  10.807
   13TCq1    H4  210   3.287   1.119  11.226
   14MPD2     C  211   2.907   0.788  10.868
   14MPD2    C1  212   2.933   0.883  10.964
   14MPD2    C2  213   2.845   0.915  11.066
   14MPD2    C3  214   2.727   0.839  11.083
   14MPD2    C4  215   2.704   0.742  10.990
   14MPD2    C5  216   2.785   0.727  10.883
   14MPD2     H  217   2.863   0.996  11.136
   14MPD2    H1  218   2.622   0.672  10.991
   14MPD2    H2  219   2.973   0.773  10.783
   14MPD2    H3  220   2.759   0.651  10.811
   14MPD2     N  221   2.640   0.868  11.191
   14MPD2    H5  222   2.668   0.937  11.260
   14MPD2    N1  223   3.056   0.952  10.955
   14MPD2    H7  224   3.125   0.925  10.886
   15TCq1    O1  225   4.744   3.253  20.122
   15TCq1    C1  226   4.779   3.323  20.234
   15TCq1    O2  227   4.745   3.304  20.351
   15TCq1    C2  228   0.073   3.445  20.185
   15TCq1    C3  229   0.165   3.492  20.274
   15TCq1    C4  230   0.252   3.581  20.219
   15TCq1    C5  231   0.244   3.631  20.097
   15TCq1    C6  232   0.145   3.588  20.014
   15TCq1    C7  233   0.061   3.490  20.059
   15TCq1    C8  234   0.148   3.635  19.876
   15TCq1    O4  235   0.232   3.721  19.846
   15TCq1    C9  236   0.371   3.618  20.295
   15TCq1    O5  237   0.472   3.656  20.230
   15TCq1    O6  238   0.373   3.618  20.424
   15TCq1    H1  239   0.003   3.274  20.035
   15TCq1    H2  240   0.165   3.458  20.377
   15TCq1    H3  241   0.311   3.712  20.071
   15TCq1    H4  242   4.759   3.446  20.004
   16MPD2     C  243   4.694   3.612  19.600
   16MPD2    C1  244   0.036   3.611  19.659
   16MPD2    C2  245   0.155   3.605  19.588
   16MPD2    C3  246   0.145   3.619  19.448
   16MPD2    C4  247   0.019   3.626  19.386
   16MPD2    C5  248   4.689   3.624  19.460
   16MPD2     H  249   0.249   3.597  19.642
   16MPD2    H1  250   0.014   3.644  19.279
   16MPD2    H2  251   4.596   3.600  19.644
   16MPD2    H3  252   4.594   3.650  19.414
   16MPD2     N  253   0.269   3.620  19.372
   16MPD2    H5  254   0.350   3.635  19.431
   16MPD2    N1  255   0.037   3.595  19.802
   16MPD2    H7  256   4.727   3.564  19.837
   17TCq1    O1  257   2.437   0.163  11.772
   17TCq1    C1  258   2.488   0.044  11.727
   17TCq1    O2  259   2.423   4.720  11.721
   17TCq1    C2  260   2.630   0.043  11.689
   17TCq1    C3  261   2.703   4.708  11.702
   17TCq1    C4  262   2.834   4.699  11.666
   17TCq1    C5  263   2.893   0.029  11.608
   17TCq1    C6  264   2.818   0.145  11.599
   17TCq1    C7  265   2.686   0.157  11.644
   17TCq1    C8  266   2.885   0.268  11.560
   17TCq1    O4  267   2.814   0.358  11.525
   17TCq1    C9  268   2.896   4.569  11.667
   17TCq1    O5  269   3.016   4.565  11.633
   17TCq1    O6  270   2.834   4.465  11.710
   17TCq1    H1  271   2.504   0.235  11.773
   17TCq1    H2  272   2.655   4.620  11.742
   17TCq1    H3  273   2.991   0.015  11.564
   17TCq1    H4  274   2.634   0.250  11.623
   18MPD2     C  275   3.077   0.490  11.509
   18MPD2    C1  276   3.114   0.361  11.536
   18MPD2    C2  277   3.250   0.322  11.533
   18MPD2    C3  278   3.355   0.412  11.507
   18MPD2    C4  279   3.316   0.543  11.493
   18MPD2    C5  280   3.183   0.579  11.492
   18MPD2     H  281   3.267   0.215  11.535
   18MPD2    H1  282   3.395   0.614  11.472
   18MPD2    H2  283   2.972   0.517  11.518
   18MPD2    H3  284   3.170   0.685  11.472
   18MPD2     N  285   3.488   0.377  11.476
   18MPD2    H5  286   3.547   0.456  11.454
   18MPD2    N1  287   3.019   0.261  11.573
   18MPD2    H7  288   3.067   0.182  11.614
   19TMC2    C1  289   0.152   0.249  14.236
   19TMC2    C2  290   0.082   0.356  14.180
   19TMC2    C3  291   4.730   0.356  14.187
   19TMC2    C4  292   0.079   0.152  14.305
   19TMC2    C5  293   4.725   0.159  14.307
   19TMC2    C6  294   4.649   0.258  14.241
   19TMC2     C  295   0.294   0.252  14.221
   19TMC2     O  296   0.344   0.326  14.139
   19TMC2     H  297   0.139   0.434  14.130
   19TMC2    H1  298   0.133   0.069  14.349
   19TMC2    H2  299   4.543   0.275  14.227
   19TMC2    C7  300   4.649   0.049  14.363
   19TMC2    C8  301   4.649   0.462  14.120
   19TMC2    O1  302   4.703   4.728  14.404
   19TMC2    O2  303   4.551   0.429  14.050
   19TMC2    O5  304   4.720   0.575  14.117
   19TMC2    H5  305   4.773   0.581  14.199
   20MPD2     C  306   0.593   0.196  14.243
   20MPD2    C1  307   0.499   0.136  14.322
   20MPD2    C2  308   0.533   0.042  14.411
   20MPD2    C3  309   0.665   0.025  14.437
   20MPD2    C4  310   0.760   0.086  14.362
   20MPD2    C5  311   0.725   0.180  14.272
   20MPD2     H  312   0.471   0.006  14.492
   20MPD2    H1  313   0.866   0.074  14.380
   20MPD2    H2  314   0.568   0.265  14.163
   20MPD2    H3  315   0.800   0.226  14.209
   20MPD2     N  316   0.713   4.717  14.540
   20MPD2    H5  317   0.812   4.727  14.560
   20MPD2    N1  318   0.360   0.165  14.309
   20MPD2    H7  319   0.308   0.111  14.377
   21TMC2    C1  320   2.152   0.403  14.487
   21TMC2    C2  321   2.230   0.293  14.485
   21TMC2    C3  322   2.267   0.236  14.601
   21TMC2    C4  323   2.097   0.454  14.601
   21TMC2    C5  324   2.135   0.390  14.720
   21TMC2    C6  325   2.229   0.290  14.723
   21TMC2     C  326   2.166   0.491  14.369
   21TMC2     O  327   2.123   0.438  14.264
   21TMC2     H  328   2.233   0.245  14.388
   21TMC2    H1  329   2.015   0.523  14.590
   21TMC2    H2  330   2.258   0.241  14.815
   21TMC2    C7  331   2.134   0.469  14.840
   21TMC2    C8  332   2.344   0.111  14.610
   21TMC2    O1  333   2.156   0.412  14.943
   21TMC2    O2  334   2.360   0.047  14.712
   21TMC2    O5  335   2.392   0.083  14.489
   21TMC2    H5  336   2.401   0.163  14.432
   22MPD2     C  337   2.338   0.834  14.701
   22MPD2    C1  338   2.379   0.702  14.675
   22MPD2    C2  339   2.327   0.637  14.566
   22MPD2    C3  340   2.228   0.694  14.488
   22MPD2    C4  341   2.192   0.828  14.511
   22MPD2    C5  342   2.254   0.897  14.618
   22MPD2     H  343   2.370   0.541  14.541
   22MPD2    H1  344   2.121   0.882  14.450
   22MPD2    H2  345   2.366   0.893  14.787
   22MPD2    H3  346   2.208   0.994  14.634
   22MPD2     N  347   2.159   0.626  14.384
   22MPD2    H5  348   2.103   0.679  14.318
   22MPD2    N1  349   2.456   0.630  14.777
   22MPD2    H7  350   2.507   0.551  14.738
   23TMC2    C1  351   3.347   1.736  14.649
   23TMC2    C2  352   3.348   1.864  14.601
   23TMC2    C3  353   3.228   1.919  14.561
   23TMC2    C4  354   3.232   1.666  14.657
   23TMC2    C5  355   3.116   1.717  14.612
   23TMC2    C6  356   3.108   1.841  14.554
   23TMC2     C  357   3.457   1.683  14.734
   23TMC2     O  358   3.433   1.590  14.809
   23TMC2     H  359   3.434   1.929  14.616
   23TMC2    H1  360   3.239   1.567  14.700
   23TMC2    H2  361   3.023   1.886  14.504
   23TMC2    C7  362   3.007   1.625  14.598
   23TMC2    C8  363   3.225   2.063  14.545
   23TMC2    O1  364   3.013   1.510  14.649
   23TMC2    O2  365   3.324   2.127  14.510
   23TMC2    O5  366   3.102   2.112  14.571
   23TMC2    H5  367   3.040   2.054  14.620
   24MPD2     C  368   3.926   1.637  14.904
   24MPD2    C1  369   3.808   1.617  14.964
   24MPD2    C2  370   3.689   1.648  14.898
   24MPD2    C3  371   3.695   1.710  14.777
   24MPD2    C4  372   3.816   1.739  14.720
   24MPD2    C5  373   3.934   1.700  14.785
   24MPD2     H  374   3.597   1.633  14.953
   24MPD2    H1  375   3.830   1.788  14.624
   24MPD2    H2  376   4.023   1.616  14.948
   24MPD2    H3  377   4.029   1.721  14.737
   24MPD2     N  378   3.580   1.742  14.706
   24MPD2    H5  379   3.582   1.809  14.629
   24MPD2    N1  380   3.804   1.557  15.092
   24MPD2    H7  381   3.720   1.573  15.147
   25TMC2    C1  382   2.526   3.887  12.233
   25TMC2    C2  383   2.517   3.824  12.352
   25TMC2    C3  384   2.530   3.895  12.472
   25TMC2    C4  385   2.543   4.017  12.227
   25TMC2    C5  386   2.537   4.092  12.343
   25TMC2    C6  387   2.537   4.032  12.465
   25TMC2     C  388   2.558   3.803  12.120
   25TMC2     O  389   2.621   3.861  12.031
   25TMC2     H  390   2.511   3.717  12.370
   25TMC2    H1  391   2.548   4.076  12.136
   25TMC2    H2  392   2.550   4.098  12.550
   25TMC2    C7  393   2.498   4.230  12.323
   25TMC2    C8  394   2.456   3.852  12.590
   25TMC2    O1  395   2.597   4.297  12.314
   25TMC2    O2  396   2.368   3.924  12.637
   25TMC2    O5  397   2.456   3.717  12.601
   25TMC2    H5  398   2.544   3.684  12.571
   26MPD2     C  399   2.581   3.390  11.829
   26MPD2    C1  400   2.457   3.390  11.882
   26MPD2    C2  401   2.432   3.486  11.982
   26MPD2    C3  402   2.527   3.586  12.014
   26MPD2    C4  403   2.650   3.589  11.949
   26MPD2    C5  404   2.679   3.492  11.857
   26MPD2     H  405   2.337   3.485  12.034
   26MPD2    H1  406   2.728   3.661  11.972
   26MPD2    H2  407   2.614   3.321  11.753
   26MPD2    H3  408   2.765   3.486  11.792
   26MPD2     N  409   2.501   3.683  12.116
   26MPD2    H5  410   2.417   3.669  12.172
   26MPD2    N1  411   2.362   3.305  11.841
   26MPD2    H7  412   2.386   3.243  11.764
   27TMC2    C1  413   1.419   1.503  12.513
   27TMC2    C2  414   1.329   1.614  12.509
   27TMC2    C3  415   1.381   1.737  12.469
   27TMC2    C4  416   1.550   1.517  12.476
   27TMC2    C5  417   1.597   1.639  12.442
   27TMC2    C6  418   1.518   1.747  12.444
   27TMC2     C  419   1.380   1.380  12.589
   27TMC2     O  420   1.455   1.282  12.580
   27TMC2     H  421   1.223   1.611  12.532
   27TMC2    H1  422   1.618   1.434  12.486
   27TMC2    H2  423   1.555   1.849  12.437
   27TMC2    C7  424   1.737   1.665  12.474
   27TMC2    C8  425   1.325   1.859  12.529
   27TMC2    O1  426   1.824   1.622  12.399
   27TMC2    O2  427   1.389   1.954  12.575
   27TMC2    O5  428   1.197   1.867  12.499
   27TMC2    H5  429   1.171   1.795  12.437
   28MPD2     C  430   1.063   1.123  12.900
   28MPD2    C1  431   1.025   1.254  12.904
   28MPD2    C2  432   1.094   1.351  12.830
   28MPD2    C3  433   1.200   1.306  12.746
   28MPD2    C4  434   1.227   1.171  12.738
   28MPD2    C5  435   1.164   1.074  12.815
   28MPD2     H  436   1.069   1.455  12.844
   28MPD2    H1  437   1.310   1.129  12.683
   28MPD2    H2  438   1.018   1.044  12.959
   28MPD2    H3  439   1.196   0.971  12.810
   28MPD2     N  440   1.276   1.403  12.677
   28MPD2    H5  441   1.252   1.499  12.699
   28MPD2    N1  442   0.914   1.282  12.990
   28MPD2    H7  443   0.862   1.200  13.018
   29TMC2    C1  444   0.743   3.766  14.786
   29TMC2    C2  445   0.722   3.768  14.923
   29TMC2    C3  446   0.763   3.876  14.993
   29TMC2    C4  447   0.801   3.874  14.719
   29TMC2    C5  448   0.845   3.971  14.799
   29TMC2    C6  449   0.830   3.979  14.931
   29TMC2     C  450   0.729   3.642  14.716
   29TMC2     O  451   0.750   3.541  14.784
   29TMC2     H  452   0.679   3.684  14.977
   29TMC2    H1  453   0.835   3.866  14.616
   29TMC2    H2  454   0.848   4.071  14.985
   29TMC2    C7  455   0.898   4.089  14.736
   29TMC2    C8  456   0.746   3.891  15.138
   29TMC2    O1  457   0.873   4.102  14.617
   29TMC2    O2  458   0.822   3.957  15.208
   29TMC2    O5  459   0.633   3.824  15.167
   29TMC2    H5  460   0.585   3.807  15.083
   30MPD2     C  461   0.580   3.350  14.306
   30MPD2    C1  462   0.666   3.323  14.412
   30MPD2    C2  463   0.698   3.419  14.508
   30MPD2    C3  464   0.650   3.550  14.495
   30MPD2    C4  465   0.574   3.575  14.382
   30MPD2    C5  466   0.530   3.478  14.299
   30MPD2     H  467   0.749   3.396  14.601
   30MPD2    H1  468   0.539   3.676  14.361
   30MPD2    H2  469   0.552   3.275  14.233
   30MPD2    H3  470   0.458   3.507  14.223
   30MPD2     N  471   0.673   3.653  14.586
   30MPD2    H5  472   0.675   3.745  14.543
   30MPD2    N1  473   0.724   3.194  14.437
   30MPD2    H7  474   0.795   3.181  14.508
   31TMC2    C1  475   3.307   2.282  15.775
   31TMC2    C2  476   3.175   2.307  15.769
   31TMC2    C3  477   3.113   2.341  15.883
   31TMC2    C4  478   3.378   2.284  15.895
   31TMC2    C5  479   3.305   2.322  16.007
   31TMC2    C6  480   3.169   2.348  16.005
   31TMC2     C  481   3.370   2.273  15.649
   31TMC2     O  482   3.305   2.292  15.549
   31TMC2     H  483   3.117   2.290  15.679
   31TMC2    H1  484   3.480   2.248  15.905
   31TMC2    H2  485   3.110   2.386  16.087
   31TMC2    C7  486   3.372   2.306  16.135
   31TMC2    C8  487   2.969   2.342  15.881
   31TMC2    O1  488   3.395   2.198  16.176
   31TMC2    O2  489   2.905   2.294  15.974
   31TMC2    O5  490   2.928   2.419  15.783
   31TMC2    H5  491   2.999   2.467  15.736
   32MPD2     C  492   3.797   2.419  15.394
   32MPD2    C1  493   3.664   2.431  15.356
   32MPD2    C2  494   3.568   2.380  15.445
   32MPD2    C3  495   3.607   2.317  15.568
   32MPD2    C4  496   3.738   2.298  15.592
   32MPD2    C5  497   3.823   2.358  15.508
   32MPD2     H  498   3.462   2.401  15.437
   32MPD2    H1  499   3.781   2.234  15.668
   32MPD2    H2  500   3.883   2.464  15.346
   32MPD2    H3  501   3.927   2.354  15.537
   32MPD2     N  502   3.508   2.263  15.658
   32MPD2    H5  503   3.539   2.225  15.747
   32MPD2    N1  504   3.636   2.506  15.238
   32MPD2    H7  505   3.707   2.514  15.165
   33MPD2     C  506   3.983   0.452  10.819
   33MPD2    C1  507   3.856   0.433  10.880
   33MPD2    C2  508   3.749   0.459  10.804
   33MPD2    C3  509   3.757   0.514  10.676
   33MPD2    C4  510   3.882   0.549  10.622
   33MPD2    C5  511   3.991   0.511  10.696
   33MPD2     H  512   3.649   0.455  10.847
   33MPD2    H1  513   3.905   0.598  10.528
   33MPD2    H2  514   4.080   0.426  10.859
   33MPD2    H3  515   4.086   0.534  10.649
   33MPD2     N  516   3.650   0.556  10.597
   33MPD2    H5  517   3.675   0.602  10.510
   33MPD2    N1  518   3.858   0.370  11.007
   33MPD2    H7  519   3.952   0.355  11.043
   34TCq2    C1  520   3.517   0.528  10.620
   34TCq2    O2  521   3.465   0.449  10.695
   34TCq2    C2  522   3.437   0.567  10.500
   34TCq2    C3  523   3.306   0.529  10.494
   34TCq2    C4  524   3.236   0.570  10.385
   34TCq2    C5  525   3.286   0.658  10.294
   34TCq2    C6  526   3.409   0.704  10.307
   34TCq2    C7  527   3.491   0.660  10.409
   34TCq2    C8  528   3.476   0.798  10.222
   34TCq2    O4  529   3.593   0.828  10.248
   34TCq2    C9  530   3.102   0.511  10.368
   34TCq2    O5  531   3.041   0.541  10.263
   34TCq2    O6  532   3.070   0.412  10.442
   34TCq2    H2  533   3.263   0.466  10.570
   34TCq2    H3  534   3.226   0.688  10.209
   34TCq2    H4  535   3.584   0.712  10.429
   35TMC2    C1  536   4.609   1.817  12.074
   35TMC2    C2  537   4.500   1.888  12.037
   35TMC2    C3  538   4.376   1.845  12.070
   35TMC2    C4  539   4.600   1.707  12.152
   35TMC2    C5  540   4.472   1.666  12.191
   35TMC2    C6  541   4.361   1.736  12.155
   35TMC2     C  542   4.738   1.858  12.026
   35TMC2     O  543   4.738   1.922  11.924
   35TMC2     H  544   4.514   1.972  11.970
   35TMC2    H1  545   4.684   1.640  12.166
   35TMC2    H2  546   4.260   1.712  12.185
   35TMC2    C7  547   4.444   1.523  12.202
   35TMC2    C8  548   4.251   1.903  12.028
   35TMC2    O1  549   4.335   1.484  12.163
   35TMC2    O2  550   4.145   1.845  12.015
   35TMC2    O5  551   4.272   2.032  12.005
   35TMC2    H5  552   4.367   2.057  12.014
   36MPD2     C  553   0.448   1.962  12.083
   36MPD2    C1  554   0.417   1.866  12.180
   36MPD2    C2  555   0.288   1.813  12.173
   36MPD2    C3  556   0.192   1.868  12.094
   36MPD2    C4  557   0.228   1.964  12.000
   36MPD2    C5  558   0.353   2.010  12.004
   36MPD2     H  559   0.252   1.730  12.232
   36MPD2    H1  560   0.163   2.010  11.926
   36MPD2    H2  561   0.542   2.015  12.097
   36MPD2    H3  562   0.361   2.094  11.937
   36MPD2     N  563   0.066   1.817  12.105
   36MPD2    H5  564   0.052   1.778  12.198
   36MPD2    N1  565   0.526   1.823  12.261
   36MPD2    H7  566   0.609   1.879  12.244
   37TMC2    C1  567   2.581   1.521  12.689
   37TMC2    C2  568   2.470   1.452  12.656
   37TMC2    C3  569   2.421   1.452  12.524
   37TMC2    C4  570   2.657   1.581  12.592
   37TMC2    C5  571   2.619   1.559  12.456
   37TMC2    C6  572   2.495   1.506  12.425
   37TMC2     C  573   2.594   1.566  12.829
   37TMC2     O  574   2.500   1.562  12.906
   37TMC2     H  575   2.413   1.416  12.741
   37TMC2    H1  576   2.737   1.652  12.611
   37TMC2    H2  577   2.464   1.519  12.322
   37TMC2    C7  578   2.675   1.647  12.364
   37TMC2    C8  579   2.283   1.423  12.504
   37TMC2    O1  580   2.702   1.761  12.397
   37TMC2    O2  581   2.200   1.428  12.595
   37TMC2    O5  582   2.270   1.364  12.389
   37TMC2    H5  583   2.345   1.379  12.327
   38MPD2     C  584   2.850   1.781  13.229
   38MPD2    C1  585   2.936   1.720  13.142
   38MPD2    C2  586   2.895   1.682  13.019
   38MPD2    C3  587   2.759   1.675  12.985
   38MPD2    C4  588   2.667   1.716  13.077
   38MPD2    C5  589   2.714   1.775  13.195
   38MPD2     H  590   2.964   1.629  12.953
   38MPD2    H1  591   2.561   1.717  13.054
   38MPD2    H2  592   2.886   1.817  13.325
   38MPD2    H3  593   2.647   1.813  13.271
   38MPD2     N  594   2.723   1.612  12.863
   38MPD2    H5  595   2.803   1.589  12.804
   38MPD2    N1  596   3.070   1.689  13.179
   38MPD2    H7  597   3.133   1.666  13.103
   39TMC2    C1  598   0.517   3.311  19.994
   39TMC2    C2  599   0.434   3.289  20.100
   39TMC2    C3  600   0.501   3.235  20.211
   39TMC2    C4  601   0.654   3.288  19.992
   39TMC2    C5  602   0.710   3.233  20.104
   39TMC2    C6  603   0.632   3.198  20.209
   39TMC2     C  604   0.444   3.318  19.866
   39TMC2     O  605   0.317   3.322  19.876
   39TMC2     H  606   0.326   3.300  20.105
   39TMC2    H1  607   0.704   3.285  19.896
   39TMC2    H2  608   0.679   3.169  20.302
   39TMC2    C7  609   0.848   3.248  20.133
   39TMC2    C8  610   0.441   3.228  20.344
   39TMC2    O1  611   0.887   3.216  20.246
   39TMC2    O2  612   0.500   3.278  20.443
   39TMC2    O5  613   0.306   3.220  20.335
   39TMC2    H5  614   0.285   3.177  20.249
   40MPD2     C  615   0.575   3.356  19.514
   40MPD2    C1  616   0.477   3.332  19.614
   40MPD2    C2  617   0.351   3.294  19.580
   40MPD2    C3  618   0.317   3.289  19.448
   40MPD2    C4  619   0.409   3.319  19.352
   40MPD2    C5  620   0.539   3.350  19.382
   40MPD2     H  621   0.271   3.299  19.653
   40MPD2    H1  622   0.385   3.334  19.247
   40MPD2    H2  623   0.674   3.392  19.538
   40MPD2    H3  624   0.617   3.367  19.309
   40MPD2     N  625   0.182   3.266  19.412
   40MPD2    H5  626   0.165   3.272  19.312
   40MPD2    N1  627   0.520   3.340  19.751
   40MPD2    H7  628   0.619   3.357  19.766
   41TMC2    C1  629   4.394   1.810  14.238
   41TMC2    C2  630   4.318   1.881  14.325
   41TMC2    C3  631   4.271   2.004  14.283
   41TMC2    C4  632   4.413   1.855  14.106
   41TMC2    C5  633   4.357   1.966  14.065
   41TMC2    C6  634   4.290   2.049  14.150
   41TMC2     C  635   4.476   1.695  14.282
   41TMC2     O  636   4.551   1.653  14.197
   41TMC2     H  637   4.279   1.853  14.422
   41TMC2    H1  638   4.481   1.797  14.045
   41TMC2    H2  639   4.248   2.139  14.105
   41TMC2    C7  640   4.427   2.043  13.966
   41TMC2    C8  641   4.173   2.074  14.359
   41TMC2    O1  642   4.472   2.151  14.002
   41TMC2    O2  643   4.097   2.018  14.433
   41TMC2    O5  644   4.188   2.209  14.341
   41TMC2    H5  645   4.266   2.244  14.292
   42MPD2     C  646   4.611   1.445  14.391
   42MPD2    C1  647   4.511   1.522  14.462
   42MPD2    C2  648   4.473   1.481  14.589
   42MPD2    C3  649   4.532   1.376  14.651
   42MPD2    C4  650   4.626   1.301  14.588
   42MPD2    C5  651   4.665   1.341  14.460
   42MPD2     H  652   4.414   1.550  14.648
   42MPD2    H1  653   4.667   1.219  14.645
   42MPD2    H2  654   4.634   1.460  14.286
   42MPD2    H3  655   4.736   1.277  14.409
   42MPD2     N  656   4.494   1.347  14.788
   42MPD2    H5  657   4.549   1.281  14.842
   42MPD2    N1  658   4.445   1.640  14.411
   42MPD2    H7  659   4.373   1.685  14.467
   43TMC2    C1  660   0.851   0.161  19.434
   43TMC2    C2  661   0.731   0.231  19.434
   43TMC2    C3  662   0.724   0.347  19.502
   43TMC2    C4  663   0.964   0.208  19.490
   43TMC2    C5  664   0.956   0.339  19.533
   43TMC2    C6  665   0.842   0.415  19.539
   43TMC2     C  666   0.882   0.055  19.335
   43TMC2     O  667   1.000   0.016  19.334
   43TMC2     H  668   0.643   0.197  19.380
   43TMC2    H1  669   1.058   0.154  19.496
   43TMC2    H2  670   0.852   0.519  19.569
   43TMC2    C7  671   1.085   0.386  19.576
   43TMC2    C8  672   0.608   0.434  19.495
   43TMC2    O1  673   1.181   0.346  19.510
   43TMC2    O2  674   0.509   0.406  19.436
   43TMC2    O5  675   0.617   0.536  19.583
   43TMC2    H5  676   0.694   0.532  19.644
   44MPD2     C  677   0.793   4.578  18.908
   44MPD2    C1  678   0.915   4.612  18.963
   44MPD2    C2  679   0.917   4.685  19.084
   44MPD2    C3  680   0.797   4.714  19.143
   44MPD2    C4  681   0.678   4.675  19.090
   44MPD2    C5  682   0.673   4.606  18.975
   44MPD2     H  683   1.007   4.720  19.134
   44MPD2    H1  684   0.589   4.705  19.143
   44MPD2    H2  685   0.792   4.511  18.823
   44MPD2    H3  686   0.580   4.598  18.919
   44MPD2     N  687   0.783   0.013  19.257
   44MPD2    H5  688   0.697   0.067  19.260
   44MPD2    N1  689   1.038   4.578  18.902
   44MPD2    H7  690   1.120   4.598  18.959
   45TMC2    C1  691   1.670   1.762   9.929
   45TMC2    C2  692   1.674   1.773   9.793
   45TMC2    C3  693   1.750   1.873   9.749
   45TMC2    C4  694   1.747   1.835  10.014
   45TMC2    C5  695   1.823   1.934   9.960
   45TMC2    C6  696   1.826   1.956   9.825
   45TMC2     C  697   1.598   1.652   9.978
   45TMC2     O  698   1.642   1.595  10.078
   45TMC2     H  699   1.630   1.700   9.727
   45TMC2    H1  700   1.751   1.808  10.119
   45TMC2    H2  701   1.904   2.014   9.776
   45TMC2    C7  702   1.856   2.039  10.044
   45TMC2    C8  703   1.755   1.890   9.606
   45TMC2    O1  704   1.854   2.016  10.164
   45TMC2    O2  705   1.846   1.956   9.558
   45TMC2    O5  706   1.633   1.883   9.551
   45TMC2    H5  707   1.566   1.859   9.619
   46MPD2     C  708   1.423   1.408   9.960
   46MPD2    C1  709   1.380   1.534   9.924
   46MPD2    C2  710   1.263   1.550   9.860
   46MPD2    C3  711   1.163   1.460   9.872
   46MPD2    C4  712   1.196   1.334   9.920
   46MPD2    C5  713   1.322   1.310   9.960
   46MPD2     H  714   1.247   1.653   9.831
   46MPD2    H1  715   1.119   1.258   9.919
   46MPD2    H2  716   1.519   1.379  10.001
   46MPD2    H3  717   1.358   1.209   9.975
   46MPD2     N  718   1.039   1.500   9.821
   46MPD2    H5  719   1.034   1.599   9.799
   46MPD2    N1  720   1.477   1.643   9.916
   46MPD2    H7  721   1.450   1.717   9.852
   47TMC2    C1  722   3.812   2.874   9.094
   47TMC2    C2  723   3.897   2.790   9.031
   47TMC2    C3  724   3.849   2.708   8.937
   47TMC2    C4  725   3.680   2.880   9.065
   47TMC2    C5  726   3.640   2.798   8.960
   47TMC2    C6  727   3.719   2.704   8.898
   47TMC2     C  728   3.866   2.953   9.205
   47TMC2     O  729   3.810   3.061   9.227
   47TMC2     H  730   4.004   2.806   9.036
   47TMC2    H1  731   3.612   2.946   9.116
   47TMC2    H2  732   3.677   2.631   8.829
   47TMC2    C7  733   3.497   2.788   8.933
   47TMC2    C8  734   3.935   2.620   8.873
   47TMC2    O1  735   3.446   2.689   8.887
   47TMC2    O2  736   3.908   2.578   8.763
   47TMC2    O5  737   3.988   2.541   8.968
   47TMC2    H5  738   3.975   2.562   9.063
   48MPD2     C  739   4.038   3.042   9.424
   48MPD2    C1  740   4.031   2.913   9.385
   48MPD2    C2  741   4.104   2.818   9.452
   48MPD2    C3  742   4.181   2.846   9.562
   48MPD2    C4  743   4.194   2.984   9.600
   48MPD2    C5  744   4.117   3.080   9.531
   48MPD2     H  745   4.092   2.711   9.436
   48MPD2    H1  746   4.245   3.018   9.690
   48MPD2    H2  747   3.988   3.124   9.374
   48MPD2    H3  748   4.121   3.183   9.565
   48MPD2     N  749   4.239   2.737   9.631
   48MPD2    H5  750   4.224   2.644   9.593
   48MPD2    N1  751   3.945   2.869   9.280
   48MPD2    H7  752   3.966   2.781   9.235
   49TMC2    C1  753   2.382   0.023  10.203
   49TMC2    C2  754   2.369   0.081  10.080
   49TMC2    C3  755   2.257   0.041  10.010
   49TMC2    C4  756   2.302   4.697  10.248
   49TMC2    C5  757   2.204   4.648  10.163
   49TMC2    C6  758   2.183   4.710  10.044
   49TMC2     C  759   2.484   0.075  10.290
   49TMC2     O  760   2.578   0.139  10.239
   49TMC2     H  761   2.424   0.168  10.046
   49TMC2    H1  762   2.332   4.635  10.332
   49TMC2    H2  763   2.093   4.686   9.988
   49TMC2    C7  764   2.126   4.532  10.199
   49TMC2    C8  765   2.258   0.076   9.876
   49TMC2    O1  766   2.047   4.490  10.116
   49TMC2    O2  767   2.158   0.065   9.806
   49TMC2    O5  768   2.375   0.038   9.830
   49TMC2    H5  769   2.455   0.048   9.886
   50MPD2     C  770   2.656   0.165  10.518
   50MPD2    C1  771   2.537   0.107  10.535
   50MPD2    C2  772   2.490   0.096  10.665
   50MPD2    C3  773   2.554   0.139  10.776
   50MPD2    C4  774   2.681   0.193  10.760
   50MPD2    C5  775   2.730   0.209  10.628
   50MPD2     H  776   2.387   0.066  10.681
   50MPD2    H1  777   2.738   0.239  10.840
   50MPD2    H2  778   2.697   0.166  10.418
   50MPD2    H3  779   2.834   0.236  10.614
   50MPD2     N  780   2.510   0.124  10.905
   50MPD2    H5  781   2.573   0.143  10.983
   50MPD2    N1  782   2.458   0.060  10.428
   50MPD2    H7  783   2.368   0.020  10.453
   51TMC2    C1  784   2.612   3.685  19.170
   51TMC2    C2  785   2.618   3.766  19.281
   51TMC2    C3  786   2.565   3.890  19.268
   51TMC2    C4  787   2.560   3.725  19.044
   51TMC2    C5  788   2.526   3.857  19.035
   51TMC2    C6  789   2.529   3.939  19.141
   51TMC2     C  790   2.702   3.573  19.169
   51TMC2     O  791   2.772   3.555  19.272
   51TMC2     H  792   2.665   3.738  19.375
   51TMC2    H1  793   2.552   3.663  18.955
   51TMC2    H2  794   2.507   4.044  19.126
   51TMC2    C7  795   2.506   3.926  18.910
   51TMC2    C8  796   2.568   3.963  19.397
   51TMC2    O1  797   2.433   4.024  18.917
   51TMC2    O2  798   2.651   3.933  19.483
   51TMC2    O5  799   2.486   4.074  19.400
   51TMC2    H5  800   2.409   4.065  19.339
   52MPD2     C  801   2.964   3.226  18.898
   52MPD2    C1  802   2.986   3.275  19.030
   52MPD2    C2  803   2.894   3.364  19.079
   52MPD2    C3  804   2.778   3.394  19.011
   52MPD2    C4  805   2.751   3.339  18.893
   52MPD2    C5  806   2.850   3.259  18.837
   52MPD2     H  807   2.922   3.420  19.168
   52MPD2    H1  808   2.668   3.364  18.828
   52MPD2    H2  809   3.039   3.173  18.840
   52MPD2    H3  810   2.842   3.237  18.731
   52MPD2     N  811   2.686   3.487  19.061
   52MPD2    H5  812   2.607   3.499  18.999
   52MPD2    N1  813   3.115   3.276  19.092
   52MPD2    H7  814   3.113   3.320  19.183
   53TMC2    C1  815   2.895   2.171  11.907
   53TMC2    C2  816   2.874   2.268  11.817
   53TMC2    C3  817   2.890   2.402  11.858
   53TMC2    C4  818   2.956   2.195  12.021
   53TMC2    C5  819   2.973   2.324  12.062
   53TMC2    C6  820   2.921   2.429  11.993
   53TMC2     C  821   2.854   2.041  11.867
   53TMC2     O  822   2.853   2.016  11.747
   53TMC2     H  823   2.844   2.254  11.714
   53TMC2    H1  824   2.990   2.109  12.078
   53TMC2    H2  825   2.938   2.532  12.021
   53TMC2    C7  826   2.969   2.335  12.202
   53TMC2    C8  827   2.898   2.505  11.764
   53TMC2    O1  828   2.862   2.382  12.254
   53TMC2    O2  829   2.854   2.612  11.799
   53TMC2    O5  830   2.907   2.459  11.635
   53TMC2    H5  831   2.968   2.385  11.612
   54MPD2     C  832   2.787   1.747  11.868
   54MPD2    C1  833   2.784   1.826  11.980
   54MPD2    C2  834   2.762   1.770  12.102
   54MPD2    C3  835   2.716   1.639  12.114
   54MPD2    C4  836   2.727   1.553  12.005
   54MPD2    C5  837   2.768   1.613  11.884
   54MPD2     H  838   2.763   1.840  12.185
   54MPD2    H1  839   2.700   1.448  12.007
   54MPD2    H2  840   2.807   1.786  11.769
   54MPD2    H3  841   2.773   1.549  11.797
   54MPD2     N  842   2.684   1.582  12.238
   54MPD2    H5  843   2.646   1.488  12.230
   54MPD2    N1  844   2.815   1.973  11.975
   54MPD2    H7  845   2.799   2.020  12.064
   55TMC2    C1  846   4.268   4.333  18.035
   55TMC2    C2  847   4.225   4.325  17.903
   55TMC2    C3  848   4.205   4.202  17.851
   55TMC2    C4  849   4.263   4.223  18.117
   55TMC2    C5  850   4.231   4.100  18.069
   55TMC2    C6  851   4.207   4.090  17.934
   55TMC2     C  852   4.205   4.443  18.106
   55TMC2     O  853   4.144   4.407  18.206
   55TMC2     H  854   4.233   4.411  17.838
   55TMC2    H1  855   4.296   4.236  18.220
   55TMC2    H2  856   4.154   4.003  17.897
   55TMC2    C7  857   4.125   4.037  18.149
   55TMC2    C8  858   4.159   4.198  17.716
   55TMC2    O1  859   4.065   3.942  18.101
   55TMC2    O2  860   4.137   4.305  17.656
   55TMC2    O5  861   4.132   4.073  17.677
   55TMC2    H5  862   4.155   3.999  17.737
   56MPD2     C  863   4.235   0.025  18.048
   56MPD2    C1  864   4.187   4.691  18.101
   56MPD2    C2  865   4.114   4.690  18.219
   56MPD2    C3  866   4.081   0.028  18.277
   56MPD2    C4  867   4.137   0.145  18.234
   56MPD2    C5  868   4.206   0.137  18.112
   56MPD2     H  869   4.060   4.605  18.260
   56MPD2    H1  870   4.114   0.241  18.279
   56MPD2    H2  871   4.276   0.027  17.948
   56MPD2    H3  872   4.246   0.226  18.065
   56MPD2     N  873   3.997   0.024  18.394
   56MPD2    H5  874   3.946   4.717  18.404
   56MPD2    N1  875   4.229   4.563  18.053
   56MPD2    H7  876   4.264   4.572  17.958
   57MPD2     C  877   2.750   0.412  14.177
   57MPD2    C1  878   2.793   0.533  14.223
   57MPD2    C2  879   2.929   0.560  14.227
   57MPD2    C3  880   3.019   0.454  14.200
   57MPD2    C4  881   2.971   0.335  14.160
   57MPD2    C5  882   2.838   0.313  14.145
   57MPD2     H  883   2.961   0.659  14.257
   57MPD2    H1  884   3.034   0.251  14.133
   57MPD2    H2  885   2.645   0.396  14.155
   57MPD2    H3  886   2.795   0.223  14.103
   57MPD2     N  887   3.158   0.469  14.211
   57MPD2    H5  888   3.223   0.394  14.192
   57MPD2    N1  889   2.704   0.638  14.265
   57MPD2    H7  890   2.743   0.731  14.276
   58TCq2    C1  891   3.226   0.580  14.259
   58TCq2    O2  892   3.193   0.695  14.286
   58TCq2    C2  893   3.372   0.560  14.259
   58TCq2    C3  894   3.416   0.439  14.306
   58TCq2    C4  895   3.518   0.374  14.242
   58TCq2    C5  896   3.573   0.421  14.130
   58TCq2    C6  897   3.525   0.537  14.083
   58TCq2    C7  898   3.423   0.610  14.146
   58TCq2    C8  899   3.571   0.577  13.954
   58TCq2    O4  900   3.543   0.689  13.914
   58TCq2    C9  901   3.543   0.235  14.280
   58TCq2    O5  902   3.643   0.181  14.229
   58TCq2    O6  903   3.443   0.175  14.316
   58TCq2    H2  904   3.386   0.393  14.399
   58TCq2    H3  905   3.654   0.356  14.099
   58TCq2    H4  906   3.374   0.699  14.108
   59TMC2    C1  907   0.461   0.800  13.147
   59TMC2    C2  908   0.453   0.672  13.188
   59TMC2    C3  909   0.430   0.583  13.089
   59TMC2    C4  910   0.425   0.851  13.023
   59TMC2    C5  911   0.413   0.755  12.930
   59TMC2    C6  912   0.419   0.624  12.959
   59TMC2     C  913   0.525   0.899  13.231
   59TMC2     O  914   0.540   1.011  13.188
   59TMC2     H  915   0.489   0.645  13.286
   59TMC2    H1  916   0.439   0.956  13.000
   59TMC2    H2  917   0.391   0.551  12.884
   59TMC2    C7  918   0.362   0.792  12.800
   59TMC2    C8  919   0.422   0.443  13.107
   59TMC2    O1  920   0.339   0.703  12.722
   59TMC2    O2  921   0.458   0.362  13.023
   59TMC2    O5  922   0.333   0.424  13.208
   59TMC2    H5  923   0.299   0.512  13.235
   60MPD2     C  924   0.630   1.085  13.434
   60MPD2    C1  925   0.658   0.950  13.431
   60MPD2    C2  926   0.766   0.908  13.507
   60MPD2    C3  927   0.855   0.998  13.570
   60MPD2    C4  928   0.827   1.137  13.571
   60MPD2    C5  929   0.711   1.170  13.499
   60MPD2     H  930   0.783   0.801  13.511
   60MPD2    H1  931   0.901   1.210  13.603
   60MPD2    H2  932   0.547   1.129  13.380
   60MPD2    H3  933   0.688   1.275  13.488
   60MPD2     N  934   0.972   0.967  13.634
   60MPD2    H5  935   1.015   1.048  13.678
   60MPD2    N1  936   0.592   0.861  13.339
   60MPD2    H7  937   0.590   0.764  13.367
   61TMC2    C1  938   4.726   1.760  15.362
   61TMC2    C2  939   4.705   1.655  15.447
   61TMC2    C3  940   4.715   1.678  15.580
   61TMC2    C4  941   4.753   1.888  15.407
   61TMC2    C5  942   4.747   1.908  15.539
   61TMC2    C6  943   4.742   1.804  15.626
   61TMC2     C  944   4.685   1.738  15.225
   61TMC2     O  945   4.657   1.625  15.193
   61TMC2     H  946   4.680   1.557  15.407
   61TMC2    H1  947   4.751   1.977  15.345
   61TMC2    H2  948   4.733   1.827  15.732
   61TMC2    C7  949   4.776   2.043  15.580
   61TMC2    C8  950   4.672   1.587  15.683
   61TMC2    O1  951   4.757   2.130  15.494
   61TMC2    O2  952   4.651   1.619  15.800
   61TMC2    O5  953   4.599   1.495  15.627
   61TMC2    H5  954   4.644   1.469  15.544
   62MPD2     C  955   4.575   1.765  14.956
   62MPD2    C1  956   4.644   1.870  15.012
   62MPD2    C2  957   4.648   1.999  14.958
   62MPD2    C3  958   4.581   2.023  14.840
   62MPD2    C4  959   4.526   1.916  14.776
   62MPD2    C5  960   4.526   1.789  14.826
   62MPD2     H  961   4.707   2.075  15.008
   62MPD2    H1  962   4.492   1.924  14.673
   62MPD2    H2  963   4.565   1.659  14.978
   62MPD2    H3  964   4.487   1.714  14.759
   62MPD2     N  965   4.578   2.156  14.775
   62MPD2    H5  966   4.554   2.152  14.676
   62MPD2    N1  967   4.695   1.853  15.145
   62MPD2    H7  968   4.705   1.942  15.193
   63TMC2    C1  969   3.928   2.713  10.742
   63TMC2    C2  970   4.045   2.658  10.777
   63TMC2    C3  971   4.152   2.687  10.694
   63TMC2    C4  972   3.909   2.797  10.642
   63TMC2    C5  973   4.016   2.829  10.567
   63TMC2    C6  974   4.142   2.770  10.584
   63TMC2     C  975   3.809   2.678  10.822
   63TMC2     O  976   3.710   2.745  10.804
   63TMC2     H  977   4.059   2.589  10.859
   63TMC2    H1  978   3.811   2.841  10.629
   63TMC2    H2  979   4.226   2.776  10.515
   63TMC2    C7  980   3.975   2.821  10.429
   63TMC2    C8  981   4.279   2.618  10.708
   63TMC2    O1  982   3.872   2.769  10.403
   63TMC2    O2  983   4.360   2.616  10.618
   63TMC2    O5  984   4.304   2.577  10.838
   63TMC2    H5  985   4.231   2.589  10.902
   64MPD2     C  986   3.517   2.354  11.100
   64MPD2    C1  987   3.645   2.297  11.079
   64MPD2    C2  988   3.752   2.380  11.031
   64MPD2    C3  989   3.715   2.503  10.970
   64MPD2    C4  990   3.591   2.550  10.980
   64MPD2    C5  991   3.500   2.486  11.059
   64MPD2     H  992   3.848   2.334  11.010
   64MPD2    H1  993   3.564   2.646  10.936
   64MPD2    H2  994   3.438   2.303  11.153
   64MPD2    H3  995   3.400   2.522  11.081
   64MPD2     N  996   3.822   2.565  10.898
   64MPD2    H5  997   3.917   2.533  10.916
   64MPD2    N1  998   3.673   2.163  11.107
   64MPD2    H7  999   3.771   2.146  11.129
   65TMC2    C1 1000   0.932   1.677  15.927
   65TMC2    C2 1001   0.947   1.647  15.793
   65TMC2    C3 1002   0.935   1.750  15.701
   65TMC2    C4 1003   0.899   1.808  15.965
   65TMC2    C5 1004   0.893   1.908  15.869
   65TMC2    C6 1005   0.904   1.879  15.737
   65TMC2     C 1006   0.941   1.568  16.024
   65TMC2     O 1007   0.930   1.601  16.140
   65TMC2     H 1008   0.977   1.549  15.757
   65TMC2    H1 1009   0.885   1.825  16.071
   65TMC2    H2 1010   0.897   1.955  15.660
   65TMC2    C7 1011   0.853   2.042  15.897
   65TMC2    C8 1012   0.986   1.729  15.563
   65TMC2    O1 1013   0.891   2.123  15.811
   65TMC2    O2 1014   1.047   1.625  15.536
   65TMC2    O5 1015   0.902   1.790  15.476
   65TMC2    H5 1016   0.849   1.867  15.506
   66MPD2     C 1017   0.929   1.312  16.170
   66MPD2    C1 1018   0.939   1.319  16.030
   66MPD2    C2 1019   0.923   1.201  15.955
   66MPD2    C3 1020   0.898   1.081  16.016
   66MPD2    C4 1021   0.888   1.077  16.149
   66MPD2    C5 1022   0.915   1.191  16.223
   66MPD2     H 1023   0.949   1.215  15.851
   66MPD2    H1 1024   0.891   0.983  16.203
   66MPD2    H2 1025   0.946   1.396  16.236
   66MPD2    H3 1026   0.920   1.179  16.331
   66MPD2     N 1027   0.880   0.963  15.950
   66MPD2    H5 1028   0.826   0.887  15.990
   66MPD2    N1 1029   0.929   1.445  15.963
   66MPD2    H7 1030   0.912   1.438  15.863
   67TMC2    C1 1031   1.218   0.999  14.735
   67TMC2    C2 1032   1.114   1.065  14.798
   67TMC2    C3 1033   1.149   1.166  14.881
   67TMC2    C4 1034   1.350   1.022  14.766
   67TMC2    C5 1035   1.379   1.117  14.862
   67TMC2    C6 1036   1.280   1.192  14.916
   67TMC2     C 1037   1.186   0.891  14.646
   67TMC2     O 1038   1.262   0.803  14.610
   67TMC2     H 1039   1.008   1.068  14.777
   67TMC2    H1 1040   1.428   0.966  14.715
   67TMC2    H2 1041   1.304   1.274  14.983
   67TMC2    C7 1042   1.499   1.084  14.942
   67TMC2    C8 1043   1.059   1.269  14.895
   67TMC2    O1 1044   1.593   1.039  14.879
   67TMC2    O2 1045   1.002   1.330  14.805
   67TMC2    O5 1046   1.069   1.318  15.021
   67TMC2    H5 1047   1.106   1.246  15.077
   68MPD2     C 1048   1.049   0.726  14.427
   68MPD2    C1 1049   0.986   0.826  14.502
   68MPD2    C2 1050   0.857   0.858  14.485
   68MPD2    C3 1051   0.779   0.793  14.391
   68MPD2    C4 1052   0.840   0.702  14.311
   68MPD2    C5 1053   0.974   0.671  14.328
   68MPD2     H 1054   0.805   0.936  14.539
   68MPD2    H1 1055   0.787   0.651  14.231
   68MPD2    H2 1056   1.142   0.679  14.457
   68MPD2    H3 1057   1.022   0.590  14.275
   68MPD2     N 1058   0.643   0.830  14.376
   68MPD2    H5 1059   0.599   0.801  14.289
   68MPD2    N1 1060   1.057   0.909  14.598
   68MPD2    H7 1061   0.999   0.982  14.639
   69MPD2     C 1062   3.224   2.305  13.224
   69MPD2    C1 1063   3.097   2.242  13.212
   69MPD2    C2 1064   3.054   2.150  13.310
   69MPD2    C3 1065   3.147   2.104  13.402
   69MPD2    C4 1066   3.277   2.159  13.407
   69MPD2    C5 1067   3.311   2.257  13.318
   69MPD2     H 1068   2.955   2.106  13.307
   69MPD2    H1 1069   3.347   2.123  13.482
   69MPD2    H2 1070   3.250   2.385  13.156
   69MPD2    H3 1071   3.403   2.309  13.340
   69MPD2     N 1072   3.112   2.017  13.512
   69MPD2    H5 1073   3.189   1.979  13.567
   69MPD2    N1 1074   3.009   2.300  13.121
   69MPD2    H7 1075   3.047   2.379  13.070
   70TCq2    C1 1076   2.885   2.251  13.079
   70TCq2    O2 1077   2.826   2.151  13.115
   70TCq2    C2 1078   2.836   2.319  12.964
   70TCq2    C3 1079   2.711   2.294  12.921
   70TCq2    C4 1080   2.672   2.347  12.798
   70TCq2    C5 1081   2.758   2.429  12.730
   70TCq2    C6 1082   2.892   2.447  12.767
   70TCq2    C7 1083   2.930   2.386  12.880
   70TCq2    C8 1084   2.991   2.487  12.660
   70TCq2    O4 1085   3.100   2.465  12.693
   70TCq2    C9 1086   2.535   2.339  12.751
   70TCq2    O5 1087   2.470   2.234  12.781
   70TCq2    O6 1088   2.508   2.401  12.641
   70TCq2    H2 1089   2.642   2.238  12.983
   70TCq2    H3 1090   2.720   2.465  12.635
   70TCq2    H4 1091   3.037   2.387  12.898
   71TMC2    C1 1092   4.698   2.820  19.649
   71TMC2    C2 1093   4.668   2.945  19.698
   71TMC2    C3 1094   4.533   2.979  19.715
   71TMC2    C4 1095   4.598   2.728  19.629
   71TMC2    C5 1096   4.472   2.766  19.638
   71TMC2    C6 1097   4.435   2.888  19.695
   71TMC2     C 1098   0.040   2.785  19.587
   71TMC2     O 1099   0.036   2.700  19.494
   71TMC2     H 1100   4.745   3.021  19.685
   71TMC2    H1 1101   4.622   2.634  19.581
   71TMC2    H2 1102   4.334   2.928  19.700
   71TMC2    C7 1103   4.367   2.666  19.613
   71TMC2    C8 1104   4.486   3.112  19.756
   71TMC2    O1 1105   4.401   2.550  19.604
   71TMC2    O2 1106   4.560   3.195  19.808
   71TMC2    O5 1107   4.402   3.156  19.653
   71TMC2    H5 1108   4.353   3.079  19.618
   72MPD2     C 1109   0.518   2.891  19.447
   72MPD2    C1 1110   0.428   2.803  19.396
   72MPD2    C2 1111   0.305   2.798  19.450
   72MPD2    C3 1112   0.263   2.879  19.564
   72MPD2    C4 1113   0.353   2.972  19.608
   72MPD2    C5 1114   0.479   2.970  19.552
   72MPD2     H 1115   0.244   2.720  19.407
   72MPD2    H1 1116   0.337   3.038  19.692
   72MPD2    H2 1117   0.617   2.912  19.409
   72MPD2    H3 1118   0.542   3.048  19.593
   72MPD2     N 1119   0.144   2.870  19.627
   72MPD2    H5 1120   0.133   2.938  19.702
   72MPD2    N1 1121   0.445   2.733  19.272
   72MPD2    H7 1122   0.374   2.670  19.237
   73TMC2    C1 1123   0.050   4.317  14.409
   73TMC2    C2 1124   0.006   4.409  14.496
   73TMC2    C3 1125   0.063   4.423  14.619
   73TMC2    C4 1126   0.154   4.237  14.448
   73TMC2    C5 1127   0.218   4.246  14.568
   73TMC2    C6 1128   0.171   4.342  14.652
   73TMC2     C 1129   0.073   4.367  14.278
   73TMC2     O 1130   0.185   4.350  14.239
   73TMC2     H 1131   4.705   4.473  14.465
   73TMC2    H1 1132   0.183   4.154  14.384
   73TMC2    H2 1133   0.216   4.360  14.749
   73TMC2    C7 1134   0.358   4.244  14.550
   73TMC2    C8 1135   0.042   4.543  14.687
   73TMC2    O1 1136   0.426   4.247  14.652
   73TMC2    O2 1137   0.128   4.586  14.761
   73TMC2    O5 1138   4.691   4.568  14.704
   73TMC2    H5 1139   4.639   4.499  14.658
   74MPD2     C 1140   4.761   4.747  13.940
   74MPD2    C1 1141   0.098   4.679  13.981
   74MPD2    C2 1142   0.101   4.589  14.077
   74MPD2    C3 1143   4.755   4.552  14.131
   74MPD2    C4 1144   4.644   4.616  14.098
   74MPD2    C5 1145   4.645   4.719  14.002
   74MPD2     H 1146   0.184   4.528  14.111
   74MPD2    H1 1147   4.552   4.598  14.152
   74MPD2    H2 1148   4.768   0.050  13.871
   74MPD2    H3 1149   4.555   4.773  13.975
   74MPD2     N 1150   4.749   4.445  14.231
   74MPD2    H5 1151   4.655   4.423  14.264
   74MPD2    N1 1152   0.220   4.729  13.933
   74MPD2    H7 1153   0.225   0.018  13.859
   75TMC2    C1 1154   0.434   0.917  14.442
   75TMC2    C2 1155   0.355   0.954  14.549
   75TMC2    C3 1156   0.247   1.032  14.524
   75TMC2    C4 1157   0.403   0.959  14.311
   75TMC2    C5 1158   0.295   1.038  14.297
   75TMC2    C6 1159   0.214   1.077  14.398
   75TMC2     C 1160   0.568   0.874  14.485
   75TMC2     O 1161   0.592   0.863  14.602
   75TMC2     H 1162   0.391   0.939  14.650
   75TMC2    H1 1163   0.463   0.938  14.223
   75TMC2    H2 1164   0.133   1.147  14.381
   75TMC2    C7 1165   0.243   1.061  14.168
   75TMC2    C8 1166   0.205   1.119  14.635
   75TMC2    O1 1167   0.235   0.958  14.098
   75TMC2    O2 1168   0.183   1.235  14.609
   75TMC2    O5 1169   0.139   1.031  14.712
   75TMC2    H5 1170   0.146   0.939  14.678
   76TMC2    C1 1171   3.955   1.455  12.398
   76TMC2    C2 1172   3.871   1.371  12.327
   76TMC2    C3 1173   3.895   1.237  12.336
   76TMC2    C4 1174   4.075   1.401  12.451
   76TMC2    C5 1175   4.096   1.268  12.442
   76TMC2    C6 1176   4.008   1.186  12.376
   76TMC2     C 1177   3.944   1.591  12.350
   76TMC2     O 1178   3.855   1.620  12.269
   76TMC2     H 1179   3.784   1.404  12.272
   76TMC2    H1 1180   4.150   1.468  12.491
   76TMC2    H2 1181   4.011   1.078  12.373
   76TMC2    C7 1182   4.223   1.208  12.495
   76TMC2    C8 1183   3.803   1.152  12.265
   76TMC2    O1 1184   4.251   1.096  12.456
   76TMC2    O2 1185   3.838   1.060  12.189
   76TMC2    O5 1186   3.683   1.178  12.322
   76TMC2    H5 1187   3.686   1.247  12.392
   77MPD2     C 1188   4.080   2.088  12.363
   77MPD2    C1 1189   3.969   2.031  12.314
   77MPD2    C2 1190   3.954   1.894  12.322
   77MPD2    C3 1191   4.047   1.809  12.379
   77MPD2    C4 1192   4.160   1.870  12.425
   77MPD2    C5 1193   4.179   2.010  12.420
   77MPD2     H 1194   3.859   1.854  12.289
   77MPD2    H1 1195   4.236   1.809  12.473
   77MPD2    H2 1196   4.094   2.195  12.371
   77MPD2    H3 1197   4.274   2.048  12.457
   77MPD2     N 1198   4.040   1.665  12.399
   77MPD2    H5 1199   4.123   1.624  12.441
   77MPD2    N1 1200   3.862   2.114  12.273
   77MPD2    H7 1201   3.787   2.073  12.218
   78TMC2    C1 1202   0.227   2.620  19.859
   78TMC2    C2 1203   0.303   2.721  19.905
   78TMC2    C3 1204   0.429   2.745  19.856
   78TMC2    C4 1205   0.274   2.546  19.751
   78TMC2    C5 1206   0.399   2.579  19.696
   78TMC2    C6 1207   0.481   2.678  19.750
   78TMC2     C 1208   0.085   2.609  19.885
   78TMC2     O 1209   0.025   2.511  19.852
   78TMC2     H 1210   0.281   2.774  19.997
   78TMC2    H1 1211   0.222   2.454  19.728
   78TMC2    H2 1212   0.572   2.700  19.695
   78TMC2    C7 1213   0.461   2.492  19.600
   78TMC2    C8 1214   0.491   2.867  19.901
   78TMC2    O1 1215   0.581   2.511  19.582
   78TMC2    O2 1216   0.425   2.957  19.946
   78TMC2    O5 1217   0.625   2.859  19.883
   78TMC2    H5 1218   0.665   2.770  19.873
   79MPD1     C 1219   4.432   2.817  20.070
   79MPD1    C1 1220   4.456   2.699  19.997
   79MPD1    C2 1221   4.587   2.666  19.967
   79MPD1    C3 1222   4.689   2.748  19.991
   79MPD1    C4 1223   4.671   2.867  20.064
   79MPD1    C5 1224   4.541   2.897  20.109
   79MPD1     H 1225   4.610   2.575  19.913
   79MPD1    H1 1226   4.751   2.939  20.076
   79MPD1    H2 1227   4.336   2.841  20.113
   79MPD1    H3 1228   4.521   2.985  20.168
   79MPD1     N 1229   0.036   2.721  19.946
   79MPD1    H5 1230   0.102   2.796  19.962
   79MPD1    N1 1231   4.355   2.599  19.988
   79MPD1    H6 1232   4.366   2.535  19.909
   79MPD1    H7 1233   4.264   2.638  19.965
   80MPD2     C 1234   3.435   1.116  12.736
   80MPD2    C1 1235   3.381   1.242  12.712
   80MPD2    C2 1236   3.419   1.339  12.797
   80MPD2    C3 1237   3.492   1.313  12.912
   80MPD2    C4 1238   3.555   1.190  12.920
   80MPD2    C5 1239   3.525   1.084  12.837
   80MPD2     H 1240   3.375   1.437  12.785
   80MPD2    H1 1241   3.622   1.163  13.000
   80MPD2    H2 1242   3.417   1.037  12.664
   80MPD2    H3 1243   3.566   0.984  12.846
   80MPD2     N 1244   3.495   1.394  13.032
   80MPD2    H5 1245   3.545   1.360  13.113
   80MPD2    N1 1246   3.302   1.277  12.600
   80MPD2    H7 1247   3.283   1.375  12.581
   81TCq2    C1 1248   3.256   1.185  12.506
   81TCq2    O2 1249   3.269   1.065  12.494
   81TCq2    C2 1250   3.173   1.264  12.411
   81TCq2    C3 1251   3.222   1.388  12.384
   81TCq2    C4 1252   3.134   1.481  12.334
   81TCq2    C5 1253   3.002   1.454  12.329
   81TCq2    C6 1254   2.961   1.332  12.369
   81TCq2    C7 1255   3.044   1.231  12.402
   81TCq2    C8 1256   2.818   1.292  12.365
   81TCq2    O4 1257   2.748   1.309  12.266
   81TCq2    C9 1258   3.185   1.611  12.297
   81TCq2    O5 1259   3.106   1.705  12.277
   81TCq2    O6 1260   3.310   1.628  12.307
   81TCq2    H2 1261   3.325   1.421  12.392
   81TCq2    H3 1262   2.931   1.528  12.294
   81TCq2    H4 1263   3.011   1.138  12.448
   82TMC2    C1 1264   1.087   0.860  11.677
   82TMC2    C2 1265   1.162   0.947  11.745
   82TMC2    C3 1266   1.236   0.885  11.845
   82TMC2    C4 1267   1.072   0.729  11.703
   82TMC2    C5 1268   1.145   0.674  11.807
   82TMC2    C6 1269   1.229   0.752  11.880
   82TMC2     C 1270   0.987   0.925  11.597
   82TMC2     O 1271   0.955   0.862  11.499
   82TMC2     H 1272   1.163   1.053  11.724
   82TMC2    H1 1273   1.001   0.666  11.651
   82TMC2    H2 1274   1.278   0.715  11.970
   82TMC2    C7 1275   1.108   0.542  11.854
   82TMC2    C8 1276   1.321   0.971  11.923
   82TMC2    O1 1277   1.136   0.511  11.972
   82TMC2    O2 1278   1.439   0.953  11.944
   82TMC2    O5 1279   1.236   1.037  12.004
   82TMC2    H5 1280   1.145   1.047  11.968
   83MPD2     C 1281   0.548   1.182  11.589
   83MPD2    C1 1282   0.626   1.134  11.486
   83MPD2    C2 1283   0.751   1.089  11.507
   83MPD2    C3 1284   0.800   1.085  11.633
   83MPD2    C4 1285   0.730   1.136  11.739
   83MPD2    C5 1286   0.602   1.182  11.719
   83MPD2     H 1287   0.803   1.038  11.427
   83MPD2    H1 1288   0.767   1.130  11.841
   83MPD2    H2 1289   0.445   1.214  11.577
   83MPD2    H3 1290   0.536   1.216  11.798
   83MPD2     N 1291   0.920   1.021  11.668
   83MPD2    H5 1292   0.953   1.035  11.763
   83MPD2    N1 1293   0.563   1.129  11.357
   83MPD2    H7 1294   0.465   1.154  11.354
   84TCq2    C1 1295   2.383   0.085  10.942
   84TCq2    O2 1296   2.280   0.068  10.878
   84TCq2    C2 1297   2.365   0.083  11.085
   84TCq2    C3 1298   2.447   0.003  11.149
   84TCq2    C4 1299   2.406   4.728  11.264
   84TCq2    C5 1300   2.277   4.749  11.315
   84TCq2    C6 1301   2.195   0.051  11.248
   84TCq2    C7 1302   2.240   0.107  11.133
   84TCq2    C8 1303   2.075   0.113  11.303
   84TCq2    O4 1304   2.041   0.223  11.261
   84TCq2    C9 1305   2.492   4.628  11.327
   84TCq2    O5 1306   2.608   4.615  11.275
   84TCq2    O6 1307   2.435   4.537  11.396
   84TCq2    H2 1308   2.544   4.754  11.111
   84TCq2    H3 1309   2.251   4.702  11.409
   84TCq2    H4 1310   2.174   0.166  11.071
   85TMC2    C1 1311   3.052   2.806  16.069
   85TMC2    C2 1312   2.966   2.903  16.112
   85TMC2    C3 1313   2.960   3.024  16.045
   85TMC2    C4 1314   3.143   2.835  15.968
   85TMC2    C5 1315   3.135   2.952  15.900
   85TMC2    C6 1316   3.048   3.049  15.944
   85TMC2     C 1317   3.083   2.686  16.146
   85TMC2     O 1318   3.203   2.670  16.177
   85TMC2     H 1319   2.918   2.884  16.207
   85TMC2    H1 1320   3.216   2.759  15.944
   85TMC2    H2 1321   3.045   3.142  15.889
   85TMC2    C7 1322   3.242   2.993  15.810
   85TMC2    C8 1323   2.900   3.145  16.107
   85TMC2    O1 1324   3.343   2.933  15.819
   85TMC2    O2 1325   2.956   3.249  16.141
   85TMC2    O5 1326   2.799   3.090  16.180
   85TMC2    H5 1327   2.751   3.037  16.113
   86MPD2     C 1328   2.896   2.355  16.483
   86MPD2    C1 1329   2.827   2.345  16.366
   86MPD2    C2 1330   2.851   2.441  16.273
   86MPD2    C3 1331   2.955   2.530  16.281
   86MPD2    C4 1332   3.033   2.530  16.397
   86MPD2    C5 1333   2.997   2.446  16.503
   86MPD2     H 1334   2.790   2.439  16.183
   86MPD2    H1 1335   3.110   2.603  16.416
   86MPD2    H2 1336   2.880   2.282  16.561
   86MPD2    H3 1337   3.055   2.454  16.594
   86MPD2     N 1338   2.974   2.615  16.175
   86MPD2    H5 1339   2.896   2.627  16.111
   86MPD2    N1 1340   2.726   2.253  16.338
   86MPD2    H7 1341   2.696   2.246  16.241
   87TMC2    C1 1342   0.643   0.966  19.190
   87TMC2    C2 1343   0.720   1.032  19.285
   87TMC2    C3 1344   0.671   1.150  19.335
   87TMC2    C4 1345   0.522   1.020  19.148
   87TMC2    C5 1346   0.486   1.140  19.200
   87TMC2    C6 1347   0.552   1.213  19.295
   87TMC2     C 1348   0.717   0.871  19.107
   87TMC2     O 1349   0.687   0.865  18.986
   87TMC2     H 1350   0.814   0.995  19.323
   87TMC2    H1 1351   0.476   0.977  19.060
   87TMC2    H2 1352   0.505   1.283  19.363
   87TMC2    C7 1353   0.358   1.196  19.157
   87TMC2    C8 1354   0.767   1.221  19.419
   87TMC2    O1 1355   0.350   1.319  19.155
   87TMC2    O2 1356   0.877   1.174  19.454
   87TMC2    O5 1357   0.730   1.354  19.439
   87TMC2    H5 1358   0.642   1.390  19.414
   88MPD2     C 1359   0.063   1.042  18.998
   88MPD2    C1 1360   0.157   1.145  19.027
   88MPD2    C2 1361   0.138   1.269  18.974
   88MPD2    C3 1362   0.029   1.286  18.891
   88MPD2    C4 1363   4.721   1.183  18.856
   88MPD2    C5 1364   4.738   1.059  18.908
   88MPD2     H 1365   0.203   1.352  18.999
   88MPD2    H1 1366   4.643   1.189  18.781
   88MPD2    H2 1367   0.088   0.943  19.035
   88MPD2    H3 1368   4.671   0.985  18.867
   88MPD2     N 1369   0.001   1.415  18.834
   88MPD2    H5 1370   4.691   1.413  18.789
   88MPD2    N1 1371   0.270   1.104  19.106
   88MPD2    H7 1372   0.283   1.009  19.140
   89TMC2    C1 1373   1.341   3.823  19.760
   89TMC2    C2 1374   1.235   3.856  19.676
   89TMC2    C3 1375   1.265   3.946  19.575
   89TMC2    C4 1376   1.453   3.896  19.758
   89TMC2    C5 1377   1.483   3.984  19.655
   89TMC2    C6 1378   1.385   4.013  19.563
   89TMC2     C 1379   1.332   3.729  19.871
   89TMC2     O 1380   1.421   3.728  19.954
   89TMC2     H 1381   1.140   3.803  19.675
   89TMC2    H1 1382   1.537   3.838  19.795
   89TMC2    H2 1383   1.397   4.063  19.468
   89TMC2    C7 1384   1.623   3.978  19.594
   89TMC2    C8 1385   1.160   3.977  19.489
   89TMC2    O1 1386   1.675   3.870  19.600
   89TMC2    O2 1387   1.183   3.991  19.370
   89TMC2    O5 1388   1.040   3.964  19.545
   89TMC2    H5 1389   1.051   3.960  19.642
   90MPD2     C 1390   1.134   3.332  20.113
   90MPD2    C1 1391   1.029   3.393  20.041
   90MPD2    C2 1392   1.059   3.496  19.958
   90MPD2    C3 1393   1.190   3.546  19.948
   90MPD2    C4 1394   1.288   3.485  20.022
   90MPD2    C5 1395   1.258   3.380  20.103
   90MPD2     H 1396   0.982   3.537  19.894
   90MPD2    H1 1397   1.391   3.518  20.017
   90MPD2    H2 1398   1.117   3.252  20.185
   90MPD2    H3 1399   1.333   3.337  20.168
   90MPD2     N 1400   1.213   3.662  19.871
   90MPD2    H5 1401   1.139   3.682  19.805
   90MPD2    N1 1402   0.900   3.339  20.042
   90MPD2    H7 1403   0.839   3.379  19.971
   91TMC2    C1 1404   2.993   3.850  16.621
   91TMC2    C2 1405   3.047   3.948  16.703
   91TMC2    C3 1406   2.968   4.002  16.801
   91TMC2    C4 1407   2.866   3.808  16.639
   91TMC2    C5 1408   2.788   3.870  16.734
   91TMC2    C6 1409   2.837   3.963  16.821
   91TMC2     C 1410   3.071   3.799  16.512
   91TMC2     O 1411   3.005   3.763  16.413
   91TMC2     H 1412   3.143   3.994  16.680
   91TMC2    H1 1413   2.839   3.719  16.583
   91TMC2    H2 1414   2.777   4.014  16.895
   91TMC2    C7 1415   2.670   3.795  16.784
   91TMC2    C8 1416   3.016   4.109  16.882
   91TMC2    O1 1417   2.630   3.824  16.896
   91TMC2    O2 1418   2.940   4.174  16.948
   91TMC2    O5 1419   3.151   4.125  16.869
   91TMC2    H5 1420   3.195   4.050  16.824
   92MPD2     C 1421   3.275   3.692  16.331
   92MPD2    C1 1422   3.310   3.760  16.451
   92MPD2    C2 1423   3.447   3.773  16.475
   92MPD2    C3 1424   3.541   3.714  16.396
   92MPD2    C4 1425   3.503   3.636  16.287
   92MPD2    C5 1426   3.371   3.642  16.250
   92MPD2     H 1427   3.480   3.829  16.562
   92MPD2    H1 1428   3.574   3.604  16.211
   92MPD2    H2 1429   3.176   3.669  16.295
   92MPD2    H3 1430   3.333   3.590  16.162
   92MPD2     N 1431   3.677   3.737  16.426
   92MPD2    H5 1432   3.694   3.803  16.501
   92MPD2    N1 1433   3.206   3.799  16.540
   92MPD2    H7 1434   3.243   3.822  16.632
   93MPD2     C 1435   4.699   3.727  14.019
   93MPD2    C1 1436   4.679   3.747  14.156
   93MPD2    C2 1437   4.549   3.730  14.208
   93MPD2    C3 1438   4.442   3.683  14.133
   93MPD2    C4 1439   4.463   3.677  13.994
   93MPD2    C5 1440   4.587   3.701  13.937
   93MPD2     H 1441   4.542   3.736  14.316
   93MPD2    H1 1442   4.372   3.656  13.939
   93MPD2    H2 1443   0.008   3.761  13.968
   93MPD2    H3 1444   4.590   3.703  13.829
   93MPD2     N 1445   4.310   3.670  14.181
   93MPD2    H5 1446   4.238   3.656  14.110
   93MPD2    N1 1447   0.006   3.777  14.245
   93MPD2    H7 1448   4.777   3.764  14.345
   94TCq2    C1 1449   0.138   3.783  14.207
   94TCq2    O2 1450   0.192   3.771  14.099
   94TCq2    C2 1451   0.237   3.837  14.309
   94TCq2    C3 1452   0.200   3.841  14.443
   94TCq2    C4 1453   0.300   3.874  14.530
   94TCq2    C5 1454   0.425   3.909  14.495
   94TCq2    C6 1455   0.452   3.922  14.362
   94TCq2    C7 1456   0.361   3.890  14.268
   94TCq2    C8 1457   0.590   3.928  14.320
   94TCq2    O4 1458   0.675   3.872  14.390
   94TCq2    C9 1459   0.279   3.844  14.668
   94TCq2    O5 1460   0.383   3.819  14.735
   94TCq2    O6 1461   0.167   3.879  14.725
   94TCq2    H2 1462   0.110   3.796  14.485
   94TCq2    H3 1463   0.505   3.920  14.568
   94TCq2    H4 1464   0.376   3.897  14.161
   95TMC2    C1 1465   0.033   0.469  16.091
   95TMC2    C2 1466   0.046   0.529  16.212
   95TMC2    C3 1467   4.725   0.617  16.252
   95TMC2    C4 1468   4.704   0.481  16.008
   95TMC2    C5 1469   4.601   0.557  16.059
   95TMC2    C6 1470   4.608   0.630  16.178
   95TMC2     C 1471   0.159   0.419  16.029
   95TMC2     O 1472   0.266   0.454  16.086
   95TMC2     H 1473   0.137   0.521  16.270
   95TMC2    H1 1474   4.703   0.442  15.907
   95TMC2    H2 1475   4.521   0.683  16.215
   95TMC2    C7 1476   4.480   0.584  15.982
   95TMC2    C8 1477   4.742   0.671  16.380
   95TMC2    O1 1478   4.425   0.694  15.989
   95TMC2    O2 1479   0.025   0.609  16.465
   95TMC2    O5 1480   4.681   0.791  16.392
   95TMC2    H5 1481   4.646   0.824  16.307
   96MPD2     C 1482   0.446   0.304  15.620
   96MPD2    C1 1483   0.460   0.393  15.729
   96MPD2    C2 1484   0.369   0.412  15.825
   96MPD2    C3 1485   0.255   0.341  15.813
   96MPD2    C4 1486   0.233   0.246  15.710
   96MPD2    C5 1487   0.326   0.232  15.619
   96MPD2     H 1488   0.390   0.487  15.900
   96MPD2    H1 1489   0.142   0.188  15.701
   96MPD2    H2 1490   0.503   0.295  15.528
   96MPD2    H3 1491   0.309   0.157  15.542
   96MPD2     N 1492   0.149   0.350  15.909
   96MPD2    H5 1493   0.058   0.315  15.881
   96MPD2    N1 1494   0.588   0.461  15.731
   96MPD2    H7 1495   0.661   0.414  15.678
   97MPD2     C 1496   2.110   2.913  18.758
   97MPD2    C1 1497   2.209   3.009  18.762
   97MPD2    C2 1498   2.205   3.121  18.686
   97MPD2    C3 1499   2.101   3.137  18.593
   97MPD2    C4 1500   2.001   3.043  18.585
   97MPD2    C5 1501   2.010   2.935  18.676
   97MPD2     H 1502   2.282   3.197  18.692
   97MPD2    H1 1503   1.918   3.055  18.517
   97MPD2    H2 1504   2.100   2.823  18.817
   97MPD2    H3 1505   1.927   2.865  18.671
   97MPD2     N 1506   2.107   3.237  18.495
   97MPD2    H5 1507   2.018   3.267  18.457
   97MPD2    N1 1508   2.313   2.981  18.858
   97MPD2    H7 1509   2.294   2.900  18.916
   98TCq2    C1 1510   2.217   3.313  18.458
   98TCq2    O2 1511   2.334   3.305  18.502
   98TCq2    C2 1512   2.172   3.408  18.358
   98TCq2    C3 1513   2.034   3.427  18.340
   98TCq2    C4 1514   1.995   3.542  18.287
   98TCq2    C5 1515   2.081   3.636  18.241
   98TCq2    C6 1516   2.217   3.615  18.254
   98TCq2    C7 1517   2.263   3.498  18.307
   98TCq2    C8 1518   2.320   3.717  18.231
   98TCq2    O4 1519   2.420   3.706  18.300
   98TCq2    C9 1520   1.854   3.569  18.282
   98TCq2    O5 1521   1.813   3.674  18.221
   98TCq2    O6 1522   1.782   3.492  18.352
   98TCq2    H2 1523   1.954   3.366  18.379
   98TCq2    H3 1524   2.036   3.729  18.209
   98TCq2    H4 1525   2.370   3.487  18.322
   99TMC2    C1 1526   1.324   0.926  20.195
   99TMC2    C2 1527   1.405   0.938  20.306
   99TMC2    C3 1528   1.356   0.995  20.417
   99TMC2    C4 1529   1.199   0.980  20.197
   99TMC2    C5 1530   1.153   1.036  20.313
   99TMC2    C6 1531   1.229   1.047  20.425
   99TMC2     C 1532   1.372   0.860  20.076
   99TMC2     O 1533   1.489   0.855  20.056
   99TMC2     H 1534   1.489   0.870  20.314
   99TMC2    H1 1535   1.146   0.995  20.103
   99TMC2    H2 1536   1.189   1.086  20.518
   99TMC2    C7 1537   1.021   1.096  20.315
   99TMC2    C8 1538   1.447   1.038  20.521
   99TMC2    O1 1539   0.995   1.198  20.376
   99TMC2    O2 1540   1.418   1.074  20.636
   99TMC2    O5 1541   1.575   1.041  20.471
   99TMC2    H5 1542   1.601   1.026  20.378
  100MPD2     C 1543   1.407   0.681  19.848
  100MPD2    C1 1544   1.283   0.709  19.898
  100MPD2    C2 1545   1.172   0.645  19.832
  100MPD2    C3 1546   1.192   0.548  19.731
  100MPD2    C4 1547   1.320   0.523  19.694
  100MPD2    C5 1548   1.427   0.592  19.751
  100MPD2     H 1549   1.071   0.668  19.863
  100MPD2    H1 1550   1.349   0.451  19.619
  100MPD2    H2 1551   1.497   0.735  19.875
  100MPD2    H3 1552   1.530   0.573  19.722
  100MPD2     N 1553   1.083   0.478  19.680
  100MPD2    H5 1554   0.993   0.481  19.727
  100MPD2    N1 1555   1.265   0.797  20.010
  100MPD2    H7 1556   1.170   0.798  20.045
  101MPD2     C 1557   1.710   1.192  13.217
  101MPD2    C1 1558   1.660   1.274  13.314
  101MPD2    C2 1559   1.596   1.211  13.418
  101MPD2    C3 1560   1.594   1.076  13.435
  101MPD2    C4 1561   1.647   0.993  13.332
  101MPD2    C5 1562   1.708   1.057  13.230
  101MPD2     H 1563   1.545   1.266  13.496
  101MPD2    H1 1564   1.655   0.885  13.343
  101MPD2    H2 1565   1.753   1.234  13.127
  101MPD2    H3 1566   1.750   0.999  13.148
  101MPD2     N 1567   1.513   1.021  13.538
  101MPD2    H5 1568   1.478   1.090  13.604
  101MPD2    N1 1569   1.683   1.418  13.298
  101MPD2    H7 1570   1.749   1.442  13.224
  102TCq2    C1 1571   1.891   1.820  13.132
  102TCq2    O2 1572   1.990   1.751  13.142
  102TCq2    C2 1573   1.774   1.801  13.207
  102TCq2    C3 1574   1.672   1.898  13.205
  102TCq2    C4 1575   1.551   1.854  13.248
  102TCq2    C5 1576   1.531   1.732  13.313
  102TCq2    C6 1577   1.639   1.646  13.316
  102TCq2    C7 1578   1.758   1.673  13.255
  102TCq2    C8 1579   1.608   1.512  13.364
  102TCq2    O4 1580   1.511   1.500  13.435
  102TCq2    C9 1581   1.444   1.947  13.239
  102TCq2    O5 1582   1.331   1.910  13.274
  102TCq2    O6 1583   1.475   2.051  13.177
  102TCq2    H2 1584   1.688   2.002  13.180
  102TCq2    H3 1585   1.434   1.702  13.351
  102TCq2    H4 1586   1.835   1.597  13.256
  103TMC2    C1 1587   4.591   1.626  13.042
  103TMC2    C2 1588   4.715   1.672  12.990
  103TMC2    C3 1589   4.775   1.762  13.076
  103TMC2    C4 1590   4.535   1.656  13.161
  103TMC2    C5 1591   4.601   1.755  13.235
  103TMC2    C6 1592   4.728   1.798  13.199
  103TMC2     C 1593   4.519   1.529  12.968
  103TMC2     O 1594   4.398   1.525  12.993
  103TMC2     H 1595   4.759   1.645  12.895
  103TMC2    H1 1596   4.445   1.608  13.198
  103TMC2    H2 1597   0.013   1.861  13.258
  103TMC2    C7 1598   4.533   1.807  13.356
  103TMC2    C8 1599   0.133   1.789  13.041
  103TMC2    O1 1600   4.429   1.758  13.397
  103TMC2    O2 1601   0.203   1.722  12.962
  103TMC2    O5 1602   0.152   1.925  13.053
  103TMC2    H5 1603   0.067   1.968  13.076
  104MPD2     C 1604   4.661   1.262  12.773
  104MPD2    C1 1605   4.563   1.354  12.809
  104MPD2    C2 1606   4.444   1.353  12.747
  104MPD2    C3 1607   4.403   1.262  12.656
  104MPD2    C4 1608   4.497   1.169  12.613
  104MPD2    C5 1609   4.624   1.164  12.683
  104MPD2     H 1610   4.377   1.433  12.776
  104MPD2    H1 1611   4.487   1.107  12.525
  104MPD2    H2 1612   4.761   1.257  12.813
  104MPD2    H3 1613   4.687   1.083  12.648
  104MPD2     N 1614   4.269   1.285  12.598
  104MPD2    H5 1615   4.211   1.363  12.627
  104MPD2    N1 1616   4.606   1.449  12.900
  104MPD2    H7 1617   4.703   1.458  12.929
  105MPD2     C 1618   1.830   0.768  18.009
  105MPD2    C1 1619   1.722   0.836  17.980
  105MPD2    C2 1620   1.615   0.836  18.070
  105MPD2    C3 1621   1.612   0.749  18.178
  105MPD2    C4 1622   1.734   0.684  18.203
  105MPD2    C5 1623   1.837   0.684  18.119
  105MPD2     H 1624   1.519   0.877  18.041
  105MPD2    H1 1625   1.743   0.627  18.295
  105MPD2    H2 1626   1.913   0.764  17.940
  105MPD2    H3 1627   1.926   0.626  18.141
  105MPD2     N 1628   1.495   0.735  18.258
  105MPD2    H5 1629   1.416   0.793  18.232
  105MPD2    N1 1630   1.707   0.910  17.863
  105MPD2    H7 1631   1.611   0.938  17.845
  106TCq2    C1 1632   1.472   0.662  18.373
  106TCq2    O2 1633   1.553   0.585  18.424
  106TCq2    C2 1634   1.339   0.685  18.436
  106TCq2    C3 1635   1.262   0.793  18.393
  106TCq2    C4 1636   1.138   0.810  18.454
  106TCq2    C5 1637   1.098   0.730  18.550
  106TCq2    C6 1638   1.178   0.631  18.596
  106TCq2    C7 1639   1.301   0.604  18.541
  106TCq2    C8 1640   1.149   0.577  18.732
  106TCq2    O4 1641   1.216   0.481  18.770
  106TCq2    C9 1642   1.055   0.915  18.406
  106TCq2    O5 1643   0.944   0.930  18.467
  106TCq2    O6 1644   1.095   0.986  18.309
  106TCq2    H2 1645   1.303   0.866  18.324
  106TCq2    H3 1646   0.995   0.743  18.580
  106TCq2    H4 1647   1.358   0.520  18.579
  107TMC2    C1 1648   1.591   0.611  11.950
  107TMC2    C2 1649   1.645   0.719  11.882
  107TMC2    C3 1650   1.677   0.700  11.756
  107TMC2    C4 1651   1.563   0.493  11.886
  107TMC2    C5 1652   1.613   0.479  11.763
  107TMC2    C6 1653   1.672   0.578  11.693
  107TMC2     C 1654   1.545   0.624  12.087
  107TMC2     O 1655   1.528   0.519  12.148
  107TMC2     H 1656   1.667   0.811  11.935
  107TMC2    H1 1657   1.519   0.407  11.934
  107TMC2    H2 1658   1.715   0.560  11.595
  107TMC2    C7 1659   1.587   0.353  11.694
  107TMC2    C8 1660   1.794   0.772  11.712
  107TMC2    O1 1661   1.490   0.287  11.730
  107TMC2    O2 1662   1.818   0.788  11.595
  107TMC2    O5 1663   1.886   0.771  11.811
  107TMC2    H5 1664   1.851   0.742  11.898
  108MPD2     C 1665   1.465   0.921  12.271
  108MPD2    C1 1666   1.479   0.787  12.248
  108MPD2    C2 1667   1.460   0.706  12.361
  108MPD2    C3 1668   1.446   0.759  12.491
  108MPD2    C4 1669   1.423   0.893  12.507
  108MPD2    C5 1670   1.436   0.975  12.395
  108MPD2     H 1671   1.490   0.603  12.348
  108MPD2    H1 1672   1.413   0.943  12.602
  108MPD2    H2 1673   1.469   0.984  12.183
  108MPD2    H3 1674   1.431   1.082  12.409
  108MPD2     N 1675   1.429   0.680  12.603
  108MPD2    H5 1676   1.406   0.738  12.683
  108MPD2    N1 1677   1.516   0.754  12.122
  108MPD2    H7 1678   1.525   0.830  12.056
  109TMC2    C1 1679   1.484   2.924  18.778
  109TMC2    C2 1680   1.496   2.920  18.640
  109TMC2    C3 1681   1.593   2.836  18.592
  109TMC2    C4 1682   1.565   2.858  18.861
  109TMC2    C5 1683   1.656   2.772  18.803
  109TMC2    C6 1684   1.680   2.758  18.672
  109TMC2     C 1685   1.361   2.974  18.826
  109TMC2     O 1686   1.317   3.080  18.779
  109TMC2     H 1687   1.434   2.987  18.581
  109TMC2    H1 1688   1.571   2.887  18.965
  109TMC2    H2 1689   1.750   2.693  18.620
  109TMC2    C7 1690   1.771   2.718  18.886
  109TMC2    C8 1691   1.644   2.850  18.456
  109TMC2    O1 1692   1.875   2.695  18.824
  109TMC2    O2 1693   1.696   2.755  18.398
  109TMC2    O5 1694   1.649   2.980  18.431
  109TMC2    H5 1695   1.625   3.028  18.513
  110MPD2     C 1696   0.963   2.949  19.141
  110MPD2    C1 1697   1.036   2.835  19.164
  110MPD2    C2 1698   1.149   2.819  19.089
  110MPD2    C3 1699   1.190   2.917  19.000
  110MPD2    C4 1700   1.124   3.037  18.997
  110MPD2    C5 1701   1.006   3.053  19.066
  110MPD2     H 1702   1.212   2.731  19.098
  110MPD2    H1 1703   1.161   3.117  18.933
  110MPD2    H2 1704   0.865   2.951  19.188
  110MPD2    H3 1705   0.938   3.138  19.059
  110MPD2     N 1706   1.310   2.897  18.927
  110MPD2    H5 1707   1.364   2.812  18.941
  110MPD2    N1 1708   0.969   2.735  19.238
  110MPD2    H7 1709   0.878   2.750  19.280
  111TMC2    C1 1710   1.735   2.133  12.048
  111TMC2    C2 1711   1.667   2.218  12.136
  111TMC2    C3 1712   1.674   2.192  12.274
  111TMC2    C4 1713   1.791   2.014  12.092
  111TMC2    C5 1714   1.801   1.992  12.225
  111TMC2    C6 1715   1.736   2.079  12.316
  111TMC2     C 1716   1.655   2.105  11.934
  111TMC2     O 1717   1.695   2.056  11.834
  111TMC2     H 1718   1.619   2.309  12.103
  111TMC2    H1 1719   1.823   1.938  12.022
  111TMC2    H2 1720   1.752   2.057  12.421
  111TMC2    C7 1721   1.926   1.942  12.260
  111TMC2    C8 1722   1.542   2.198  12.317
  111TMC2    O1 1723   1.947   1.914  12.378
  111TMC2    O2 1724   1.447   2.190  12.239
  111TMC2    O5 1725   1.534   2.202  12.453
  111TMC2    H5 1726   1.618   2.218  12.501
  112MPD2     C 1727   1.185   2.109  11.727
  112MPD2    C1 1728   1.305   2.073  11.667
  112MPD2    C2 1729   1.423   2.074  11.747
  112MPD2    C3 1730   1.420   2.126  11.873
  112MPD2    C4 1731   1.306   2.181  11.921
  112MPD2    C5 1732   1.194   2.173  11.843
  112MPD2     H 1733   1.520   2.063  11.700
  112MPD2    H1 1734   1.301   2.224  12.020
  112MPD2    H2 1735   1.092   2.125  11.674
  112MPD2    H3 1736   1.102   2.208  11.889
  112MPD2     N 1737   1.533   2.143  11.958
  112MPD2    H5 1738   1.506   2.182  12.048
  112MPD2    N1 1739   1.321   2.037  11.539
  112MPD2    H7 1740   1.410   2.004  11.503
  113TMC2    C1 1741   4.698   0.056  18.786
  113TMC2    C2 1742   4.698   0.086  18.649
  113TMC2    C3 1743   4.684   4.761  18.565
  113TMC2    C4 1744   4.692   4.711  18.841
  113TMC2    C5 1745   4.670   4.612  18.742
  113TMC2    C6 1746   4.666   4.637  18.609
  113TMC2     C 1747   4.677   0.174  18.866
  113TMC2     O 1748   4.709   0.285  18.821
  113TMC2     H 1749   4.697   0.190  18.618
  113TMC2    H1 1750   4.696   4.692  18.948
  113TMC2    H2 1751   4.656   4.556  18.537
  113TMC2    C7 1752   4.640   4.477  18.779
  113TMC2    C8 1753   4.715   4.777  18.429
  113TMC2    O1 1754   4.635   4.386  18.701
  113TMC2    O2 1755   4.645   4.731  18.338
  113TMC2    O5 1756   0.041   0.076  18.413
  113TMC2    H5 1757   0.083   0.091  18.500
  114MPD2     C 1758   4.597   0.363  19.348
  114MPD2    C1 1759   4.653   0.431  19.236
  114MPD2    C2 1760   4.662   0.355  19.115
  114MPD2    C3 1761   4.614   0.223  19.104
  114MPD2    C4 1762   4.549   0.171  19.213
  114MPD2    C5 1763   4.544   0.237  19.334
  114MPD2     H 1764   4.713   0.399  19.030
  114MPD2    H1 1765   4.498   0.075  19.213
  114MPD2    H2 1766   4.572   0.410  19.442
  114MPD2    H3 1767   4.487   0.198  19.418
  114MPD2     N 1768   4.631   0.134  18.993
  114MPD2    H5 1769   4.601   0.037  18.995
  114MPD2    N1 1770   4.705   0.559  19.238
  114MPD2    H7 1771   4.723   0.602  19.148
  115TMC2    C1 1772   0.838   2.783  18.029
  115TMC2    C2 1773   0.959   2.731  18.055
  115TMC2    C3 1774   1.057   2.825  18.038
  115TMC2    C4 1775   0.818   2.900  17.965
  115TMC2    C5 1776   0.920   2.982  17.939
  115TMC2    C6 1777   1.042   2.953  17.996
  115TMC2     C 1778   0.732   2.680  18.026
  115TMC2     O 1779   0.776   2.566  17.990
  115TMC2     H 1780   0.977   2.635  18.101
  115TMC2    H1 1781   0.719   2.923  17.929
  115TMC2    H2 1782   1.133   3.012  17.992
  115TMC2    C7 1783   0.879   3.114  17.973
  115TMC2    C8 1784   1.196   2.800  18.078
  115TMC2    O1 1785   0.768   3.138  18.023
  115TMC2    O2 1786   1.289   2.876  18.104
  115TMC2    O5 1787   1.217   2.674  18.044
  115TMC2    H5 1788   1.138   2.624  18.013
  116MPD2     C 1789   0.262   2.547  17.893
  116MPD2    C1 1790   0.384   2.491  17.859
  116MPD2    C2 1791   0.496   2.558  17.900
  116MPD2    C3 1792   0.486   2.666  17.976
  116MPD2    C4 1793   0.366   2.729  17.998
  116MPD2    C5 1794   0.253   2.663  17.962
  116MPD2     H 1795   0.591   2.509  17.882
  116MPD2    H1 1796   0.354   2.821  18.053
  116MPD2    H2 1797   0.174   2.496  17.854
  116MPD2    H3 1798   0.155   2.696  17.995
  116MPD2     N 1799   0.608   2.731  18.029
  116MPD2    H5 1800   0.593   2.815  18.083
  116MPD2    N1 1801   0.380   2.369  17.783
  116MPD2    H7 1802   0.298   2.310  17.775
  117TMC2    C1 1803   4.300   4.012  14.537
  117TMC2    C2 1804   4.417   3.942  14.553
  117TMC2    C3 1805   4.530   4.017  14.577
  117TMC2    C4 1806   4.293   4.150  14.535
  117TMC2    C5 1807   4.411   4.216  14.542
  117TMC2    C6 1808   4.532   4.153  14.574
  117TMC2     C 1809   4.177   3.942  14.550
  117TMC2     O 1810   4.168   3.847  14.622
  117TMC2     H 1811   4.417   3.836  14.533
  117TMC2    H1 1812   4.200   4.202  14.514
  117TMC2    H2 1813   4.631   4.197  14.573
  117TMC2    C7 1814   4.422   4.355  14.530
  117TMC2    C8 1815   4.659   3.946  14.569
  117TMC2    O1 1816   4.504   4.415  14.597
  117TMC2    O2 1817   4.670   3.840  14.505
  117TMC2    O5 1818   4.742   4.011  14.654
  117TMC2    H5 1819   0.035   3.957  14.690
  118MPD2     C 1820   4.210   4.570  14.331
  118MPD2    C1 1821   4.323   4.536  14.396
  118MPD2    C2 1822   4.428   4.634  14.414
  118MPD2    C3 1823   4.416   4.754  14.350
  118MPD2    C4 1824   4.300   4.779  14.275
  118MPD2    C5 1825   4.191   4.693  14.267
  118MPD2     H 1826   4.517   4.612  14.471
  118MPD2    H1 1827   4.276   0.095  14.231
  118MPD2    H2 1828   4.129   4.500  14.312
  118MPD2    H3 1829   4.095   4.721  14.226
  118MPD2     N 1830   4.513   0.072  14.339
  118MPD2    H5 1831   4.480   0.166  14.318
  118MPD2    N1 1832   4.326   4.402  14.449
  118MPD2    H7 1833   4.252   4.335  14.429
  119MPD2     C 1834   2.942   1.021  14.310
  119MPD2    C1 1835   2.811   1.034  14.272
  119MPD2    C2 1836   2.774   0.985  14.144
  119MPD2    C3 1837   2.864   0.921  14.065
  119MPD2    C4 1838   2.991   0.895  14.119
  119MPD2    C5 1839   3.034   0.947  14.234
  119MPD2     H 1840   2.670   1.001  14.117
  119MPD2    H1 1841   3.062   0.835  14.064
  119MPD2    H2 1842   2.978   1.076  14.396
  119MPD2    H3 1843   3.134   0.923  14.267
  119MPD2     N 1844   2.834   0.850  13.949
  119MPD2    H5 1845   2.906   0.792  13.907
  119MPD2    N1 1846   2.718   1.104  14.354
  119MPD2    H7 1847   2.771   1.167  14.414
  120TCq2    C1 1848   2.723   0.878  13.871
  120TCq2    O2 1849   2.645   0.974  13.877
  120TCq2    C2 1850   2.680   0.761  13.791
  120TCq2    C3 1851   2.709   0.633  13.827
  120TCq2    C4 1852   2.623   0.534  13.804
  120TCq2    C5 1853   2.502   0.553  13.745
  120TCq2    C6 1854   2.472   0.680  13.715
  120TCq2    C7 1855   2.558   0.782  13.738
  120TCq2    C8 1856   2.329   0.715  13.704
  120TCq2    O4 1857   2.298   0.818  13.645
  120TCq2    C9 1858   2.657   0.398  13.842
  120TCq2    O5 1859   2.557   0.327  13.881
  120TCq2    O6 1860   2.765   0.352  13.794
  120TCq2    H2 1861   2.803   0.603  13.872
  120TCq2    H3 1862   2.435   0.468  13.739
  120TCq2    H4 1863   2.528   0.883  13.715
  121TMC2    C1 1864   3.804   2.397  14.548
  121TMC2    C2 1865   3.778   2.310  14.655
  121TMC2    C3 1866   3.647   2.284  14.684
  121TMC2    C4 1867   3.697   2.454  14.481
  121TMC2    C5 1868   3.574   2.413  14.517
  121TMC2    C6 1869   3.541   2.325  14.615
  121TMC2     C 1870   3.938   2.455  14.546
  121TMC2     O 1871   4.009   2.401  14.630
  121TMC2     H 1872   3.851   2.251  14.709
  121TMC2    H1 1873   3.706   2.537  14.411
  121TMC2    H2 1874   3.441   2.294  14.642
  121TMC2    C7 1875   3.465   2.491  14.454
  121TMC2    C8 1876   3.624   2.156  14.752
  121TMC2    O1 1877   3.487   2.608  14.431
  121TMC2    O2 1878   3.532   2.140  14.830
  121TMC2    O5 1879   3.671   2.061  14.666
  121TMC2    H5 1880   3.725   2.090  14.589
  122MPD2     C 1881   4.194   2.589  14.496
  122MPD2    C1 1882   4.087   2.608  14.418
  122MPD2    C2 1883   4.084   2.708  14.324
  122MPD2    C3 1884   4.191   2.789  14.305
  122MPD2    C4 1885   4.297   2.773  14.390
  122MPD2    C5 1886   4.298   2.667  14.471
  122MPD2     H 1887   3.987   2.721  14.277
  122MPD2    H1 1888   4.385   2.835  14.382
  122MPD2    H2 1889   4.210   2.516  14.574
  122MPD2    H3 1890   4.389   2.664  14.530
  122MPD2     N 1891   4.214   2.869  14.189
  122MPD2    H5 1892   4.304   2.916  14.184
  122MPD2    N1 1893   3.962   2.542  14.438
  122MPD2    H7 1894   3.895   2.549  14.362
  123TMC2    C1 1895   2.314   1.104  10.312
  123TMC2    C2 1896   2.445   1.145  10.310
  123TMC2    C3 1897   2.493   1.193  10.190
  123TMC2    C4 1898   2.229   1.112  10.204
  123TMC2    C5 1899   2.285   1.146  10.085
  123TMC2    C6 1900   2.412   1.197  10.080
  123TMC2     C 1901   2.271   1.028  10.425
  123TMC2     O 1902   2.336   1.037  10.525
  123TMC2     H 1903   2.510   1.121  10.393
  123TMC2    H1 1904   2.123   1.089  10.203
  123TMC2    H2 1905   2.456   1.232   9.987
  123TMC2    C7 1906   2.195   1.185   9.979
  123TMC2    C8 1907   2.635   1.229  10.172
  123TMC2    O1 1908   2.220   1.292   9.919
  123TMC2    O2 1909   2.691   1.232  10.063
  123TMC2    O5 1910   2.692   1.270  10.287
  123TMC2    H5 1911   2.624   1.288  10.355
  124MPD2     C 1912   1.989   0.687  10.685
  124MPD2    C1 1913   1.974   0.659  10.551
  124MPD2    C2 1914   2.028   0.754  10.459
  124MPD2    C3 1915   2.115   0.853  10.504
  124MPD2    C4 1916   2.133   0.884  10.637
  124MPD2    C5 1917   2.063   0.797  10.724
  124MPD2     H 1918   2.023   0.731  10.353
  124MPD2    H1 1919   2.191   0.964  10.682
  124MPD2    H2 1920   1.945   0.621  10.759
  124MPD2    H3 1921   2.075   0.825  10.828
  124MPD2     N 1922   2.164   0.940  10.404
  124MPD2    H5 1923   2.150   0.910  10.308
  124MPD2    N1 1924   1.908   0.532  10.518
  124MPD2    H7 1925   1.861   0.484  10.594
  125TMC2    C1 1926   2.648   2.450   9.254
  125TMC2    C2 1927   2.726   2.345   9.284
  125TMC2    C3 1928   2.857   2.353   9.255
  125TMC2    C4 1929   2.694   2.562   9.195
  125TMC2    C5 1930   2.837   2.568   9.177
  125TMC2    C6 1931   2.911   2.456   9.193
  125TMC2     C 1932   2.509   2.457   9.298
  125TMC2     O 1933   2.445   2.555   9.266
  125TMC2     H 1934   2.677   2.249   9.287
  125TMC2    H1 1935   2.625   2.645   9.183
  125TMC2    H2 1936   3.017   2.453   9.168
  125TMC2    C7 1937   2.891   2.695   9.140
  125TMC2    C8 1938   2.947   2.239   9.278
  125TMC2    O1 1939   2.803   2.782   9.123
  125TMC2    O2 1940   3.049   2.233   9.209
  125TMC2    O5 1941   2.883   2.139   9.335
  125TMC2    H5 1942   2.798   2.162   9.379
  126MPD1     C 1943   2.109   2.280   9.562
  126MPD1    C1 1944   2.180   2.171   9.521
  126MPD1    C2 1945   2.301   2.199   9.455
  126MPD1    C3 1946   2.348   2.325   9.437
  126MPD1    C4 1947   2.278   2.436   9.482
  126MPD1    C5 1948   2.162   2.409   9.547
  126MPD1     H 1949   2.364   2.115   9.428
  126MPD1    H1 1950   2.295   2.542   9.465
  126MPD1    H2 1951   2.015   2.268   9.615
  126MPD1    H3 1952   2.087   2.485   9.568
  126MPD1     N 1953   2.468   2.346   9.372
  126MPD1    H5 1954   2.530   2.266   9.383
  126MPD1    N1 1955   2.135   2.042   9.556
  126MPD1    H6 1956   2.169   1.966   9.497
  126MPD1    H7 1957   2.033   2.040   9.557
  127TMC2    C1 1958   3.952   1.588   9.991
  127TMC2    C2 1959   3.989   1.557  10.116
  127TMC2    C3 1960   3.928   1.454  10.179
  127TMC2    C4 1961   3.869   1.513   9.917
  127TMC2    C5 1962   3.817   1.406   9.982
  127TMC2    C6 1963   3.832   1.375  10.117
  127TMC2     C 1964   3.996   1.719   9.940
  127TMC2     O 1965   4.033   1.800  10.021
  127TMC2     H 1966   4.046   1.622  10.180
  127TMC2    H1 1967   3.852   1.532   9.812
  127TMC2    H2 1968   3.796   1.285  10.165
  127TMC2    C7 1969   3.703   1.339   9.911
  127TMC2    C8 1970   4.005   1.407  10.297
  127TMC2    O1 1971   3.646   1.395   9.819
  127TMC2    O2 1972   4.118   1.435  10.326
  127TMC2    O5 1973   3.908   1.366  10.388
  127TMC2    H5 1974   3.818   1.400  10.370
  128MPD2     C 1975   3.978   1.871   9.596
  128MPD2    C1 1976   4.021   1.857   9.728
  128MPD2    C2 1977   4.111   1.945   9.776
  128MPD2    C3 1978   4.156   2.049   9.694
  128MPD2    C4 1979   4.121   2.054   9.562
  128MPD2    C5 1980   4.027   1.965   9.515
  128MPD2     H 1981   4.151   1.943   9.877
  128MPD2    H1 1982   4.155   2.133   9.495
  128MPD2    H2 1983   3.905   1.799   9.562
  128MPD2    H3 1984   3.980   1.978   9.418
  128MPD2     N 1985   4.244   2.149   9.748
  128MPD2    H5 1986   4.265   2.141   9.847
  128MPD2    N1 1987   3.969   1.745   9.803
  128MPD2    H7 1988   3.891   1.700   9.756
  129TMC2    C1 1989   2.481   2.555  19.495
  129TMC2    C2 1990   2.547   2.639  19.582
  129TMC2    C3 1991   2.491   2.651  19.710
  129TMC2    C4 1992   2.368   2.486  19.532
  129TMC2    C5 1993   2.323   2.498  19.661
  129TMC2    C6 1994   2.383   2.585  19.752
  129TMC2     C 1995   2.502   2.552  19.347
  129TMC2     O 1996   2.457   2.460  19.280
  129TMC2     H 1997   2.629   2.702  19.550
  129TMC2    H1 1998   2.320   2.432  19.451
  129TMC2    H2 1999   2.339   2.599  19.850
  129TMC2    C7 2000   2.210   2.413  19.698
  129TMC2    C8 2001   2.561   2.724  19.814
  129TMC2    O1 2002   2.145   2.375  19.602
  129TMC2    O2 2003   2.493   2.787  19.896
  129TMC2    O5 2004   2.676   2.756  19.765
  129TMC2    H5 2005   2.713   2.669  19.737
  130MPD2     C 2006   2.598   2.593  19.067
  130MPD2    C1 2007   2.659   2.646  19.176
  130MPD2    C2 2008   2.770   2.720  19.152
  130MPD2    C3 2009   2.830   2.730  19.026
  130MPD2    C4 2010   2.768   2.665  18.925
  130MPD2    C5 2011   2.652   2.602  18.940
  130MPD2     H 2012   2.816   2.776  19.233
  130MPD2    H1 2013   2.810   2.681  18.826
  130MPD2    H2 2014   2.504   2.541  19.076
  130MPD2    H3 2015   2.609   2.565  18.848
  130MPD2     N 2016   2.956   2.793  19.010
  130MPD2    H5 2017   2.967   2.876  19.068
  130MPD2    N1 2018   2.611   2.626  19.308
  130MPD2    H7 2019   2.654   2.697  19.366
  131TMC2    C1 2020   1.766   1.156  10.282
  131TMC2    C2 2021   1.849   1.183  10.387
  131TMC2    C3 2022   1.939   1.284  10.376
  131TMC2    C4 2023   1.787   1.217  10.160
  131TMC2    C5 2024   1.878   1.320  10.154
  131TMC2    C6 2025   1.966   1.356  10.255
  131TMC2     C 2026   1.726   1.020  10.269
  131TMC2     O 2027   1.763   0.941  10.351
  131TMC2     H 2028   1.835   1.125  10.478
  131TMC2    H1 2029   1.727   1.205  10.070
  131TMC2    H2 2030   2.036   1.437  10.242
  131TMC2    C7 2031   1.864   1.396  10.027
  131TMC2    C8 2032   2.021   1.298  10.492
  131TMC2    O1 2033   1.822   1.334   9.934
  131TMC2    O2 2034   1.993   1.271  10.610
  131TMC2    O5 2035   2.136   1.352  10.451
  131TMC2    H5 2036   2.205   1.373  10.518
  132MPD2     C 2037   1.444   0.891  10.061
  132MPD2    C1 2038   1.559   0.884  10.134
  132MPD2    C2 2039   1.590   0.760  10.190
  132MPD2    C3 2040   1.521   0.650  10.161
  132MPD2    C4 2041   1.402   0.661  10.087
  132MPD2    C5 2042   1.363   0.784  10.034
  132MPD2     H 2043   1.682   0.745  10.246
  132MPD2    H1 2044   1.345   0.578  10.046
  132MPD2    H2 2045   1.421   0.986  10.014
  132MPD2    H3 2046   1.276   0.793   9.970
  132MPD2     N 2047   1.577   0.527  10.211
  132MPD2    H5 2048   1.673   0.530  10.244
  132MPD2    N1 2049   1.627   1.007  10.172
  132MPD2    H7 2050   1.607   1.078  10.103
  133MPD2     C 2051   0.616   2.244   9.350
  133MPD2    C1 2052   0.735   2.192   9.387
  133MPD2    C2 2053   0.742   2.068   9.442
  133MPD2    C3 2054   0.628   1.993   9.471
  133MPD2    C4 2055   0.504   2.049   9.435
  133MPD2    C5 2056   0.501   2.167   9.363
  133MPD2     H 2057   0.838   2.025   9.466
  133MPD2    H1 2058   0.418   1.991   9.467
  133MPD2    H2 2059   0.618   2.342   9.303
  133MPD2    H3 2060   0.406   2.212   9.336
  133MPD2     N 2061   0.630   1.867   9.543
  133MPD2    H5 2062   0.538   1.829   9.565
  133MPD2    N1 2063   0.844   2.278   9.371
  133MPD2    H7 2064   0.822   2.374   9.346
  134TCq2    C1 2065   0.975   2.240   9.387
  134TCq2    O2 2066   1.024   2.138   9.424
  134TCq2    C2 2067   1.071   2.358   9.371
  134TCq2    C3 2068   1.201   2.316   9.376
  134TCq2    C4 2069   1.293   2.410   9.390
  134TCq2    C5 2070   1.260   2.543   9.389
  134TCq2    C6 2071   1.131   2.583   9.364
  134TCq2    C7 2072   1.032   2.486   9.356
  134TCq2    C8 2073   1.101   2.729   9.374
  134TCq2    O4 2074   1.194   2.801   9.408
  134TCq2    C9 2075   1.431   2.373   9.414
  134TCq2    O5 2076   1.515   2.467   9.425
  134TCq2    O6 2077   1.451   2.246   9.415
  134TCq2    H2 2078   1.227   2.212   9.390
  134TCq2    H3 2079   1.341   2.616   9.387
  134TCq2    H4 2080   0.928   2.518   9.353
  135TMC2    C1 2081   3.442   3.501  10.123
  135TMC2    C2 2082   3.366   3.567  10.215
  135TMC2    C3 2083   3.279   3.498  10.293
  135TMC2    C4 2084   3.439   3.360  10.113
  135TMC2    C5 2085   3.351   3.297  10.199
  135TMC2    C6 2086   3.266   3.364  10.280
  135TMC2     C 2087   3.561   3.566  10.072
  135TMC2     O 2088   3.603   3.659  10.143
  135TMC2     H 2089   3.378   3.673  10.232
  135TMC2    H1 2090   3.485   3.302  10.034
  135TMC2    H2 2091   3.188   3.314  10.337
  135TMC2    C7 2092   3.316   3.159  10.168
  135TMC2    C8 2093   3.159   3.571  10.317
  135TMC2    O1 2094   3.351   3.119  10.059
  135TMC2    O2 2095   3.127   3.672  10.254
  135TMC2    O5 2096   3.122   3.538  10.443
  135TMC2    H5 2097   3.168   3.457  10.474
  136MPD2     C 2098   3.833   3.629   9.970
  136MPD2    C1 2099   3.729   3.576   9.894
  136MPD2    C2 2100   3.752   3.559   9.761
  136MPD2    C3 2101   3.863   3.611   9.697
  136MPD2    C4 2102   3.969   3.666   9.768
  136MPD2    C5 2103   3.949   3.672   9.911
  136MPD2     H 2104   3.679   3.498   9.709
  136MPD2    H1 2105   4.061   3.696   9.719
  136MPD2    H2 2106   3.835   3.622  10.078
  136MPD2    H3 2107   4.034   3.706   9.970
  136MPD2     N 2108   3.889   3.580   9.558
  136MPD2    H5 2109   3.986   3.591   9.529
  136MPD2    N1 2110   3.610   3.531   9.949
  136MPD2    H7 2111   3.547   3.465   9.905
  137TMC2    C1 2112   3.294   2.197   9.614
  137TMC2    C2 2113   3.363   2.160   9.498
  137TMC2    C3 2114   3.343   2.242   9.385
  137TMC2    C4 2115   3.212   2.301   9.627
  137TMC2    C5 2116   3.192   2.370   9.511
  137TMC2    C6 2117   3.267   2.355   9.394
  137TMC2     C 2118   3.296   2.109   9.725
  137TMC2     O 2119   3.279   2.150   9.837
  137TMC2     H 2120   3.430   2.075   9.496
  137TMC2    H1 2121   3.158   2.322   9.718
  137TMC2    H2 2122   3.231   2.401   9.303
  137TMC2    C7 2123   3.082   2.469   9.501
  137TMC2    C8 2124   3.351   2.195   9.241
  137TMC2    O1 2125   3.091   2.567   9.433
  137TMC2    O2 2126   3.372   2.271   9.151
  137TMC2    O5 2127   3.324   2.064   9.229
  137TMC2    H5 2128   3.296   2.017   9.311
  138MPD2     C 2129   3.341   1.746   9.719
  138MPD2    C1 2130   3.336   1.869   9.773
  138MPD2    C2 2131   3.349   1.882   9.911
  138MPD2    C3 2132   3.351   1.770   9.985
  138MPD2    C4 2133   3.344   1.644   9.932
  138MPD2    C5 2134   3.342   1.637   9.798
  138MPD2     H 2135   3.348   1.976   9.965
  138MPD2    H1 2136   3.354   1.553   9.989
  138MPD2    H2 2137   3.333   1.729   9.612
  138MPD2    H3 2138   3.343   1.540   9.749
  138MPD2     N 2139   3.355   1.790  10.123
  138MPD2    H5 2140   3.388   1.878  10.162
  138MPD2    N1 2141   3.322   1.983   9.683
  138MPD2    H7 2142   3.342   1.968   9.585
  139TMC2    C1 2143   4.050   0.293  13.850
  139TMC2    C2 2144   4.119   0.363  13.757
  139TMC2    C3 2145   4.123   0.499  13.759
  139TMC2    C4 2146   3.973   0.362  13.943
  139TMC2    C5 2147   3.982   0.502  13.948
  139TMC2    C6 2148   4.058   0.571  13.856
  139TMC2     C 2149   4.071   0.151  13.850
  139TMC2     O 2150   4.159   0.114  13.774
  139TMC2     H 2151   4.182   0.311  13.686
  139TMC2    H1 2152   3.910   0.310  14.015
  139TMC2    H2 2153   4.056   0.679  13.848
  139TMC2    C7 2154   3.910   0.584  14.047
  139TMC2    C8 2155   4.217   0.561  13.668
  139TMC2    O1 2156   3.889   0.699  14.016
  139TMC2    O2 2157   4.258   0.500  13.571
  139TMC2    O5 2158   4.278   0.665  13.733
  139TMC2    H5 2159   4.239   0.692  13.819
  140MPD2     C 2160   3.924   4.656  14.042
  140MPD2    C1 2161   4.017   4.723  13.965
  140MPD2    C2 2162   4.132   4.655  13.924
  140MPD2    C3 2163   4.160   4.537  13.971
  140MPD2    C4 2164   4.069   4.465  14.049
  140MPD2    C5 2165   3.946   4.522  14.078
  140MPD2     H 2166   4.214   4.708  13.876
  140MPD2    H1 2167   4.088   4.363  14.080
  140MPD2    H2 2168   3.839   4.715  14.076
  140MPD2    H3 2169   3.895   4.472  14.159
  140MPD2     N 2170   4.270   4.473  13.917
  140MPD2    H5 2171   4.319   4.512  13.837
  140MPD2    N1 2172   3.986   0.073  13.924
  140MPD2    H7 2173   3.917   0.125  13.978
  141TMC2    C1 2174   4.412   1.373  15.005
  141TMC2    C2 2175   4.488   1.259  15.046
  141TMC2    C3 2176   4.482   1.230  15.178
  141TMC2    C4 2177   4.340   1.451  15.093
  141TMC2    C5 2178   4.336   1.412  15.223
  141TMC2    C6 2179   4.403   1.306  15.263
  141TMC2     C 2180   4.403   1.406  14.865
  141TMC2     O 2181   4.320   1.492  14.836
  141TMC2     H 2182   4.536   1.188  14.979
  141TMC2    H1 2183   4.271   1.525  15.056
  141TMC2    H2 2184   4.396   1.288  15.370
  141TMC2    C7 2185   4.320   1.514  15.325
  141TMC2    C8 2186   4.578   1.138  15.238
  141TMC2    O1 2187   4.317   1.472  15.440
  141TMC2    O2 2188   4.554   1.083  15.345
  141TMC2    O5 2189   4.690   1.132  15.163
  141TMC2    H5 2190   4.693   1.211  15.105
  142TMC2    C1 2191   2.316   0.415  10.413
  142TMC2    C2 2192   2.428   0.444  10.483
  142TMC2    C3 2193   2.506   0.550  10.448
  142TMC2    C4 2194   2.292   0.470  10.291
  142TMC2    C5 2195   2.373   0.576  10.251
  142TMC2    C6 2196   2.477   0.618  10.337
  142TMC2     C 2197   2.216   0.342  10.486
  142TMC2     O 2198   2.150   0.266  10.420
  142TMC2     H 2199   2.452   0.400  10.579
  142TMC2    H1 2200   2.206   0.442  10.232
  142TMC2    H2 2201   2.540   0.701  10.306
  142TMC2    C7 2202   2.316   0.687  10.177
  142TMC2    C8 2203   2.648   0.551  10.480
  142TMC2    O1 2204   2.378   0.791  10.167
  142TMC2    O2 2205   2.735   0.553  10.390
  142TMC2    O5 2206   2.660   0.526  10.611
  142TMC2    H5 2207   2.569   0.527  10.648
  143MPD2     C 2208   1.952   0.210  10.896
  143MPD2    C1 2209   1.962   0.150  10.775
  143MPD2    C2 2210   2.048   0.205  10.684
  143MPD2    C3 2211   2.126   0.316  10.717
  143MPD2    C4 2212   2.107   0.376  10.838
  143MPD2    C5 2213   2.019   0.323  10.925
  143MPD2     H 2214   2.060   0.162  10.585
  143MPD2    H1 2215   2.163   0.463  10.870
  143MPD2    H2 2216   1.884   0.172  10.972
  143MPD2    H3 2217   1.999   0.377  11.017
  143MPD2     N 2218   2.214   0.371  10.618
  143MPD2    H5 2219   2.281   0.442  10.648
  143MPD2    N1 2220   1.892   0.025  10.751
  143MPD2    H7 2221   1.834   4.770  10.827
  144TMC2    C1 2222   0.251   4.421  19.185
  144TMC2    C2 2223   0.135   4.390  19.256
  144TMC2    C3 2224   0.108   4.454  19.372
  144TMC2    C4 2225   0.337   4.519  19.225
  144TMC2    C5 2226   0.311   4.587  19.343
  144TMC2    C6 2227   0.198   4.550  19.418
  144TMC2     C 2228   0.241   4.383  19.047
  144TMC2     O 2229   0.193   4.275  19.020
  144TMC2     H 2230   0.088   4.295  19.234
  144TMC2    H1 2231   0.424   4.535  19.163
  144TMC2    H2 2232   0.163   4.609  19.502
  144TMC2    C7 2233   0.427   4.650  19.410
  144TMC2    C8 2234   4.760   4.427  19.441
  144TMC2    O1 2235   0.535   4.650  19.357
  144TMC2    O2 2236   4.661   4.371  19.400
  144TMC2    O5 2237   0.009   4.441  19.572
  144TMC2    H5 2238   0.104   4.461  19.589
  145MPD2     C 2239   0.216   4.515  18.557
  145MPD2    C1 2240   0.176   4.394  18.615
  145MPD2    C2 2241   0.200   4.379  18.753
  145MPD2    C3 2242   0.253   4.484  18.825
  145MPD2    C4 2243   0.284   4.604  18.766
  145MPD2    C5 2244   0.268   4.618  18.632
  145MPD2     H 2245   0.180   4.284  18.801
  145MPD2    H1 2246   0.332   4.686  18.818
  145MPD2    H2 2247   0.225   4.522  18.449
  145MPD2    H3 2248   0.309   4.705  18.581
  145MPD2     N 2249   0.275   4.485  18.964
  145MPD2    H5 2250   0.306   4.572  19.006
  145MPD2    N1 2251   0.116   4.292  18.545
  145MPD2    H7 2252   0.104   4.205  18.596
  146TMC2    C1 2253   1.186   2.694  12.503
  146TMC2    C2 2254   1.080   2.658  12.424
  146TMC2    C3 2255   1.104   2.573  12.321
  146TMC2    C4 2256   1.314   2.656  12.474
  146TMC2    C5 2257   1.335   2.584  12.354
  146TMC2    C6 2258   1.228   2.537  12.286
  146TMC2     C 2259   1.177   2.797  12.609
  146TMC2     O 2260   1.109   2.897  12.603
  146TMC2     H 2261   0.983   2.703  12.443
  146TMC2    H1 2262   1.402   2.705  12.515
  146TMC2    H2 2263   1.254   2.460  12.214
  146TMC2    C7 2264   1.466   2.544  12.311
  146TMC2    C8 2265   0.987   2.528  12.257
  146TMC2    O1 2266   1.483   2.492  12.203
  146TMC2    O2 2267   0.891   2.600  12.247
  146TMC2    O5 2268   1.008   2.405  12.202
  146TMC2    H5 2269   1.082   2.354  12.242
  147MPD2     C 2270   1.967   2.535  12.448
  147MPD2    C1 2271   1.886   2.559  12.557
  147MPD2    C2 2272   1.751   2.565  12.542
  147MPD2    C3 2273   1.692   2.534  12.423
  147MPD2    C4 2274   1.770   2.524  12.311
  147MPD2    C5 2275   1.906   2.520  12.328
  147MPD2     H 2276   1.683   2.563  12.626
  147MPD2    H1 2277   1.744   2.521  12.206
  147MPD2    H2 2278   2.071   2.511  12.469
  147MPD2    H3 2279   1.963   2.497  12.238
  147MPD2     N 2280   1.556   2.556  12.419
  147MPD2    H5 2281   1.525   2.565  12.515
  147MPD2    N1 2282   1.942   2.550  12.685
  147MPD2    H7 2283   2.037   2.515  12.691
  148MPD2     C 2284   1.368   1.626  11.431
  148MPD2    C1 2285   1.467   1.649  11.339
  148MPD2    C2 2286   1.449   1.598  11.208
  148MPD2    C3 2287   1.339   1.524  11.173
  148MPD2    C4 2288   1.248   1.505  11.270
  148MPD2    C5 2289   1.260   1.547  11.399
  148MPD2     H 2290   1.532   1.613  11.140
  148MPD2    H1 2291   1.156   1.450  11.257
  148MPD2    H2 2292   1.379   1.654  11.535
  148MPD2    H3 2293   1.190   1.514  11.475
  148MPD2     N 2294   1.306   1.486  11.041
  148MPD2    H5 2295   1.229   1.421  11.035
  148MPD2    N1 2296   1.585   1.723  11.374
  148MPD2    H7 2297   1.662   1.720  11.308
  149TCq2    C1 2298   1.598   1.799  11.486
  149TCq2    O2 2299   1.516   1.840  11.567
  149TCq2    C2 2300   1.742   1.831  11.505
  149TCq2    C3 2301   1.781   1.960  11.510
  149TCq2    C4 2302   1.900   1.984  11.460
  149TCq2    C5 2303   1.968   1.887  11.386
  149TCq2    C6 2304   1.933   1.757  11.386
  149TCq2    C7 2305   1.822   1.732  11.454
  149TCq2    C8 2306   1.930   1.688  11.261
  149TCq2    O4 2307   1.825   1.630  11.240
  149TCq2    C9 2308   1.938   2.128  11.445
  149TCq2    O5 2309   2.059   2.149  11.425
  149TCq2    O6 2310   1.852   2.208  11.488
  149TCq2    H2 2311   1.710   2.032  11.548
  149TCq2    H3 2312   2.049   1.923  11.324
  149TCq2    H4 2313   1.785   1.631  11.465
  150TMC2    C1 2314   3.467   0.783  12.582
  150TMC2    C2 2315   3.446   0.804  12.453
  150TMC2    C3 2316   3.556   0.840  12.381
  150TMC2    C4 2317   3.588   0.804  12.644
  150TMC2    C5 2318   3.691   0.852  12.569
  150TMC2    C6 2319   3.679   0.869  12.435
  150TMC2     C 2320   3.355   0.748  12.668
  150TMC2     O 2321   3.378   0.672  12.760
  150TMC2     H 2322   3.356   0.766  12.406
  150TMC2    H1 2323   3.595   0.787  12.751
  150TMC2    H2 2324   3.746   0.924  12.370
  150TMC2    C7 2325   3.819   0.882  12.625
  150TMC2    C8 2326   3.538   0.833  12.240
  150TMC2    O1 2327   3.887   0.959  12.557
  150TMC2    O2 2328   3.433   0.840  12.179
  150TMC2    O5 2329   3.649   0.798  12.180
  150TMC2    H5 2330   3.724   0.775  12.239
  151MPD2     C 2331   2.854   0.680  12.714
  151MPD2    C1 2332   2.877   0.767  12.609
  151MPD2    C2 2333   3.008   0.810  12.585
  151MPD2    C3 2334   3.108   0.760  12.654
  151MPD2    C4 2335   3.084   0.665  12.757
  151MPD2    C5 2336   2.956   0.635  12.788
  151MPD2     H 2337   3.029   0.881  12.506
  151MPD2    H1 2338   3.156   0.625  12.828
  151MPD2    H2 2339   2.754   0.647  12.742
  151MPD2    H3 2340   2.937   0.554  12.857
  151MPD2     N 2341   3.240   0.797  12.611
  151MPD2    H5 2342   3.235   0.868  12.539
  151MPD2    N1 2343   2.761   0.804  12.533
  151MPD2    H7 2344   2.669   0.768  12.556
  152TMC2    C1 2345   3.390   0.528  13.137
  152TMC2    C2 2346   3.443   0.417  13.189
  152TMC2    C3 2347   3.576   0.421  13.214
  152TMC2    C4 2348   3.458   0.639  13.112
  152TMC2    C5 2349   3.593   0.639  13.143
  152TMC2    C6 2350   3.657   0.524  13.187
  152TMC2     C 2351   3.244   0.541  13.111
  152TMC2     O 2352   3.208   0.659  13.091
  152TMC2     H 2353   3.388   0.324  13.190
  152TMC2    H1 2354   3.404   0.727  13.078
  152TMC2    H2 2355   3.764   0.510  13.196
  152TMC2    C7 2356   3.651   0.769  13.150
  152TMC2    C8 2357   3.642   0.298  13.245
  152TMC2    O1 2358   3.607   0.862  13.086
  152TMC2    O2 2359   3.746   0.264  13.185
  152TMC2    O5 2360   3.560   0.217  13.310
  152TMC2    H5 2361   3.488   0.264  13.358
  153MPD2     C 2362   2.964   0.291  13.154
  153MPD2    C1 2363   3.028   0.413  13.141
  153MPD2    C2 2364   2.943   0.520  13.118
  153MPD2    C3 2365   2.805   0.511  13.113
  153MPD2    C4 2366   2.746   0.386  13.117
  153MPD2    C5 2367   2.826   0.273  13.131
  153MPD2     H 2368   2.982   0.621  13.117
  153MPD2    H1 2369   2.640   0.379  13.097
  153MPD2    H2 2370   3.025   0.204  13.173
  153MPD2    H3 2371   2.782   0.176  13.151
  153MPD2     N 2372   2.724   0.631  13.109
  153MPD2    H5 2373   2.781   0.715  13.112
  153MPD2    N1 2374   3.168   0.425  13.145
  153MPD2    H7 2375   3.216   0.338  13.164
  154TMC2    C1 2376   0.406   0.549  18.741
  154TMC2    C2 2377   0.405   0.558  18.881
  154TMC2    C3 2378   0.523   0.527  18.942
  154TMC2    C4 2379   0.520   0.540  18.673
  154TMC2    C5 2380   0.637   0.523  18.740
  154TMC2    C6 2381   0.641   0.511  18.874
  154TMC2     C 2382   0.276   0.556  18.679
  154TMC2     O 2383   0.186   0.609  18.745
  154TMC2     H 2384   0.315   0.572  18.940
  154TMC2    H1 2385   0.517   0.533  18.565
  154TMC2    H2 2386   0.737   0.501  18.924
  154TMC2    C7 2387   0.753   0.470  18.667
  154TMC2    C8 2388   0.531   0.545  19.084
  154TMC2    O1 2389   0.791   0.362  18.714
  154TMC2    O2 2390   0.447   0.613  19.141
  154TMC2    O5 2391   0.602   0.443  19.135
  154TMC2    H5 2392   0.646   0.389  19.066
  155MPD2     C 2393   0.177   0.402  18.357
  155MPD2    C1 2394   0.158   0.482  18.468
  155MPD2    C2 2395   0.043   0.554  18.483
  155MPD2    C3 2396   4.723   0.551  18.395
  155MPD2    C4 2397   4.732   0.451  18.297
  155MPD2    C5 2398   0.069   0.382  18.279
  155MPD2     H 2399   0.038   0.635  18.555
  155MPD2    H1 2400   4.648   0.422  18.235
  155MPD2    H2 2401   0.265   0.343  18.335
  155MPD2    H3 2402   0.059   0.305  18.203
  155MPD2     N 2403   4.611   0.637  18.410
  155MPD2    H5 2404   4.621   0.700  18.489
  155MPD2    N1 2405   0.278   0.502  18.549
  155MPD2    H7 2406   0.360   0.449  18.522
  156TMC2    C1 2407   3.380   3.374  11.939
  156TMC2    C2 2408   3.416   3.273  11.859
  156TMC2    C3 2409   3.345   3.268  11.744
  156TMC2    C4 2410   3.271   3.457  11.912
  156TMC2    C5 2411   3.206   3.449  11.796
  156TMC2    C6 2412   3.245   3.354  11.712
  156TMC2     C 2413   3.437   3.391  12.075
  156TMC2     O 2414   3.393   3.485  12.141
  156TMC2     H 2415   3.508   3.217  11.868
  156TMC2    H1 2416   3.251   3.537  11.983
  156TMC2    H2 2417   3.200   3.345  11.614
  156TMC2    C7 2418   3.147   3.570  11.739
  156TMC2    C8 2419   3.373   3.171  11.641
  156TMC2    O1 2420   3.143   3.596  11.620
  156TMC2    O2 2421   3.309   3.159  11.539
  156TMC2    O5 2422   3.437   3.064  11.696
  156TMC2    H5 2423   3.496   3.090  11.770
  157MPD2     C 2424   3.665   3.171  12.276
  157MPD2    C1 2425   3.597   3.283  12.240
  157MPD2    C2 2426   3.596   3.386  12.333
  157MPD2    C3 2427   3.666   3.381  12.452
  157MPD2    C4 2428   3.736   3.272  12.475
  157MPD2    C5 2429   3.740   3.171  12.390
  157MPD2     H 2430   3.541   3.477  12.311
  157MPD2    H1 2431   3.798   3.251  12.561
  157MPD2    H2 2432   3.666   3.082  12.215
  157MPD2    H3 2433   3.797   3.080  12.407
  157MPD2     N 2434   3.665   3.496  12.542
  157MPD2    H5 2435   3.620   3.578  12.502
  157MPD2    N1 2436   3.523   3.289  12.117
  157MPD2    H7 2437   3.526   3.202  12.065
  158TMC2    C1 2438   4.024   1.782  13.876
  158TMC2    C2 2439   4.031   1.893  13.801
  158TMC2    C3 2440   3.911   1.941  13.747
  158TMC2    C4 2441   3.897   1.725  13.910
  158TMC2    C5 2442   3.781   1.778  13.854
  158TMC2    C6 2443   3.791   1.887  13.771
  158TMC2     C 2444   4.159   1.720  13.908
  158TMC2     O 2445   4.247   1.757  13.829
  158TMC2     H 2446   4.126   1.944  13.793
  158TMC2    H1 2447   3.895   1.638  13.974
  158TMC2    H2 2448   3.706   1.945  13.737
  158TMC2    C7 2449   3.657   1.769  13.925
  158TMC2    C8 2450   3.912   2.034  13.636
  158TMC2    O1 2451   3.583   1.863  13.902
  158TMC2    O2 2452   3.818   2.114  13.633
  158TMC2    O5 2453   4.042   2.056  13.616
  158TMC2    H5 2454   4.098   1.976  13.612
  159MPD2     C 2455   3.993   1.641  14.389
  159MPD2    C1 2456   4.072   1.542  14.351
  159MPD2    C2 2457   4.133   1.544  14.228
  159MPD2    C3 2458   4.105   1.640  14.137
  159MPD2    C4 2459   4.036   1.756  14.187
  159MPD2    C5 2460   3.968   1.751  14.305
  159MPD2     H 2461   4.180   1.453  14.192
  159MPD2    H1 2462   4.025   1.844  14.125
  159MPD2    H2 2463   3.953   1.649  14.490
  159MPD2    H3 2464   3.900   1.830  14.334
  159MPD2     N 2465   4.174   1.634  14.015
  159MPD2    H5 2466   4.259   1.579  14.018
  159MPD2    N1 2467   4.085   1.431  14.440
  159MPD2    H7 2468   4.012   1.436  14.510
  160TMC2    C1 2469   3.564   0.107  19.529
  160TMC2    C2 2470   3.587   0.007  19.619
  160TMC2    C3 2471   3.708   4.730  19.632
  160TMC2    C4 2472   3.666   0.143  19.437
  160TMC2    C5 2473   3.786   0.072  19.445
  160TMC2    C6 2474   3.812   4.762  19.549
  160TMC2     C 2475   3.418   0.137  19.501
  160TMC2     O 2476   3.332   0.064  19.548
  160TMC2     H 2477   3.516   4.765  19.698
  160TMC2    H1 2478   3.660   0.201  19.345
  160TMC2    H2 2479   3.912   4.721  19.554
  160TMC2    C7 2480   3.907   0.115  19.375
  160TMC2    C8 2481   3.725   4.646  19.749
  160TMC2    O1 2482   4.005   0.038  19.380
  160TMC2    O2 2483   3.631   4.608  19.816
  160TMC2    O5 2484   3.846   4.654  19.803
  160TMC2    H5 2485   3.906   4.708  19.748
  161MPD2     C 2486   3.166   0.236  19.370
  161MPD2    C1 2487   3.281   0.307  19.374
  161MPD2    C2 2488   3.287   0.431  19.320
  161MPD2    C3 2489   3.173   0.488  19.263
  161MPD2    C4 2490   3.062   0.413  19.256
  161MPD2    C5 2491   3.057   0.289  19.313
  161MPD2     H 2492   3.381   0.483  19.304
  161MPD2    H1 2493   2.973   0.459  19.213
  161MPD2    H2 2494   3.166   0.138  19.416
  161MPD2    H3 2495   2.969   0.228  19.295
  161MPD2     N 2496   3.181   0.606  19.186
  161MPD2    H5 2497   3.110   0.627  19.117
  161MPD2    N1 2498   3.405   0.253  19.424
  161MPD2    H7 2499   3.489   0.301  19.392
  162TMC2    C1 2500   1.409   2.072  18.744
  162TMC2    C2 2501   1.444   2.113  18.618
  162TMC2    C3 2502   1.555   2.066  18.566
  162TMC2    C4 2503   1.497   2.022  18.827
  162TMC2    C5 2504   1.615   1.978  18.767
  162TMC2    C6 2505   1.642   1.994  18.640
  162TMC2     C 2506   1.279   2.106  18.800
  162TMC2     O 2507   1.288   2.154  18.916
  162TMC2     H 2508   1.369   2.160  18.555
  162TMC2    H1 2509   1.478   1.998  18.931
  162TMC2    H2 2510   1.736   1.960  18.597
  162TMC2    C7 2511   1.731   1.927  18.847
  162TMC2    C8 2512   1.565   2.059  18.424
  162TMC2    O1 2513   1.843   1.935  18.801
  162TMC2    O2 2514   1.486   2.124  18.358
  162TMC2    O5 2515   1.635   1.950  18.387
  162TMC2    H5 2516   1.692   1.905  18.454
  163MPD2     C 2517   1.089   1.880  18.384
  163MPD2    C1 2518   1.203   1.846  18.461
  163MPD2    C2 2519   1.216   1.902  18.589
  163MPD2    C3 2520   1.131   1.998  18.625
  163MPD2    C4 2521   1.016   2.025  18.552
  163MPD2    C5 2522   0.994   1.964  18.431
  163MPD2     H 2523   1.299   1.875  18.653
  163MPD2    H1 2524   0.941   2.101  18.572
  163MPD2    H2 2525   1.065   1.848  18.283
  163MPD2    H3 2526   0.913   2.005  18.373
  163MPD2     N 2527   1.162   2.090  18.727
  163MPD2    H5 2528   1.074   2.131  18.757
  163MPD2    N1 2529   1.297   1.753  18.408
  163MPD2    H7 2530   1.289   1.733  18.309
  164TMC2    C1 2531   1.953   1.374  11.623
  164TMC2    C2 2532   2.063   1.459  11.650
  164TMC2    C3 2533   2.034   1.559  11.735
  164TMC2    C4 2534   1.827   1.405  11.669
  164TMC2    C5 2535   1.806   1.507  11.754
  164TMC2    C6 2536   1.911   1.594  11.776
  164TMC2     C 2537   1.969   1.269  11.526
  164TMC2     O 2538   1.895   1.173  11.540
  164TMC2     H 2539   2.162   1.425  11.622
  164TMC2    H1 2540   1.747   1.338  11.642
  164TMC2    H2 2541   1.896   1.689  11.826
  164TMC2    C7 2542   1.669   1.553  11.782
  164TMC2    C8 2543   2.138   1.658  11.751
  164TMC2    O1 2544   1.588   1.540  11.689
  164TMC2    O2 2545   2.129   1.781  11.741
  164TMC2    O5 2546   2.253   1.588  11.775
  164TMC2    H5 2547   2.222   1.502  11.812
  165TMC2    C1 2548   3.115   3.795  19.185
  165TMC2    C2 2549   3.104   3.663  19.235
  165TMC2    C3 2550   3.161   3.638  19.355
  165TMC2    C4 2551   3.180   3.896  19.253
  165TMC2    C5 2552   3.256   3.856  19.364
  165TMC2    C6 2553   3.243   3.733  19.420
  165TMC2     C 2554   3.017   3.836  19.083
  165TMC2     O 2555   2.970   3.951  19.090
  165TMC2     H 2556   3.040   3.588  19.190
  165TMC2    H1 2557   3.193   3.996  19.213
  165TMC2    H2 2558   3.304   3.714  19.507
  165TMC2    C7 2559   3.366   3.937  19.397
  165TMC2    C8 2560   3.150   3.509  19.410
  165TMC2    O1 2561   3.462   3.887  19.459
  165TMC2    O2 2562   3.138   3.410  19.340
  165TMC2    O5 2563   3.169   3.506  19.546
  165TMC2    H5 2564   3.146   3.593  19.586
  166MPD2     C 2565   2.720   3.739  18.675
  166MPD2    C1 2566   2.694   3.813  18.792
  166MPD2    C2 2567   2.783   3.810  18.893
  166MPD2    C3 2568   2.898   3.737  18.888
  166MPD2    C4 2569   2.916   3.651  18.789
  166MPD2    C5 2570   2.822   3.652  18.685
  166MPD2     H 2571   2.771   3.882  18.973
  166MPD2    H1 2572   2.995   3.577  18.790
  166MPD2    H2 2573   2.668   3.732  18.580
  166MPD2    H3 2574   2.844   3.580  18.607
  166MPD2     N 2575   2.995   3.742  18.987
  166MPD2    H5 2576   3.056   3.661  18.993
  166MPD2    N1 2577   2.578   3.887  18.792
  166MPD2    H7 2578   2.522   3.901  18.708
  167TMC2    C1 2579   1.332   1.496  13.079
  167TMC2    C2 2580   1.256   1.506  13.191
  167TMC2    C3 2581   1.234   1.397  13.275
  167TMC2    C4 2582   1.370   1.370  13.035
  167TMC2    C5 2583   1.352   1.268  13.123
  167TMC2    C6 2584   1.284   1.272  13.243
  167TMC2     C 2585   1.353   1.613  13.003
  167TMC2     O 2586   1.271   1.703  13.006
  167TMC2     H 2587   1.222   1.608  13.207
  167TMC2    H1 2588   1.405   1.350  12.935
  167TMC2    H2 2589   1.270   1.194  13.318
  167TMC2    C7 2590   1.381   1.131  13.086
  167TMC2    C8 2591   1.166   1.429  13.397
  167TMC2    O1 2592   1.328   1.039  13.145
  167TMC2    O2 2593   1.144   1.542  13.435
  167TMC2    O5 2594   1.086   1.326  13.431
  167TMC2    H5 2595   1.093   1.242  13.381
  168MPD2     C 2596   1.512   1.838  12.893
  168MPD2    C1 2597   1.539   1.711  12.865
  168MPD2    C2 2598   1.619   1.689  12.757
  168MPD2    C3 2599   1.685   1.787  12.687
  168MPD2    C4 2600   1.682   1.912  12.742
  168MPD2    C5 2601   1.599   1.938  12.845
  168MPD2     H 2602   1.622   1.583  12.732
  168MPD2    H1 2603   1.737   1.993  12.696
  168MPD2    H2 2604   1.446   1.871  12.972
  168MPD2    H3 2605   1.594   2.039  12.884
  168MPD2     N 2606   1.768   1.765  12.571
  168MPD2    H5 2607   1.853   1.819  12.563
  168MPD2    N1 2608   1.472   1.604  12.925
  168MPD2    H7 2609   1.503   1.508  12.919
  169MPD1     C 2610   3.922   1.113   8.797
  169MPD1    C1 2611   4.017   1.058   8.881
  169MPD1    C2 2612   3.982   1.048   9.017
  169MPD1    C3 2613   3.849   1.073   9.057
  169MPD1    C4 2614   3.755   1.126   8.967
  169MPD1    C5 2615   3.797   1.152   8.843
  169MPD1     H 2616   4.050   1.023   9.098
  169MPD1    H1 2617   3.658   1.165   8.996
  169MPD1    H2 2618   3.937   1.131   8.691
  169MPD1    H3 2619   3.729   1.198   8.772
  169MPD1     N 2620   3.816   1.052   9.190
  169MPD1    H5 2621   3.885   1.024   9.260
  169MPD1    N1 2622   4.142   1.031   8.826
  169MPD1    H6 2623   4.139   1.027   8.724
  169MPD1    H7 2624   4.170   0.938   8.856
  170MPD1     C 2625   2.723   3.322  13.377
  170MPD1    C1 2626   2.772   3.450  13.403
  170MPD1    C2 2627   2.717   3.525  13.505
  170MPD1    C3 2628   2.622   3.475  13.583
  170MPD1    C4 2629   2.575   3.349  13.560
  170MPD1    C5 2630   2.625   3.273  13.456
  170MPD1     H 2631   2.751   3.627  13.517
  170MPD1    H1 2632   2.509   3.297  13.629
  170MPD1    H2 2633   2.767   3.256  13.304
  170MPD1    H3 2634   2.584   3.174  13.438
  170MPD1     N 2635   2.558   3.564  13.680
  170MPD1    H5 2636   2.601   3.656  13.680
  170MPD1    N1 2637   2.847   3.510  13.299
  170MPD1    H6 2638   2.911   3.445  13.253
  170MPD1    H7 2639   2.894   3.592  13.336
  171MPD1     C 2640   1.122   0.076  15.595
  171MPD1    C1 2641   1.093   4.730  15.558
  171MPD1    C2 2642   1.132   4.623  15.641
  171MPD1    C3 2643   1.207   4.656  15.757
  171MPD1    C4 2644   1.242   0.004  15.785
  171MPD1    C5 2645   1.197   0.105  15.703
  171MPD1     H 2646   1.107   4.520  15.620
  171MPD1    H1 2647   1.293   0.041  15.874
  171MPD1    H2 2648   1.096   0.151  15.521
  171MPD1    H3 2649   1.218   0.209  15.723
  171MPD1     N 2650   1.240   4.560  15.856
  171MPD1    H5 2651   1.269   4.583  15.950
  171MPD1    N1 2652   1.022   4.703  15.445
  171MPD1    H6 2653   0.996   0.005  15.390
  171MPD1    H7 2654   1.059   4.632  15.382
  172MPD1     C 2655   0.568   3.689  18.044
  172MPD1    C1 2656   0.557   3.807  17.970
  172MPD1    C2 2657   0.533   3.925  18.041
  172MPD1    C3 2658   0.495   3.917  18.175
  172MPD1    C4 2659   0.500   3.793  18.242
  172MPD1    C5 2660   0.535   3.681  18.171
  172MPD1     H 2661   0.537   4.017  17.984
  172MPD1    H1 2662   0.480   3.789  18.349
  172MPD1    H2 2663   0.586   3.599  17.986
  172MPD1    H3 2664   0.532   3.581  18.212
  172MPD1     N 2665   0.466   4.026  18.263
  172MPD1    H5 2666   0.458   4.011  18.363
  172MPD1    N1 2667   0.613   3.819  17.843
  172MPD1    H6 2668   0.617   3.728  17.798
  172MPD1    H7 2669   0.565   3.885  17.782
  173MPD1     C 2670   1.553   4.356  14.592
  173MPD1    C1 2671   1.447   4.348  14.507
  173MPD1    C2 2672   1.386   4.229  14.500
  173MPD1    C3 2673   1.405   4.134  14.598
  173MPD1    C4 2674   1.502   4.150  14.694
  173MPD1    C5 2675   1.589   4.253  14.678
  173MPD1     H 2676   1.310   4.212  14.425
  173MPD1    H1 2677   1.526   4.083  14.776
  173MPD1    H2 2678   1.617   4.443  14.589
  173MPD1    H3 2679   1.674   4.261  14.745
  173MPD1     N 2680   1.326   4.019  14.603
  173MPD1    H5 2681   1.254   4.021  14.531
  173MPD1    N1 2682   1.425   4.450  14.412
  173MPD1    H6 2683   1.454   4.545  14.433
  173MPD1    H7 2684   1.336   4.454  14.363
  174MPD1     C 2685   1.893   3.466  14.688
  174MPD1    C1 2686   1.812   3.436  14.791
  174MPD1    C2 2687   1.677   3.427  14.760
  174MPD1    C3 2688   1.634   3.482  14.633
  174MPD1    C4 2689   1.719   3.521  14.536
  174MPD1    C5 2690   1.852   3.514  14.573
  174MPD1     H 2691   1.610   3.394  14.838
  174MPD1    H1 2692   1.681   3.562  14.443
  174MPD1    H2 2693   2.001   3.463  14.700
  174MPD1    H3 2694   1.926   3.547  14.501
  174MPD1     N 2695   1.502   3.518  14.604
  174MPD1    H5 2696   1.493   3.568  14.516
  174MPD1    N1 2697   1.866   3.358  14.900
  174MPD1    H6 2698   1.962   3.368  14.931
  174MPD1    H7 2699   1.798   3.347  14.975
  175MPD1     C 2700   0.152   4.617  15.742
  175MPD1    C1 2701   0.017   4.608  15.751
  175MPD1    C2 2702   4.738   4.648  15.868
  175MPD1    C3 2703   0.040   4.686  15.973
  175MPD1    C4 2704   0.176   4.702  15.955
  175MPD1    C5 2705   0.235   4.671  15.838
  175MPD1     H 2706   4.631   4.642  15.882
  175MPD1    H1 2707   0.230   4.749  16.037
  175MPD1    H2 2708   0.209   4.576  15.659
  175MPD1    H3 2709   0.343   4.672  15.835
  175MPD1     N 2710   4.770   4.707  16.096
  175MPD1    H5 2711   0.055   4.756  16.155
  175MPD1    N1 2712   4.715   4.548  15.650
  175MPD1    H6 2713   4.633   4.606  15.635
  175MPD1    H7 2714   4.750   4.533  15.555
  176MPD1     C 2715   1.559   1.746  17.352
  176MPD1    C1 2716   1.572   1.846  17.261
  176MPD1    C2 2717   1.581   1.970  17.305
  176MPD1    C3 2718   1.562   2.003  17.440
  176MPD1    C4 2719   1.525   1.901  17.528
  176MPD1    C5 2720   1.519   1.776  17.480
  176MPD1     H 2721   1.609   2.061  17.252
  176MPD1    H1 2722   1.504   1.913  17.634
  176MPD1    H2 2723   1.569   1.640  17.330
  176MPD1    H3 2724   1.485   1.699  17.548
  176MPD1     N 2725   1.550   2.137  17.471
  176MPD1    H5 2726   1.586   2.198  17.398
  176MPD1    N1 2727   1.631   1.817  17.137
  176MPD1    H6 2728   1.617   1.895  17.072
  176MPD1    H7 2729   1.608   1.726  17.097
  177MPD1     C 2730   4.741   2.140  10.416
  177MPD1    C1 2731   4.634   2.070  10.369
  177MPD1    C2 2732   4.554   2.140  10.283
  177MPD1    C3 2733   4.581   2.265  10.229
  177MPD1    C4 2734   4.691   2.327  10.277
  177MPD1    C5 2735   4.769   2.268  10.373
  177MPD1     H 2736   4.460   2.100  10.248
  177MPD1    H1 2737   4.735   2.418  10.237
  177MPD1    H2 2738   0.020   2.095  10.494
  177MPD1    H3 2739   0.070   2.325  10.417
  177MPD1     N 2740   4.508   2.314  10.115
  177MPD1    H5 2741   4.437   2.257  10.071
  177MPD1    N1 2742   4.596   1.951  10.427
  177MPD1    H6 2743   4.553   1.892  10.357
  177MPD1    H7 2744   4.680   1.906  10.461
  178MPD1     C 2745   2.333   2.885  18.059
  178MPD1    C1 2746   2.236   2.828  17.979
  178MPD1    C2 2747   2.276   2.776  17.857
  178MPD1    C3 2748   2.411   2.799  17.815
  178MPD1    C4 2749   2.498   2.855  17.899
  178MPD1    C5 2750   2.462   2.902  18.021
  178MPD1     H 2751   2.201   2.738  17.789
  178MPD1    H1 2752   2.601   2.865  17.867
  178MPD1    H2 2753   2.298   2.914  18.157
  178MPD1    H3 2754   2.528   2.942  18.097
  178MPD1     N 2755   2.469   2.740  17.696
  178MPD1    H5 2756   2.557   2.780  17.664
  178MPD1    N1 2757   2.116   2.779  18.026
  178MPD1    H6 2758   2.048   2.770  17.950
  178MPD1    H7 2759   2.082   2.832  18.106
  179MPD1     C 2760   2.375   1.174  16.092
  179MPD1    C1 2761   2.383   1.097  15.978
  179MPD1    C2 2762   2.326   0.972  15.979
  179MPD1    C3 2763   2.251   0.926  16.087
  179MPD1    C4 2764   2.246   1.004  16.198
  179MPD1    C5 2765   2.304   1.130  16.201
  179MPD1     H 2766   2.344   0.909  15.892
  179MPD1    H1 2767   2.183   0.976  16.282
  179MPD1    H2 2768   2.417   1.272  16.113
  179MPD1    H3 2769   2.298   1.202  16.282
  179MPD1     N 2770   2.194   0.796  16.092
  179MPD1    H5 2771   2.162   0.761  16.182
  179MPD1    N1 2772   2.425   1.155  15.858
  179MPD1    H6 2773   2.462   1.087  15.792
  179MPD1    H7 2774   2.476   1.243  15.857
  180MPD1     C 2775   1.885   2.210  15.018
  180MPD1    C1 2776   1.944   2.260  14.900
  180MPD1    C2 2777   1.857   2.322  14.813
  180MPD1    C3 2778   1.722   2.319  14.840
  180MPD1    C4 2779   1.664   2.242  14.935
  180MPD1    C5 2780   1.748   2.198  15.032
  180MPD1     H 2781   1.901   2.379  14.732
  180MPD1    H1 2782   1.560   2.217  14.951
  180MPD1    H2 2783   1.954   2.177  15.094
  180MPD1    H3 2784   1.704   2.142  15.114
  180MPD1     N 2785   1.644   2.360  14.726
  180MPD1    H5 2786   1.701   2.387  14.647
  180MPD1    N1 2787   2.086   2.270  14.894
  180MPD1    H6 2788   2.120   2.290  14.800
  180MPD1    H7 2789   2.141   2.196  14.937
  181MPD1     C 2790   3.150   3.894   9.939
  181MPD1    C1 2791   3.135   4.030   9.963
  181MPD1    C2 2792   3.223   4.093  10.045
  181MPD1    C3 2793   3.326   4.020  10.102
  181MPD1    C4 2794   3.348   3.896  10.066
  181MPD1    C5 2795   3.259   3.827   9.986
  181MPD1     H 2796   3.198   4.193  10.079
  181MPD1    H1 2797   3.439   3.849  10.102
  181MPD1    H2 2798   3.095   3.840   9.863
  181MPD1    H3 2799   3.259   3.719   9.977
  181MPD1     N 2800   3.422   4.074  10.189
  181MPD1    H5 2801   3.505   4.017  10.201
  181MPD1    N1 2802   3.060   4.106   9.881
  181MPD1    H6 2803   2.979   4.060   9.840
  181MPD1    H7 2804   3.031   4.194   9.923
  182MPD1     C 2805   4.058   3.399  19.398
  182MPD1    C1 2806   4.045   3.265  19.364
  182MPD1    C2 2807   4.071   3.237  19.234
  182MPD1    C3 2808   4.115   3.328  19.139
  182MPD1    C4 2809   4.121   3.457  19.175
  182MPD1    C5 2810   4.083   3.493  19.301
  182MPD1     H 2811   4.063   3.134  19.203
  182MPD1    H1 2812   4.137   3.532  19.098
  182MPD1    H2 2813   4.055   3.436  19.500
  182MPD1    H3 2814   4.088   3.594  19.339
  182MPD1     N 2815   4.163   3.293  19.012
  182MPD1    H5 2816   4.177   3.372  18.949
  182MPD1    N1 2817   4.025   3.167  19.465
  182MPD1    H6 2818   3.996   3.214  19.550
  182MPD1    H7 2819   3.953   3.101  19.437
  183MPD1     C 2820   0.294   3.801   9.265
  183MPD1    C1 2821   0.380   3.776   9.368
  183MPD1    C2 2822   0.369   3.855   9.479
  183MPD1    C3 2823   0.275   3.952   9.490
  183MPD1    C4 2824   0.202   3.984   9.376
  183MPD1    C5 2825   0.215   3.912   9.262
  183MPD1     H 2826   0.423   3.823   9.567
  183MPD1    H1 2827   0.139   4.072   9.372
  183MPD1    H2 2828   0.309   3.743   9.175
  183MPD1    H3 2829   0.160   3.945   9.174
  183MPD1     N 2830   0.268   4.022   9.616
  183MPD1    H5 2831   0.317   3.976   9.692
  183MPD1    N1 2832   0.443   3.655   9.373
  183MPD1    H6 2833   0.484   3.614   9.289
  183MPD1    H7 2834   0.509   3.645   9.450
  184MPD1     C 2835   3.760   1.632  10.468
  184MPD1    C1 2836   3.683   1.597  10.355
  184MPD1    C2 2837   3.687   1.685  10.249
  184MPD1    C3 2838   3.748   1.810  10.261
  184MPD1    C4 2839   3.819   1.837  10.369
  184MPD1    C5 2840   3.823   1.753  10.476
  184MPD1     H 2841   3.636   1.657  10.157
  184MPD1    H1 2842   3.853   1.937  10.391
  184MPD1    H2 2843   3.787   1.557  10.542
  184MPD1    H3 2844   3.889   1.778  10.558
  184MPD1     N 2845   3.756   1.906  10.155
  184MPD1    H5 2846   3.798   1.994  10.184
  184MPD1    N1 2847   3.643   1.466  10.342
  184MPD1    H6 2848   3.634   1.429  10.436
  184MPD1    H7 2849   3.564   1.444  10.281
  185MPD1     C 2850   3.664   2.160   9.072
  185MPD1    C1 2851   3.646   2.048   9.146
  185MPD1    C2 2852   3.684   2.046   9.278
  185MPD1    C3 2853   3.711   2.159   9.348
  185MPD1    C4 2854   3.716   2.276   9.275
  185MPD1    C5 2855   3.698   2.276   9.139
  185MPD1     H 2856   3.706   1.949   9.321
  185MPD1    H1 2857   3.736   2.369   9.326
  185MPD1    H2 2858   3.656   2.169   8.964
  185MPD1    H3 2859   3.700   2.370   9.085
  185MPD1     N 2860   3.739   2.170   9.490
  185MPD1    H5 2861   3.787   2.253   9.524
  185MPD1    N1 2862   3.633   1.918   9.082
  185MPD1    H6 2863   3.580   1.923   8.995
  185MPD1    H7 2864   3.583   1.853   9.142
  186MPD1     C 2865   2.640   0.532  16.096
  186MPD1    C1 2866   2.720   0.641  16.066
  186MPD1    C2 2867   2.706   0.758  16.136
  186MPD1    C3 2868   2.599   0.773  16.228
  186MPD1    C4 2869   2.518   0.662  16.255
  186MPD1    C5 2870   2.537   0.545  16.189
  186MPD1     H 2871   2.775   0.838  16.114
  186MPD1    H1 2872   2.441   0.662  16.331
  186MPD1    H2 2873   2.648   0.439  16.041
  186MPD1    H3 2874   2.479   0.456  16.211
  186MPD1     N 2875   2.561   0.898  16.286
  186MPD1    H5 2876   2.518   0.882  16.376
  186MPD1    N1 2877   2.842   0.610  15.996
  186MPD1    H6 2878   2.884   0.678  15.933
  186MPD1    H7 2879   2.818   0.529  15.939
  187MPD1     C 2880   2.078   3.036  18.232
  187MPD1    C1 2881   1.961   2.973  18.211
  187MPD1    C2 2882   1.877   3.011  18.110
  187MPD1    C3 2883   1.919   3.117  18.027
  187MPD1    C4 2884   2.036   3.183  18.054
  187MPD1    C5 2885   2.115   3.146  18.154
  187MPD1     H 2886   1.792   2.946  18.090
  187MPD1    H1 2887   2.077   3.258  17.987
  187MPD1    H2 2888   2.151   3.006  18.307
  187MPD1    H3 2889   2.211   3.197  18.161
  187MPD1     N 2890   1.858   3.142  17.903
  187MPD1    H5 2891   1.886   3.227  17.855
  187MPD1    N1 2892   1.938   2.849  18.276
  187MPD1    H6 2893   1.985   2.845  18.366
  187MPD1    H7 2894   1.838   2.833  18.286
  188MPD1     C 2895   1.166   3.387   9.797
  188MPD1    C1 2896   1.042   3.330   9.805
  188MPD1    C2 2897   1.033   3.196   9.803
  188MPD1    C3 2898   1.142   3.113   9.797
  188MPD1    C4 2899   1.267   3.177   9.806
  188MPD1    C5 2900   1.275   3.309   9.793
  188MPD1     H 2901   0.932   3.158   9.807
  188MPD1    H1 2902   1.358   3.121   9.788
  188MPD1    H2 2903   1.181   3.492   9.776
  188MPD1    H3 2904   1.372   3.355   9.809
  188MPD1     N 2905   1.142   2.972   9.771
  188MPD1    H5 2906   1.231   2.923   9.780
  188MPD1    N1 2907   0.927   3.411   9.795
  188MPD1    H6 2908   0.849   3.378   9.851
  188MPD1    H7 2909   0.943   3.506   9.828
  189MPD1     C 2910   3.477   3.676  18.730
  189MPD1    C1 2911   3.513   3.811  18.723
  189MPD1    C2 2912   3.438   3.897  18.649
  189MPD1    C3 2913   3.314   3.854  18.601
  189MPD1    C4 2914   3.274   3.723  18.612
  189MPD1    C5 2915   3.357   3.633  18.672
  189MPD1     H 2916   3.458   4.003  18.657
  189MPD1    H1 2917   3.178   3.693  18.571
  189MPD1    H2 2918   3.533   3.592  18.769
  189MPD1    H3 2919   3.335   3.527  18.673
  189MPD1     N 2920   3.228   3.953  18.530
  189MPD1    H5 2921   3.254   4.051  18.538
  189MPD1    N1 2922   3.638   3.851  18.763
  189MPD1    H6 2923   3.688   3.781  18.817
  189MPD1    H7 2924   3.644   3.949  18.789
  190MPD1     C 2925   1.713   1.961  15.770
  190MPD1    C1 2926   1.771   1.988  15.894
  190MPD1    C2 2927   1.888   2.057  15.899
  190MPD1    C3 2928   1.966   2.078  15.785
  190MPD1    C4 2929   1.920   2.035  15.663
  190MPD1    C5 2930   1.788   1.982  15.659
  190MPD1     H 2931   1.922   2.087  15.997
  190MPD1    H1 2932   1.962   2.052  15.564
  190MPD1    H2 2933   1.610   1.929  15.756
  190MPD1    H3 2934   1.744   1.966  15.561
  190MPD1     N 2935   2.095   2.131  15.803
  190MPD1    H5 2936   2.125   2.150  15.898
  190MPD1    N1 2937   1.689   1.987  16.010
  190MPD1    H6 2938   1.610   1.923  15.999
  190MPD1    H7 2939   1.737   1.978  16.099
  191MPD1     C 2940   1.840   3.987  13.367
  191MPD1    C1 2941   1.721   3.915  13.363
  191MPD1    C2 2942   1.645   3.910  13.240
  191MPD1    C3 2943   1.693   3.979  13.126
  191MPD1    C4 2944   1.812   4.051  13.137
  191MPD1    C5 2945   1.883   4.049  13.254
  191MPD1     H 2946   1.568   3.835  13.230
  191MPD1    H1 2947   1.851   4.107  13.053
  191MPD1    H2 2948   1.899   3.983  13.458
  191MPD1    H3 2949   1.969   4.113  13.266
  191MPD1     N 2950   1.620   3.973  13.005
  191MPD1    H5 2951   1.532   3.922  13.001
  191MPD1    N1 2952   1.698   3.811  13.461
  191MPD1    H6 2953   1.745   3.835  13.548
  191MPD1    H7 2954   1.598   3.795  13.472
  192MPD1     C 2955   0.853   4.422  12.979
  192MPD1    C1 2956   0.906   4.465  12.858
  192MPD1    C2 2957   1.021   4.407  12.804
  192MPD1    C3 2958   1.086   4.303  12.871
  192MPD1    C4 2959   1.034   4.261  12.988
  192MPD1    C5 2960   0.924   4.321  13.040
  192MPD1     H 2961   1.061   4.447  12.712
  192MPD1    H1 2962   1.083   4.186  13.048
  192MPD1    H2 2963   0.769   4.462  13.035
  192MPD1    H3 2964   0.883   4.284  13.133
  192MPD1     N 2965   1.200   4.229  12.829
  192MPD1    H5 2966   1.252   4.179  12.900
  192MPD1    N1 2967   0.843   4.576  12.797
  192MPD1    H6 2968   0.752   4.606  12.831
  192MPD1    H7 2969   0.832   4.557  12.698
  193MPD1     C 2970   0.960   4.334  16.366
  193MPD1    C1 2971   0.939   4.455  16.428
  193MPD1    C2 2972   1.028   4.497  16.528
  193MPD1    C3 2973   1.124   4.409  16.576
  193MPD1    C4 2974   1.128   4.284  16.515
  193MPD1    C5 2975   1.047   4.245  16.416
  193MPD1     H 2976   1.020   4.598  16.567
  193MPD1    H1 2977   1.206   4.214  16.543
  193MPD1    H2 2978   0.893   4.301  16.287
  193MPD1    H3 2979   1.063   4.146  16.374
  193MPD1     N 2980   1.219   4.449  16.676
  193MPD1    H5 2981   1.302   4.391  16.689
  193MPD1    N1 2982   0.850   4.544  16.372
  193MPD1    H6 2983   0.766   4.500  16.335
  193MPD1    H7 2984   0.822   4.615  16.439
  194MPD1     C 2985   3.550   2.239  17.205
  194MPD1    C1 2986   3.519   2.129  17.133
  194MPD1    C2 2987   3.602   2.022  17.146
  194MPD1    C3 2988   3.724   2.033  17.213
  194MPD1    C4 2989   3.768   2.147  17.281
  194MPD1    C5 2990   3.672   2.250  17.276
  194MPD1     H 2991   3.577   1.928  17.098
  194MPD1    H1 2992   3.861   2.142  17.337
  194MPD1    H2 2993   3.474   2.316  17.214
  194MPD1    H3 2994   3.688   2.342  17.331
  194MPD1     N 2995   3.817   1.923  17.227
  194MPD1    H5 2996   3.903   1.953  17.272
  194MPD1    N1 2997   3.391   2.112  17.083
  194MPD1    H6 2998   3.347   2.201  17.060
  194MPD1    H7 2999   3.372   2.054  17.001
  195MPD1     C 3000   1.303   4.067  18.493
  195MPD1    C1 3001   1.175   4.016  18.473
  195MPD1    C2 3002   1.162   3.888  18.420
  195MPD1    C3 3003   1.277   3.816  18.382
  195MPD1    C4 3004   1.399   3.871  18.395
  195MPD1    C5 3005   1.416   3.999  18.452
  195MPD1     H 3006   1.069   3.834  18.407
  195MPD1    H1 3007   1.488   3.817  18.365
  195MPD1    H2 3008   1.328   4.161  18.542
  195MPD1    H3 3009   1.512   4.048  18.456
  195MPD1     N 3010   1.270   3.692  18.315
  195MPD1    H5 3011   1.355   3.652  18.277
  195MPD1    N1 3012   1.055   4.066  18.536
  195MPD1    H6 3013   0.972   4.050  18.479
  195MPD1    H7 3014   1.062   4.167  18.532
  196MPD1     C 3015   4.612   2.376  18.790
  196MPD1    C1 3016   4.726   2.348  18.723
  196MPD1    C2 3017   0.060   2.407  18.757
  196MPD1    C3 3018   0.072   2.490  18.867
  196MPD1    C4 3019   4.739   2.520  18.938
  196MPD1    C5 3020   4.623   2.457  18.902
  196MPD1     H 3021   0.146   2.391  18.692
  196MPD1    H1 3022   4.737   2.580  19.029
  196MPD1    H2 3023   4.513   2.337  18.767
  196MPD1    H3 3024   4.528   2.481  18.947
  196MPD1     N 3025   0.190   2.566  18.890
  196MPD1    H5 3026   0.214   2.595  18.984
  196MPD1    N1 3027   4.716   2.291  18.598
  196MPD1    H6 3028   4.634   2.233  18.584
  196MPD1    H7 3029   0.015   2.229  18.585
  197MPD1     C 3030   0.166   0.588  18.015
  197MPD1    C1 3031   0.057   0.667  17.988
  197MPD1    C2 3032   0.019   0.688  17.852
  197MPD1    C3 3033   0.091   0.626  17.747
  197MPD1    C4 3034   0.199   0.546  17.781
  197MPD1    C5 3035   0.232   0.529  17.914
  197MPD1     H 3036   4.711   0.750  17.837
  197MPD1    H1 3037   0.260   0.513  17.697
  197MPD1    H2 3038   0.209   0.575  18.114
  197MPD1    H3 3039   0.322   0.473  17.934
  197MPD1     N 3040   0.075   0.647  17.606
  197MPD1    H5 3041   0.142   0.619  17.536
  197MPD1    N1 3042   0.002   0.743  18.090
  197MPD1    H6 3043   4.683   0.766  18.089
  197MPD1    H7 3044   0.023   0.721  18.187
  198MPD1     C 3045   2.064   2.827  15.713
  198MPD1    C1 3046   1.931   2.866  15.726
  198MPD1    C2 3047   1.899   2.948  15.834
  198MPD1    C3 3048   1.990   2.973  15.940
  198MPD1    C4 3049   2.119   2.928  15.925
  198MPD1    C5 3050   2.151   2.858  15.812
  198MPD1     H 3051   1.800   2.992  15.828
  198MPD1    H1 3052   2.200   2.954  15.993
  198MPD1    H2 3053   2.109   2.785  15.623
  198MPD1    H3 3054   2.253   2.828  15.791
  198MPD1     N 3055   1.947   3.062  16.044
  198MPD1    H5 3056   1.857   3.110  16.041
  198MPD1    N1 3057   1.841   2.869  15.620
  198MPD1    H6 3058   1.870   2.791  15.562
  198MPD1    H7 3059   1.747   2.844  15.650
  199MPD1     C 3060   3.933   4.283  10.080
  199MPD1    C1 3061   3.971   4.408  10.129
  199MPD1    C2 3062   3.870   4.504  10.124
  199MPD1    C3 3063   3.755   4.489  10.048
  199MPD1    C4 3064   3.730   4.366   9.990
  199MPD1    C5 3065   3.818   4.267  10.010
  199MPD1     H 3066   3.895   4.597  10.173
  199MPD1    H1 3067   3.636   4.356   9.937
  199MPD1    H2 3068   4.000   4.199  10.091
  199MPD1    H3 3069   3.788   4.171   9.970
  199MPD1     N 3070   3.662   4.591  10.024
  199MPD1    H5 3071   3.589   4.566   9.958
  199MPD1    N1 3072   4.076   4.427  10.219
  199MPD1    H6 3073   4.155   4.367  10.196
  199MPD1    H7 3074   4.114   4.521  10.208
  200MPD1     C 3075   2.631   4.462  15.261
  200MPD1    C1 3076   2.630   4.467  15.122
  200MPD1    C2 3077   2.753   4.483  15.058
  200MPD1    C3 3078   2.872   4.471  15.130
  200MPD1    C4 3079   2.869   4.457  15.268
  200MPD1    C5 3080   2.751   4.449  15.328
  200MPD1     H 3081   2.759   4.498  14.951
  200MPD1    H1 3082   2.963   4.455  15.321
  200MPD1    H2 3083   2.542   4.466  15.322
  200MPD1    H3 3084   2.756   4.436  15.436
  200MPD1     N 3085   2.991   4.480  15.055
  200MPD1    H5 3086   2.966   4.506  14.960
  200MPD1    N1 3087   2.517   4.515  15.053
  200MPD1    H6 3088   2.434   4.461  15.077
  200MPD1    H7 3089   2.530   4.495  14.954
  201MPD1     C 3090   0.305   4.145  13.773
  201MPD1    C1 3091   0.210   4.044  13.781
  201MPD1    C2 3092   0.266   3.918  13.818
  201MPD1    C3 3093   0.402   3.898  13.835
  201MPD1    C4 3094   0.494   3.992  13.798
  201MPD1    C5 3095   0.441   4.117  13.777
  201MPD1     H 3096   0.204   3.834  13.848
  201MPD1    H1 3097   0.598   3.978  13.769
  201MPD1    H2 3098   0.273   4.246  13.750
  201MPD1    H3 3099   0.513   4.194  13.752
  201MPD1     N 3100   0.431   3.764  13.866
  201MPD1    H5 3101   0.354   3.702  13.889
  201MPD1    N1 3102   0.071   4.060  13.787
  201MPD1    H6 3103   0.021   3.974  13.766
  201MPD1    H7 3104   0.039   4.131  13.721
  202MPD1     C 3105   0.129   3.107   9.421
  202MPD1    C1 3106   0.180   2.991   9.473
  202MPD1    C2 3107   0.223   2.989   9.606
  202MPD1    C3 3108   0.247   3.107   9.681
  202MPD1    C4 3109   0.189   3.226   9.629
  202MPD1    C5 3110   0.127   3.223   9.502
  202MPD1     H 3111   0.280   2.903   9.639
  202MPD1    H1 3112   0.190   3.324   9.674
  202MPD1    H2 3113   0.075   3.114   9.327
  202MPD1    H3 3114   0.086   3.315   9.462
  202MPD1     N 3115   0.309   3.121   9.807
  202MPD1    H5 3116   0.321   3.215   9.842
  202MPD1    N1 3117   0.166   2.877   9.401
  202MPD1    H6 3118   0.232   2.805   9.429
  202MPD1    H7 3119   0.179   2.893   9.301
  203MPD1     C 3120   3.908   4.221  12.937
  203MPD1    C1 3121   3.997   4.168  12.858
  203MPD1    C2 3122   4.062   4.055  12.892
  203MPD1    C3 3123   4.034   3.991  13.013
  203MPD1    C4 3124   3.943   4.045  13.094
  203MPD1    C5 3125   3.876   4.160  13.059
  203MPD1     H 3126   4.131   4.002  12.827
  203MPD1    H1 3127   3.911   3.995  13.185
  203MPD1    H2 3128   3.849   4.310  12.921
  203MPD1    H3 3129   3.803   4.191  13.132
  203MPD1     N 3130   4.099   3.867  13.038
  203MPD1    H5 3131   4.154   3.826  12.964
  203MPD1    N1 3132   4.008   4.220  12.724
  203MPD1    H6 3133   4.099   4.189  12.690
  203MPD1    H7 3134   4.009   4.322  12.723
  204MPD1     C 3135   3.620   0.441  18.342
  204MPD1    C1 3136   3.738   0.449  18.280
  204MPD1    C2 3137   3.796   0.342  18.218
  204MPD1    C3 3138   3.725   0.221  18.214
  204MPD1    C4 3139   3.608   0.208  18.283
  204MPD1    C5 3140   3.554   0.320  18.348
  204MPD1     H 3141   3.891   0.337  18.166
  204MPD1    H1 3142   3.551   0.116  18.284
  204MPD1    H2 3143   3.599   0.528  18.404
  204MPD1    H3 3144   3.465   0.314  18.409
  204MPD1     N 3145   3.789   0.124  18.134
  204MPD1    H5 3146   3.856   0.157  18.065
  204MPD1    N1 3147   3.822   0.560  18.301
  204MPD1    H6 3148   3.900   0.577  18.238
  204MPD1    H7 3149   3.762   0.642  18.308
  205MPD1     C 3150   4.037   3.940  16.935
  205MPD1    C1 3151   4.057   3.807  16.970
  205MPD1    C2 3152   3.989   3.758  17.077
  205MPD1    C3 3153   3.911   3.840  17.153
  205MPD1    C4 3154   3.905   3.977  17.126
  205MPD1    C5 3155   3.967   4.027  17.018
  205MPD1     H 3156   3.995   3.651  17.094
  205MPD1    H1 3157   3.846   4.045  17.187
  205MPD1    H2 3158   4.071   3.995  16.848
  205MPD1    H3 3159   3.941   4.123  16.974
  205MPD1     N 3160   3.836   3.807  17.269
  205MPD1    H5 3161   3.793   3.882  17.323
  205MPD1    N1 3162   4.128   3.727  16.885
  205MPD1    H6 3163   4.201   3.783  16.841
  205MPD1    H7 3164   4.147   3.633  16.918
  206MPD1     C 3165   4.398   2.272  17.155
  206MPD1    C1 3166   4.396   2.229  17.029
  206MPD1    C2 3167   4.278   2.193  16.969
  206MPD1    C3 3168   4.160   2.235  17.016
  206MPD1    C4 3169   4.160   2.307  17.136
  206MPD1    C5 3170   4.276   2.320  17.206
  206MPD1     H 3171   4.274   2.137  16.876
  206MPD1    H1 3172   4.066   2.342  17.178
  206MPD1    H2 3173   4.486   2.291  17.215
  206MPD1    H3 3174   4.276   2.377  17.298
  206MPD1     N 3175   4.027   2.206  16.965
  206MPD1    H5 3176   3.952   2.236  17.027
  206MPD1    N1 3177   4.507   2.172  16.973
  206MPD1    H6 3178   4.498   2.161  16.872
  206MPD1    H7 3179   4.594   2.221  16.992
  207MPD1     C 3180   1.383   4.059  10.109
  207MPD1    C1 3181   1.461   4.170  10.082
  207MPD1    C2 3182   1.537   4.228  10.177
  207MPD1    C3 3183   1.534   4.189  10.310
  207MPD1    C4 3184   1.456   4.083  10.337
  207MPD1    C5 3185   1.381   4.021  10.241
  207MPD1     H 3186   1.601   4.311  10.148
  207MPD1    H1 3187   1.446   4.059  10.442
  207MPD1    H2 3188   1.341   3.995  10.033
  207MPD1    H3 3189   1.328   3.929  10.264
  207MPD1     N 3190   1.611   4.258  10.411
  207MPD1    H5 3191   1.614   4.214  10.503
  207MPD1    N1 3192   1.467   4.207   9.950
  207MPD1    H6 3193   1.503   4.302   9.948
  207MPD1    H7 3194   1.381   4.201   9.896
  208MPD1     C 3195   4.623   3.458  17.575
  208MPD1    C1 3196   4.653   3.400  17.697
  208MPD1    C2 3197   4.588   3.282  17.729
  208MPD1    C3 3198   4.523   3.214  17.630
  208MPD1    C4 3199   4.489   3.271  17.508
  208MPD1    C5 3200   4.536   3.398  17.484
  208MPD1     H 3201   4.599   3.247  17.831
  208MPD1    H1 3202   4.421   3.225  17.438
  208MPD1    H2 3203   4.653   3.559  17.550
  208MPD1    H3 3204   4.510   3.448  17.391
  208MPD1     N 3205   4.463   3.094  17.684
  208MPD1    H5 3206   4.480   3.094  17.784
  208MPD1    N1 3207   4.723   3.472  17.796
  208MPD1    H6 3208   0.001   3.412  17.854
  208MPD1    H7 3209   0.005   3.542  17.756
  209MPD1     C 3210   1.760   3.258  11.562
  209MPD1    C1 3211   1.820   3.291  11.442
  209MPD1    C2 3212   1.881   3.416  11.433
  209MPD1    C3 3213   1.902   3.491  11.546
  209MPD1    C4 3214   1.855   3.445  11.670
  209MPD1    C5 3215   1.782   3.329  11.674
  209MPD1     H 3216   1.931   3.435  11.339
  209MPD1    H1 3217   1.865   3.512  11.755
  209MPD1    H2 3218   1.706   3.166  11.581
  209MPD1    H3 3219   1.741   3.297  11.769
  209MPD1     N 3220   1.963   3.622  11.527
  209MPD1    H5 3221   1.988   3.658  11.436
  209MPD1    N1 3222   1.797   3.212  11.331
  209MPD1    H6 3223   1.875   3.221  11.266
  209MPD1    H7 3224   1.760   3.119  11.347
  210MPD1     C 3225   2.254   4.535  11.982
  210MPD1    C1 3226   2.345   4.435  11.962
  210MPD1    C2 3227   2.314   4.324  11.887
  210MPD1    C3 3228   2.198   4.320  11.814
  210MPD1    C4 3229   2.105   4.420  11.842
  210MPD1    C5 3230   2.133   4.517  11.925
  210MPD1     H 3231   2.395   4.255  11.867
  210MPD1    H1 3232   2.008   4.414  11.794
  210MPD1    H2 3233   2.267   4.619  12.049
  210MPD1    H3 3234   2.054   4.584  11.955
  210MPD1     N 3235   2.170   4.233  11.708
  210MPD1    H5 3236   2.084   4.249  11.657
  210MPD1    N1 3237   2.461   4.441  12.043
  210MPD1    H6 3238   2.487   4.534  12.074
  210MPD1    H7 3239   2.541   4.401  11.994
  211MPD1     C 3240   4.682   3.506  16.777
  211MPD1    C1 3241   4.693   3.633  16.719
  211MPD1    C2 3242   4.590   3.678  16.638
  211MPD1    C3 3243   4.467   3.616  16.637
  211MPD1    C4 3244   4.461   3.488  16.695
  211MPD1    C5 3245   4.569   3.440  16.759
  211MPD1     H 3246   4.605   3.773  16.589
  211MPD1    H1 3247   4.370   3.429  16.691
  211MPD1    H2 3248   4.763   3.452  16.824
  211MPD1    H3 3249   4.556   3.342  16.804
  211MPD1     N 3250   4.356   3.676  16.573
  211MPD1    H5 3251   4.375   3.773  16.551
  211MPD1    N1 3252   0.040   3.690  16.701
  211MPD1    H6 3253   0.023   3.788  16.678
  211MPD1    H7 3254   0.093   3.678  16.787
  212MPD1     C 3255   3.226   2.176  16.807
  212MPD1    C1 3256   3.155   2.210  16.918
  212MPD1    C2 3257   3.067   2.119  16.978
  212MPD1    C3 3258   3.052   1.991  16.932
  212MPD1    C4 3259   3.124   1.955  16.821
  212MPD1    C5 3260   3.217   2.044  16.768
  212MPD1     H 3261   3.017   2.157  17.066
  212MPD1    H1 3262   3.113   1.857  16.776
  212MPD1    H2 3263   3.303   2.241  16.766
  212MPD1    H3 3264   3.279   2.015  16.684
  212MPD1     N 3265   2.965   1.899  16.989
  212MPD1    H5 3266   2.964   1.806  16.948
  212MPD1    N1 3267   3.187   2.327  16.988
  212MPD1    H6 3268   3.117   2.363  17.052
  212MPD1    H7 3269   3.233   2.399  16.933
  213MPD1     C 3270   1.685   2.332  15.713
  213MPD1    C1 3271   1.690   2.443  15.621
  213MPD1    C2 3272   1.567   2.512  15.593
  213MPD1    C3 3273   1.448   2.473  15.646
  213MPD1    C4 3274   1.446   2.361  15.729
  213MPD1    C5 3275   1.564   2.295  15.763
  213MPD1     H 3276   1.578   2.595  15.524
  213MPD1    H1 3277   1.354   2.335  15.780
  213MPD1    H2 3278   1.774   2.279  15.745
  213MPD1    H3 3279   1.547   2.218  15.837
  213MPD1     N 3280   1.328   2.541  15.604
  213MPD1    H5 3281   1.339   2.629  15.554
  213MPD1    N1 3282   1.810   2.500  15.581
  213MPD1    H6 3283   1.800   2.546  15.491
  213MPD1    H7 3284   1.891   2.440  15.571
  214MPD1     C 3285   0.392   2.189  15.502
  214MPD1    C1 3286   0.464   2.192  15.387
  214MPD1    C2 3287   0.566   2.280  15.376
  214MPD1    C3 3288   0.617   2.347  15.488
  214MPD1    C4 3289   0.557   2.328  15.610
  214MPD1    C5 3290   0.443   2.250  15.616
  214MPD1     H 3291   0.612   2.303  15.281
  214MPD1    H1 3292   0.601   2.363  15.702
  214MPD1    H2 3293   0.303   2.128  15.511
  214MPD1    H3 3294   0.382   2.240  15.705
  214MPD1     N 3295   0.737   2.418  15.492
  214MPD1    H5 3296   0.765   2.459  15.580
  214MPD1    N1 3297   0.417   2.112  15.280
  214MPD1    H6 3298   0.384   2.021  15.311
  214MPD1    H7 3299   0.481   2.092  15.203
  215MPD1     C 3300   1.353   3.112  11.193
  215MPD1    C1 3301   1.419   3.093  11.310
  215MPD1    C2 3302   1.479   3.204  11.370
  215MPD1    C3 3303   1.439   3.332  11.342
  215MPD1    C4 3304   1.363   3.353  11.229
  215MPD1    C5 3305   1.329   3.241  11.154
  215MPD1     H 3306   1.533   3.187  11.463
  215MPD1    H1 3307   1.337   3.455  11.203
  215MPD1    H2 3308   1.318   3.030  11.132
  215MPD1    H3 3309   1.268   3.245  11.064
  215MPD1     N 3310   1.502   3.438  11.412
  215MPD1    H5 3311   1.531   3.419  11.507
  215MPD1    N1 3312   1.484   2.973  11.336
  215MPD1    H6 3313   1.429   2.893  11.304
  215MPD1    H7 3314   1.506   2.954  11.434
  216MPD1     C 3315   3.267   1.745  17.078
  216MPD1    C1 3316   3.279   1.609  17.048
  216MPD1    C2 3317   3.249   1.520  17.156
  216MPD1    C3 3318   3.202   1.564  17.276
  216MPD1    C4 3319   3.181   1.697  17.299
  216MPD1    C5 3320   3.224   1.791  17.203
  216MPD1     H 3321   3.265   1.413  17.148
  216MPD1    H1 3322   3.156   1.735  17.397
  216MPD1    H2 3323   3.297   1.819  17.004
  216MPD1    H3 3324   3.210   1.897  17.218
  216MPD1     N 3325   3.181   1.464  17.377
  216MPD1    H5 3326   3.187   1.369  17.343
  216MPD1    N1 3327   3.352   1.560  16.941
  216MPD1    H6 3328   3.313   1.473  16.904
  216MPD1    H7 3329   3.355   1.620  16.859
  217MPD1     C 3330   3.485   3.082   8.662
  217MPD1    C1 3331   3.447   3.200   8.712
  217MPD1    C2 3332   3.528   3.263   8.802
  217MPD1    C3 3333   3.651   3.204   8.842
  217MPD1    C4 3334   3.688   3.086   8.785
  217MPD1    C5 3335   3.611   3.033   8.694
  217MPD1     H 3336   3.509   3.365   8.834
  217MPD1    H1 3337   3.781   3.043   8.819
  217MPD1    H2 3338   3.419   3.035   8.589
  217MPD1    H3 3339   3.646   2.956   8.627
  217MPD1     N 3340   3.731   3.262   8.952
  217MPD1    H5 3341   3.827   3.229   8.944
  217MPD1    N1 3342   3.337   3.270   8.658
  217MPD1    H6 3343   3.305   3.344   8.721
  217MPD1    H7 3344   3.270   3.197   8.635
  218MPD1     C 3345   0.423   4.127  13.181
  218MPD1    C1 3346   0.505   4.216  13.119
  218MPD1    C2 3347   0.610   4.156  13.060
  218MPD1    C3 3348   0.644   4.025  13.082
  218MPD1    C4 3349   0.563   3.940  13.152
  218MPD1    C5 3350   0.448   3.995  13.204
  218MPD1     H 3351   0.675   4.212  12.993
  218MPD1    H1 3352   0.581   3.834  13.167
  218MPD1    H2 3353   0.344   4.172  13.241
  218MPD1    H3 3354   0.376   3.927  13.248
  218MPD1     N 3355   0.763   3.981  13.013
  218MPD1    H5 3356   0.819   4.051  12.966
  218MPD1    N1 3357   0.449   4.338  13.084
  218MPD1    H6 3358   0.523   4.407  13.070
  218MPD1    H7 3359   0.387   4.364  13.160
  219MPD1     C 3360   1.342   4.036  12.193
  219MPD1    C1 3361   1.261   4.116  12.266
  219MPD1    C2 3362   1.196   4.060  12.375
  219MPD1    C3 3363   1.227   3.929  12.424
  219MPD1    C4 3364   1.310   3.847  12.348
  219MPD1    C5 3365   1.358   3.904  12.227
  219MPD1     H 3366   1.134   4.126  12.433
  219MPD1    H1 3367   1.326   3.742  12.370
  219MPD1    H2 3368   1.387   4.072  12.101
  219MPD1    H3 3369   1.415   3.843  12.158
  219MPD1     N 3370   1.178   3.872  12.542
  219MPD1    H5 3371   1.234   3.793  12.572
  219MPD1    N1 3372   1.236   4.246  12.233
  219MPD1    H6 3373   1.214   4.301  12.315
  219MPD1    H7 3374   1.321   4.276  12.185
  220MPD1     C 3375   1.158   0.118  10.343
  220MPD1    C1 3376   1.165   0.168  10.467
  220MPD1    C2 3377   1.126   0.102  10.579
  220MPD1    C3 3378   1.097   4.746  10.567
  220MPD1    C4 3379   1.097   4.692  10.439
  220MPD1    C5 3380   1.125   4.769  10.327
  220MPD1     H 3381   1.121   0.153  10.675
  220MPD1    H1 3382   1.076   4.589  10.414
  220MPD1    H2 3383   1.173   0.168  10.248
  220MPD1    H3 3384   1.118   4.719  10.231
  220MPD1     N 3385   1.059   4.671  10.680
  220MPD1    H5 3386   1.071   4.721  10.767
  220MPD1    N1 3387   1.179   0.311  10.469
  220MPD1    H6 3388   1.258   0.358  10.425
  220MPD1    H7 3389   1.171   0.347  10.564
  221MPD1     C 3390   3.190   2.993  16.416
  221MPD1    C1 3391   3.251   3.007  16.546
  221MPD1    C2 3392   3.390   2.986  16.555
  221MPD1    C3 3393   3.466   2.955  16.444
  221MPD1    C4 3394   3.402   2.958  16.322
  221MPD1    C5 3395   3.264   2.984  16.304
  221MPD1     H 3396   3.426   3.014  16.653
  221MPD1    H1 3397   3.466   2.962  16.235
  221MPD1    H2 3398   3.082   3.001  16.407
  221MPD1    H3 3399   3.221   2.990  16.205
  221MPD1     N 3400   3.606   2.934  16.446
  221MPD1    H5 3401   3.656   2.921  16.358
  221MPD1    N1 3402   3.174   3.038  16.651
  221MPD1    H6 3403   3.208   3.118  16.705
  221MPD1    H7 3404   3.076   3.048  16.624
  222MPD1     C 3405   2.478   1.559  17.884
  222MPD1    C1 3406   2.512   1.634  17.771
  222MPD1    C2 3407   2.527   1.767  17.786
  222MPD1    C3 3408   2.497   1.832  17.901
  222MPD1    C4 3409   2.460   1.761  18.013
  222MPD1    C5 3410   2.450   1.624  18.004
  222MPD1     H 3411   2.558   1.823  17.699
  222MPD1    H1 3412   2.451   1.816  18.106
  222MPD1    H2 3413   2.467   1.451  17.891
  222MPD1    H3 3414   2.427   1.563  18.091
  222MPD1     N 3415   2.512   1.978  17.917
  222MPD1    H5 3416   2.492   2.019  18.007
  222MPD1    N1 3417   2.551   1.573  17.653
  222MPD1    H6 3418   2.513   1.613  17.567
  222MPD1    H7 3419   2.504   1.483  17.647
  223MPD1     C 3420   2.173   2.666  18.493
  223MPD1    C1 3421   2.277   2.734  18.439
  223MPD1    C2 3422   2.343   2.687  18.322
  223MPD1    C3 3423   2.304   2.565  18.266
  223MPD1    C4 3424   2.198   2.490  18.330
  223MPD1    C5 3425   2.134   2.551  18.432
  223MPD1     H 3426   2.421   2.743  18.273
  223MPD1    H1 3427   2.163   2.394  18.295
  223MPD1    H2 3428   2.124   2.690  18.586
  223MPD1    H3 3429   2.051   2.506  18.485
  223MPD1     N 3430   2.379   2.514  18.156
  223MPD1    H5 3431   2.430   2.586  18.105
  223MPD1    N1 3432   2.335   2.843  18.497
  223MPD1    H6 3433   2.270   2.900  18.551
  223MPD1    H7 3434   2.375   2.901  18.423
  224MPD1     C 3435   4.612   4.262   9.191
  224MPD1    C1 3436   4.551   4.339   9.288
  224MPD1    C2 3437   4.545   4.295   9.419
  224MPD1    C3 3438   4.579   4.163   9.452
  224MPD1    C4 3439   4.616   4.078   9.352
  224MPD1    C5 3440   4.641   4.135   9.224
  224MPD1     H 3441   4.518   4.366   9.496
  224MPD1    H1 3442   4.629   3.972   9.369
  224MPD1    H2 3443   4.634   4.290   9.089
  224MPD1    H3 3444   4.689   4.062   9.160
  224MPD1     N 3445   4.557   4.108   9.583
  224MPD1    H5 3446   4.569   4.009   9.602
  224MPD1    N1 3447   4.524   4.467   9.253
  224MPD1    H6 3448   4.443   4.499   9.306
  224MPD1    H7 3449   4.494   4.480   9.157
  225MPD1     C 3450   0.985   0.171  13.164
  225MPD1    C1 3451   0.963   0.041  13.118
  225MPD1    C2 3452   0.842   0.012  13.061
  225MPD1    C3 3453   0.736   0.103  13.079
  225MPD1    C4 3454   0.754   0.230  13.129
  225MPD1    C5 3455   0.882   0.267  13.165
  225MPD1     H 3456   0.819   4.699  13.012
  225MPD1    H1 3457   0.677   0.306  13.134
  225MPD1    H2 3458   1.076   0.197  13.217
  225MPD1    H3 3459   0.909   0.368  13.193
  225MPD1     N 3460   0.610   0.083  13.019
  225MPD1    H5 3461   0.553   0.167  13.020
  225MPD1    N1 3462   1.071   4.729  13.112
  225MPD1    H6 3463   1.047   4.630  13.117
  225MPD1    H7 3464   1.143   4.761  13.177
  226MPD1     C 3465   4.025   4.078   9.475
  226MPD1    C1 3466   4.139   4.133   9.517
  226MPD1    C2 3467   4.136   4.251   9.586
  226MPD1    C3 3468   4.023   4.312   9.616
  226MPD1    C4 3469   3.909   4.262   9.561
  226MPD1    C5 3470   3.909   4.143   9.495
  226MPD1     H 3471   4.232   4.290   9.617
  226MPD1    H1 3472   3.812   4.302   9.588
  226MPD1    H2 3473   4.025   3.981   9.426
  226MPD1    H3 3474   3.815   4.102   9.461
  226MPD1     N 3475   4.031   4.441   9.680
  226MPD1    H5 3476   4.122   4.468   9.715
  226MPD1    N1 3477   4.260   4.059   9.508
  226MPD1    H6 3478   4.337   4.125   9.514
  226MPD1    H7 3479   4.271   4.003   9.424
  227MPD1     C 3480   3.593   0.528   9.506
  227MPD1    C1 3481   3.515   0.426   9.538
  227MPD1    C2 3482   3.571   0.316   9.602
  227MPD1    C3 3483   3.699   0.328   9.649
  227MPD1    C4 3484   3.772   0.441   9.625
  227MPD1    C5 3485   3.721   0.542   9.551
  227MPD1     H 3486   3.513   0.232   9.637
  227MPD1    H1 3487   3.875   0.450   9.659
  227MPD1    H2 3488   3.542   0.604   9.448
  227MPD1    H3 3489   3.778   0.633   9.538
  227MPD1     N 3490   3.758   0.221   9.724
  227MPD1    H5 3491   3.708   0.132   9.722
  227MPD1    N1 3492   3.387   0.417   9.478
  227MPD1    H6 3493   3.346   0.510   9.474
  227MPD1    H7 3494   3.324   0.358   9.532
  228MPD1     C 3495   2.716   2.771  12.799
  228MPD1    C1 3496   2.608   2.781  12.719
  228MPD1    C2 3497   2.491   2.712  12.753
  228MPD1    C3 3498   2.479   2.655  12.877
  228MPD1    C4 3499   2.586   2.656  12.964
  228MPD1    C5 3500   2.705   2.708  12.917
  228MPD1     H 3501   2.411   2.693  12.682
  228MPD1    H1 3502   2.593   2.610  13.062
  228MPD1    H2 3503   2.817   2.806  12.778
  228MPD1    H3 3504   2.800   2.700  12.969
  228MPD1     N 3505   2.355   2.601  12.910
  228MPD1    H5 3506   2.286   2.587  12.837
  228MPD1    N1 3507   2.622   2.826  12.588
  228MPD1    H6 3508   2.706   2.881  12.573
  228MPD1    H7 3509   2.540   2.879  12.559
  229MPD1     C 3510   2.186   1.261  14.858
  229MPD1    C1 3511   2.149   1.261  14.989
  229MPD1    C2 3512   2.204   1.171  15.076
  229MPD1    C3 3513   2.316   1.101  15.032
  229MPD1    C4 3514   2.367   1.117  14.912
  229MPD1    C5 3515   2.300   1.197  14.828
  229MPD1     H 3516   2.152   1.151  15.169
  229MPD1    H1 3517   2.440   1.047  14.872
  229MPD1    H2 3518   2.128   1.307  14.779
  229MPD1    H3 3519   2.331   1.209  14.725
  229MPD1     N 3520   2.383   1.005  15.115
  229MPD1    H5 3521   2.469   0.964  15.079
  229MPD1    N1 3522   2.019   1.320  15.008
  229MPD1    H6 3523   1.988   1.347  15.101
  229MPD1    H7 3524   2.005   1.404  14.953
  230MPD1     C 3525   3.022   0.968  15.950
  230MPD1    C1 3526   3.043   0.853  15.877
  230MPD1    C2 3527   2.947   0.813  15.787
  230MPD1    C3 3528   2.837   0.891  15.761
  230MPD1    C4 3529   2.824   1.007  15.829
  230MPD1    C5 3530   2.914   1.051  15.919
  230MPD1     H 3531   2.944   0.710  15.755
  230MPD1    H1 3532   2.742   1.077  15.815
  230MPD1    H2 3533   3.096   1.001  16.021
  230MPD1    H3 3534   2.902   1.139  15.981
  230MPD1     N 3535   2.741   0.855  15.659
  230MPD1    H5 3536   2.777   0.777  15.605
  230MPD1    N1 3537   3.137   0.767  15.921
  230MPD1    H6 3538   3.222   0.823  15.922
  230MPD1    H7 3539   3.164   0.706  15.845
  231MPD1     C 3540   0.467   2.737  16.163
  231MPD1    C1 3541   0.377   2.774  16.061
  231MPD1    C2 3542   0.426   2.776  15.927
  231MPD1    C3 3543   0.561   2.780  15.901
  231MPD1    C4 3544   0.652   2.773  16.011
  231MPD1    C5 3545   0.600   2.741  16.131
  231MPD1     H 3546   0.355   2.794  15.847
  231MPD1    H1 3547   0.760   2.767  16.000
  231MPD1    H2 3548   0.439   2.716  16.266
  231MPD1    H3 3549   0.665   2.726  16.216
  231MPD1     N 3550   0.604   2.800  15.771
  231MPD1    H5 3551   0.520   2.801  15.715
  231MPD1    N1 3552   0.240   2.788  16.084
  231MPD1    H6 3553   0.238   2.850  16.165
  231MPD1    H7 3554   0.184   2.838  16.015
  232MPD1     C 3555   2.412   0.669  18.608
  232MPD1    C1 3556   2.421   0.620  18.481
  232MPD1    C2 3557   2.393   0.486  18.457
  232MPD1    C3 3558   2.347   0.404  18.557
  232MPD1    C4 3559   2.336   0.448  18.682
  232MPD1    C5 3560   2.369   0.582  18.706
  232MPD1     H 3561   2.406   0.447  18.357
  232MPD1    H1 3562   2.292   0.404  18.771
  232MPD1    H2 3563   2.431   0.769  18.644
  232MPD1    H3 3564   2.337   0.632  18.797
  232MPD1     N 3565   2.311   0.273  18.522
  232MPD1    H5 3566   2.298   0.253  18.423
  232MPD1    N1 3567   2.482   0.698  18.380
  232MPD1    H6 3568   2.419   0.697  18.300
  232MPD1    H7 3569   2.480   0.796  18.408
  233MPD1     C 3570   3.953   3.464  17.808
  233MPD1    C1 3571   3.903   3.407  17.917
  233MPD1    C2 3572   3.925   3.465  18.037
  233MPD1    C3 3573   3.967   3.597  18.044
  233MPD1    C4 3574   4.016   3.659  17.927
  233MPD1    C5 3575   4.010   3.590  17.813
  233MPD1     H 3576   3.899   3.406  18.124
  233MPD1    H1 3577   4.066   3.755  17.930
  233MPD1    H2 3578   3.955   3.416  17.711
  233MPD1    H3 3579   4.050   3.639  17.725
  233MPD1     N 3580   3.988   3.664  18.164
  233MPD1    H5 3581   4.026   3.758  18.156
  233MPD1    N1 3582   3.874   3.272  17.915
  233MPD1    H6 3583   3.815   3.256  17.996
  233MPD1    H7 3584   3.824   3.250  17.829
  234MPD1     C 3585   4.686   2.223   9.590
  234MPD1    C1 3586   4.647   2.307   9.489
  234MPD1    C2 3587   4.664   2.444   9.515
  234MPD1    C3 3588   4.694   2.493   9.640
  234MPD1    C4 3589   4.725   2.408   9.744
  234MPD1    C5 3590   4.716   2.275   9.715
  234MPD1     H 3591   4.650   2.511   9.431
  234MPD1    H1 3592   4.747   2.463   9.835
  234MPD1    H2 3593   4.695   2.116   9.573
  234MPD1    H3 3594   4.740   2.195   9.785
  234MPD1     N 3595   4.688   2.636   9.649
  234MPD1    H5 3596   4.660   2.674   9.559
  234MPD1    N1 3597   4.633   2.260   9.361
  234MPD1    H6 3598   4.573   2.323   9.307
  234MPD1    H7 3599   4.594   2.166   9.356
  235MPD1     C 3600   1.397   4.492  10.748
  235MPD1    C1 3601   1.374   4.494  10.610
  235MPD1    C2 3602   1.419   4.603  10.539
  235MPD1    C3 3603   1.481   4.704  10.614
  235MPD1    C4 3604   1.500   4.697  10.749
  235MPD1    C5 3605   1.463   4.586  10.811
  235MPD1     H 3606   1.401   4.603  10.432
  235MPD1    H1 3607   1.563   4.766  10.803
  235MPD1    H2 3608   1.349   4.418  10.812
  235MPD1    H3 3609   1.481   4.573  10.917
  235MPD1     N 3610   1.526   0.038  10.544
  235MPD1    H5 3611   1.503   0.042  10.445
  235MPD1    N1 3612   1.333   4.379  10.547
  235MPD1    H6 3613   1.275   4.315  10.601
  235MPD1    H7 3614   1.299   4.405  10.454
  236MPD1     C 3615   1.155   2.174  10.345
  236MPD1    C1 3616   1.042   2.100  10.385
  236MPD1    C2 3617   1.055   1.982  10.454
  236MPD1    C3 3618   1.179   1.941  10.494
  236MPD1    C4 3619   1.283   2.029  10.476
  236MPD1    C5 3620   1.276   2.138  10.397
  236MPD1     H 3621   0.974   1.910  10.461
  236MPD1    H1 3622   1.377   2.009  10.527
  236MPD1    H2 3623   1.166   2.258  10.277
  236MPD1    H3 3624   1.366   2.191  10.368
  236MPD1     N 3625   1.200   1.825  10.563
  236MPD1    H5 3626   1.297   1.796  10.573
  236MPD1    N1 3627   0.922   2.134  10.324
  236MPD1    H6 3628   0.842   2.083  10.362
  236MPD1    H7 3629   0.902   2.229  10.294
  237MPD1     C 3630   1.263   3.981  15.422
  237MPD1    C1 3631   1.210   4.093  15.489
  237MPD1    C2 3632   1.074   4.094  15.521
  237MPD1    C3 3633   0.990   3.988  15.490
  237MPD1    C4 3634   1.046   3.881  15.424
  237MPD1    C5 3635   1.178   3.877  15.400
  237MPD1     H 3636   1.046   4.185  15.573
  237MPD1    H1 3637   0.987   3.796  15.391
  237MPD1    H2 3638   1.368   3.984  15.394
  237MPD1    H3 3639   1.215   3.795  15.340
  237MPD1     N 3640   0.854   3.981  15.523
  237MPD1    H5 3641   0.808   3.911  15.466
  237MPD1    N1 3642   1.293   4.208  15.501
  237MPD1    H6 3643   1.392   4.184  15.504
  237MPD1    H7 3644   1.263   4.272  15.574
  238MPD1     C 3645   2.765   3.076  15.056
  238MPD1    C1 3646   2.724   2.968  15.135
  238MPD1    C2 3647   2.613   2.896  15.083
  238MPD1    C3 3648   2.568   2.906  14.955
  238MPD1    C4 3649   2.602   3.018  14.882
  238MPD1    C5 3650   2.702   3.093  14.935
  238MPD1     H 3651   2.577   2.814  15.143
  238MPD1    H1 3652   2.578   3.038  14.778
  238MPD1    H2 3653   2.844   3.141  15.092
  238MPD1    H3 3654   2.731   3.187  14.890
  238MPD1     N 3655   2.449   2.843  14.908
  238MPD1    H5 3656   2.431   2.868  14.811
  238MPD1    N1 3657   2.773   2.947  15.263
  238MPD1    H6 3658   2.860   2.994  15.287
  238MPD1    H7 3659   2.788   2.847  15.273
  239MPD1     C 3660   2.691   3.309  15.341
  239MPD1    C1 3661   2.792   3.353  15.269
  239MPD1    C2 3662   2.771   3.460  15.181
  239MPD1    C3 3663   2.644   3.510  15.161
  239MPD1    C4 3664   2.539   3.454  15.230
  239MPD1    C5 3665   2.568   3.354  15.319
  239MPD1     H 3666   2.848   3.489  15.110
  239MPD1    H1 3667   2.434   3.476  15.213
  239MPD1    H2 3668   2.715   3.230  15.412
  239MPD1    H3 3669   2.486   3.308  15.373
  239MPD1     N 3670   2.613   3.608  15.061
  239MPD1    H5 3671   2.513   3.617  15.045
  239MPD1    N1 3672   2.921   3.315  15.310
  239MPD1    H6 3673   2.938   3.218  15.336
  239MPD1    H7 3674   2.992   3.342  15.242
  240MPD1     C 3675   1.632   3.768  13.884
  240MPD1    C1 3676   1.539   3.683  13.938
  240MPD1    C2 3677   1.588   3.585  14.016
  240MPD1    C3 3678   1.723   3.575  14.054
  240MPD1    C4 3679   1.810   3.673  14.013
  240MPD1    C5 3680   1.766   3.750  13.909
  240MPD1     H 3681   1.521   3.503  14.036
  240MPD1    H1 3682   1.913   3.683  14.044
  240MPD1    H2 3683   1.602   3.843  13.811
  240MPD1    H3 3684   1.833   3.822  13.863
  240MPD1     N 3685   1.757   3.466  14.139
  240MPD1    H5 3686   1.679   3.405  14.160
  240MPD1    N1 3687   1.409   3.678  13.881
  240MPD1    H6 3688   1.348   3.622  13.940
  240MPD1    H7 3689   1.383   3.773  13.855
  241MPD1     C 3690   2.295   3.149  15.014
  241MPD1    C1 3691   2.347   3.219  14.911
  241MPD1    C2 3692   2.279   3.224  14.790
  241MPD1    C3 3693   2.156   3.160  14.778
  241MPD1    C4 3694   2.110   3.080  14.880
  241MPD1    C5 3695   2.179   3.080  14.995
  241MPD1     H 3696   2.311   3.285  14.706
  241MPD1    H1 3697   2.021   3.019  14.871
  241MPD1    H2 3698   2.347   3.135  15.108
  241MPD1    H3 3699   2.138   3.021  15.076
  241MPD1     N 3700   2.064   3.168  14.667
  241MPD1    H5 3701   1.967   3.146  14.685
  241MPD1    N1 3702   2.441   3.313  14.940
  241MPD1    H6 3703   2.495   3.278  15.018
  241MPD1    H7 3704   2.507   3.342  14.868
  242MPD1     C 3705   1.744   1.559  16.197
  242MPD1    C1 3706   1.872   1.606  16.212
  242MPD1    C2 3707   1.929   1.654  16.093
  242MPD1    C3 3708   1.882   1.603  15.970
  242MPD1    C4 3709   1.753   1.552  15.962
  242MPD1    C5 3710   1.683   1.539  16.077
  242MPD1     H 3711   2.021   1.710  16.104
  242MPD1    H1 3712   1.701   1.525  15.871
  242MPD1    H2 3713   1.680   1.534  16.281
  242MPD1    H3 3714   1.582   1.500  16.074
  242MPD1     N 3715   1.938   1.643  15.843
  242MPD1    H5 3716   1.901   1.599  15.760
  242MPD1    N1 3717   1.899   1.665  16.334
  242MPD1    H6 3718   1.998   1.679  16.350
  242MPD1    H7 3719   1.868   1.605  16.411
  243MPD1     C 3720   3.094   0.536  18.498
  243MPD1    C1 3721   3.081   0.414  18.430
  243MPD1    C2 3722   3.164   0.395  18.316
  243MPD1    C3 3723   3.249   0.489  18.273
  243MPD1    C4 3724   3.271   0.603  18.345
  243MPD1    C5 3725   3.193   0.623  18.455
  243MPD1     H 3726   3.144   0.301  18.266
  243MPD1    H1 3727   3.344   0.676  18.313
  243MPD1    H2 3728   3.039   0.568  18.586
  243MPD1    H3 3729   3.204   0.717  18.508
  243MPD1     N 3730   3.319   0.460  18.151
  243MPD1    H5 3731   3.292   0.373  18.106
  243MPD1    N1 3732   3.009   0.300  18.482
  243MPD1    H6 3733   2.971   0.237  18.411
  243MPD1    H7 3734   2.929   0.331  18.537
  244MPD1     C 3735   3.492   4.448  17.909
  244MPD1    C1 3736   3.414   4.518  17.996
  244MPD1    C2 3737   3.423   4.661  17.985
  244MPD1    C3 3738   3.501   4.728  17.894
  244MPD1    C4 3739   3.569   4.647  17.807
  244MPD1    C5 3740   3.573   4.509  17.817
  244MPD1     H 3741   3.368   4.718  18.059
  244MPD1    H1 3742   3.639   4.692  17.737
  244MPD1    H2 3743   3.488   4.340  17.913
  244MPD1    H3 3744   3.632   4.451  17.747
  244MPD1     N 3745   3.509   0.088  17.903
  244MPD1    H5 3746   3.439   0.128  17.964
  244MPD1    N1 3747   3.362   4.459  18.113
  244MPD1    H6 3748   3.290   4.513  18.160
  244MPD1    H7 3749   3.323   4.373  18.076
  245MPD1     C 3750   0.351   0.425  13.645
  245MPD1    C1 3751   0.391   0.431  13.782
  245MPD1    C2 3752   0.436   0.553  13.825
  245MPD1    C3 3753   0.424   0.670  13.751
  245MPD1    C4 3754   0.367   0.661  13.622
  245MPD1    C5 3755   0.341   0.535  13.569
  245MPD1     H 3756   0.484   0.555  13.922
  245MPD1    H1 3757   0.367   0.743  13.551
  245MPD1    H2 3758   0.315   0.331  13.605
  245MPD1    H3 3759   0.307   0.535  13.466
  245MPD1     N 3760   0.475   0.787  13.808
  245MPD1    H5 3761   0.508   0.768  13.902
  245MPD1    N1 3762   0.424   0.311  13.846
  245MPD1    H6 3763   0.397   0.314  13.944
  245MPD1    H7 3764   0.364   0.239  13.807
  246MPD1     C 3765   0.785   3.130   9.415
  246MPD1    C1 3766   0.717   3.022   9.359
  246MPD1    C2 3767   0.780   2.901   9.342
  246MPD1    C3 3768   0.910   2.880   9.377
  246MPD1    C4 3769   0.978   2.993   9.412
  246MPD1    C5 3770   0.918   3.111   9.441
  246MPD1     H 3771   0.721   2.820   9.301
  246MPD1    H1 3772   1.081   2.986   9.445
  246MPD1    H2 3773   0.745   3.228   9.438
  246MPD1    H3 3774   0.978   3.191   9.482
  246MPD1     N 3775   0.967   2.751   9.355
  246MPD1    H5 3776   0.904   2.678   9.324
  246MPD1    N1 3777   0.582   3.036   9.335
  246MPD1    H6 3778   0.558   3.135   9.332
  246MPD1    H7 3779   0.538   2.980   9.262
  247MPD1     C 3780   4.292   0.488  15.505
  247MPD1    C1 3781   4.345   0.601  15.560
  247MPD1    C2 3782   4.404   0.593  15.688
  247MPD1    C3 3783   4.400   0.477  15.765
  247MPD1    C4 3784   4.345   0.365  15.702
  247MPD1    C5 3785   4.295   0.373  15.572
  247MPD1     H 3786   4.445   0.682  15.733
  247MPD1    H1 3787   4.336   0.267  15.747
  247MPD1    H2 3788   4.241   0.493  15.409
  247MPD1    H3 3789   4.257   0.287  15.519
  247MPD1     N 3790   4.455   0.473  15.896
  247MPD1    H5 3791   4.476   0.379  15.927
  247MPD1    N1 3792   4.356   0.723  15.480
  247MPD1    H6 3793   4.375   0.802  15.541
  247MPD1    H7 3794   4.277   0.735  15.416
  248MPD1     C 3795   1.046   0.445  18.250
  248MPD1    C1 3796   0.956   0.549  18.236
  248MPD1    C2 3797   0.860   0.565  18.336
  248MPD1    C3 3798   0.861   0.490  18.451
  248MPD1    C4 3799   0.956   0.391  18.463
  248MPD1    C5 3800   1.048   0.371  18.364
  248MPD1     H 3801   0.791   0.646  18.316
  248MPD1    H1 3802   0.980   0.330  18.550
  248MPD1    H2 3803   1.117   0.418  18.172
  248MPD1    H3 3804   1.113   0.284  18.369
  248MPD1     N 3805   0.761   0.519  18.540
  248MPD1    H5 3806   0.708   0.603  18.521
  248MPD1    N1 3807   0.935   0.613  18.111
  248MPD1    H6 3808   0.897   0.706  18.126
  248MPD1    H7 3809   1.022   0.614  18.058
  249MPD1     C 3810   2.004   4.175  10.527
  249MPD1    C1 3811   2.073   4.270  10.598
  249MPD1    C2 3812   2.112   4.377  10.524
  249MPD1    C3 3813   2.092   4.382  10.386
  249MPD1    C4 3814   2.023   4.286  10.316
  249MPD1    C5 3815   1.986   4.179  10.392
  249MPD1     H 3816   2.161   4.456  10.579
  249MPD1    H1 3817   1.989   4.273  10.214
  249MPD1    H2 3818   1.965   4.089  10.581
  249MPD1    H3 3819   1.929   4.100  10.344
  249MPD1     N 3820   2.140   4.502  10.323
  249MPD1    H5 3821   2.195   4.561  10.385
  249MPD1    N1 3822   2.122   4.252  10.723
  249MPD1    H6 3823   2.075   4.181  10.778
  249MPD1    H7 3824   2.137   4.338  10.775
  250MPD2     C 3825   3.802   4.028  13.444
  250MPD2    C1 3826   3.734   4.144  13.409
  250MPD2    C2 3827   3.608   4.127  13.346
  250MPD2    C3 3828   3.563   3.999  13.316
  250MPD2    C4 3829   3.636   3.883  13.352
  250MPD2    C5 3830   3.756   3.901  13.410
  250MPD2     H 3831   3.548   4.215  13.328
  250MPD2    H1 3832   3.615   3.777  13.341
  250MPD2    H2 3833   3.902   4.034  13.486
  250MPD2    H3 3834   3.814   3.816  13.445
  250MPD2     N 3835   3.433   3.976  13.267
  250MPD2    H5 3836   3.398   3.882  13.281
  250MPD2    N1 3837   3.790   4.268  13.454
  250MPD2    H7 3838   3.876   4.263  13.507
  251TMC3    C1 3839   3.815   4.507  13.483
  251TMC3    C2 3840   3.759   4.631  13.503
  251TMC3    C3 3841   3.841   4.737  13.534
  251TMC3    C4 3842   3.948   4.483  13.515
  251TMC3    C5 3843   4.026   4.593  13.549
  251TMC3    C6 3844   3.976   4.723  13.560
  251TMC3     C 3845   3.729   4.388  13.441
  251TMC3     O 3846   3.619   4.420  13.406
  251TMC3     H 3847   3.651   4.637  13.496
  251TMC3    H1 3848   4.001   4.395  13.480
  251TMC3    H2 3849   4.029   0.032  13.592
  251TMC3    C7 3850   4.163   4.571  13.567
  251TMC3    C8 3851   3.775   0.062  13.603
  251TMC3    O1 3852   4.202   4.456  13.582
  251TMC3    O2 3853   3.679   0.039  13.674
  252TMC3    C1 3854   3.688   1.073   9.388
  252TMC3    C2 3855   3.809   1.097   9.453
  252TMC3    C3 3856   3.814   1.065   9.586
  252TMC3    C4 3857   3.577   1.035   9.452
  252TMC3    C5 3858   3.585   1.018   9.588
  252TMC3    C6 3859   3.706   1.021   9.654
  252TMC3     C 3860   3.690   1.065   9.242
  252TMC3     O 3861   3.580   1.062   9.181
  252TMC3     H 3862   3.886   1.157   9.405
  252TMC3    H1 3863   3.484   0.999   9.410
  252TMC3    H2 3864   3.698   1.016   9.762
  252TMC3    C7 3865   3.473   0.954   9.643
  252TMC3    C8 3866   3.927   1.122   9.664
  252TMC3    O1 3867   3.365   1.006   9.609
  252TMC3    O2 3868   4.004   1.193   9.596
  253MPD2     C 3869   0.200   4.246  15.513
  253MPD2    C1 3870   0.077   4.211  15.554
  253MPD2    C2 3871   0.054   4.208  15.690
  253MPD2    C3 3872   0.141   4.262  15.780
  253MPD2    C4 3873   0.264   4.300  15.732
  253MPD2    C5 3874   0.301   4.280  15.602
  253MPD2     H 3875   4.734   4.178  15.719
  253MPD2    H1 3876   0.341   4.352  15.787
  253MPD2    H2 3877   0.225   4.238  15.408
  253MPD2    H3 3878   0.387   4.334  15.565
  253MPD2     N 3879   0.101   4.292  15.910
  253MPD2    H5 3880   0.166   4.335  15.975
  253MPD2    N1 3881   4.757   4.169  15.471
  253MPD2    H7 3882   4.673   4.142  15.521
  254TMC3    C1 3883   4.744   4.324  16.101
  254TMC3    C2 3884   4.612   4.314  16.138
  254TMC3    C3 3885   4.588   4.295  16.267
  254TMC3    C4 3886   0.070   4.316  16.190
  254TMC3    C5 3887   0.034   4.314  16.326
  254TMC3    C6 3888   4.681   4.295  16.364
  254TMC3     C 3889   4.761   4.269  15.966
  254TMC3     O 3890   4.670   4.203  15.919
  254TMC3     H 3891   4.541   4.312  16.057
  254TMC3    H1 3892   0.173   4.317  16.156
  254TMC3    H2 3893   4.658   4.272  16.467
  254TMC3    C7 3894   0.131   4.284  16.429
  254TMC3    C8 3895   4.453   4.264  16.313
  254TMC3    O1 3896   0.095   4.235  16.532
  254TMC3    O2 3897   4.451   4.205  16.420
  255MPD2     C 3898   2.704   2.048  10.568
  255MPD2    C1 3899   2.798   2.098  10.641
  255MPD2    C2 3900   2.918   2.024  10.652
  255MPD2    C3 3901   2.932   1.901  10.599
  255MPD2    C4 3902   2.825   1.857  10.517
  255MPD2    C5 3903   2.717   1.935  10.496
  255MPD2     H 3904   2.996   2.063  10.716
  255MPD2    H1 3905   2.825   1.762  10.465
  255MPD2    H2 3906   2.614   2.104  10.547
  255MPD2    H3 3907   2.637   1.895  10.435
  255MPD2     N 3908   3.054   1.832  10.613
  255MPD2    H5 3909   3.110   1.867  10.690
  255MPD2    N1 3910   2.778   2.235  10.687
  255MPD2    H7 3911   2.682   2.266  10.691
  256TMC3    C1 3912   2.842   2.442  10.764
  256TMC3    C2 3913   2.939   2.541  10.745
  256TMC3    C3 3914   2.901   2.660  10.687
  256TMC3    C4 3915   2.710   2.464  10.750
  256TMC3    C5 3916   2.674   2.586  10.700
  256TMC3    C6 3917   2.763   2.684  10.674
  256TMC3     C 3918   2.880   2.306  10.753
  256TMC3     O 3919   2.995   2.278  10.781
  256TMC3     H 3920   3.043   2.511  10.749
  256TMC3    H1 3921   2.635   2.396  10.787
  256TMC3    H2 3922   2.739   2.767  10.609
  256TMC3    C7 3923   2.556   2.567  10.608
  256TMC3    C8 3924   2.951   2.658  10.556
  256TMC3    O1 3925   2.529   2.452  10.586
  256TMC3    O2 3926   2.940   2.555  10.492
  257MPD2     C 3927   2.507   4.398  13.593
  257MPD2    C1 3928   2.441   4.309  13.507
  257MPD2    C2 3929   2.394   4.188  13.559
  257MPD2    C3 3930   2.401   4.166  13.698
  257MPD2    C4 3931   2.466   4.265  13.784
  257MPD2    C5 3932   2.522   4.376  13.726
  257MPD2     H 3933   2.346   4.108  13.504
  257MPD2    H1 3934   2.480   4.253  13.891
  257MPD2    H2 3935   2.561   4.483  13.552
  257MPD2    H3 3936   2.575   4.452  13.781
  257MPD2     N 3937   2.341   4.047  13.748
  257MPD2    H5 3938   2.286   3.995  13.681
  257MPD2    N1 3939   2.444   4.346  13.371
  257MPD2    H7 3940   2.487   4.436  13.355
  258TMC3    C1 3941   2.311   3.857  13.883
  258TMC3    C2 3942   2.383   3.771  13.802
  258TMC3    C3 3943   2.390   3.639  13.842
  258TMC3    C4 3944   2.261   3.824  14.009
  258TMC3    C5 3945   2.283   3.695  14.045
  258TMC3    C6 3946   2.339   3.601  13.964
  258TMC3     C 3947   2.351   3.999  13.875
  258TMC3     O 3948   2.410   4.043  13.971
  258TMC3     H 3949   2.421   3.815  13.710
  258TMC3    H1 3950   2.233   3.908  14.071
  258TMC3    H2 3951   2.352   3.497  13.992
  258TMC3    C7 3952   2.276   3.679  14.184
  258TMC3    C8 3953   2.449   3.534  13.763
  258TMC3    O1 3954   2.191   3.744  14.245
  258TMC3    O2 3955   2.387   3.427  13.766
  259MPD2     C 3956   1.196   0.943  18.995
  259MPD2    C1 3957   1.263   0.843  19.063
  259MPD2    C2 3958   1.376   0.783  19.012
  259MPD2    C3 3959   1.426   0.822  18.887
  259MPD2    C4 3960   1.348   0.912  18.810
  259MPD2    C5 3961   1.235   0.976  18.868
  259MPD2     H 3962   1.441   0.734  19.084
  259MPD2    H1 3963   1.379   0.960  18.718
  259MPD2    H2 3964   1.111   1.000  19.029
  259MPD2    H3 3965   1.184   1.061  18.825
  259MPD2     N 3966   1.546   0.772  18.839
  259MPD2    H5 3967   1.604   0.761  18.922
  259MPD2    N1 3968   1.215   0.820  19.195
  259MPD2    H7 3969   1.145   0.881  19.236
  260TMC3    C1 3970   1.740   0.727  18.699
  260TMC3    C2 3971   1.805   0.748  18.584
  260TMC3    C3 3972   1.920   0.681  18.569
  260TMC3    C4 3973   1.800   0.660  18.802
  260TMC3    C5 3974   1.909   0.594  18.775
  260TMC3    C6 3975   1.979   0.599  18.663
  260TMC3     C 3976   1.611   0.798  18.717
  260TMC3     O 3977   1.581   0.871  18.628
  260TMC3     H 3978   1.777   0.809  18.499
  260TMC3    H1 3979   1.751   0.646  18.898
  260TMC3    H2 3980   2.076   0.553  18.646
  260TMC3    C7 3981   1.978   0.536  18.885
  260TMC3    C8 3982   1.983   0.668  18.436
  260TMC3    O1 3983   2.091   0.581  18.909
  260TMC3    O2 3984   2.020   0.769  18.384
  261MPD2     C 3985   2.897   4.030  12.636
  261MPD2    C1 3986   2.978   4.112  12.708
  261MPD2    C2 3987   3.029   4.225  12.648
  261MPD2    C3 3988   2.990   4.254  12.517
  261MPD2    C4 3989   2.908   4.174  12.449
  261MPD2    C5 3990   2.863   4.060  12.510
  261MPD2     H 3991   3.095   4.300  12.691
  261MPD2    H1 3992   2.889   4.186  12.343
  261MPD2    H2 3993   2.870   3.934  12.679
  261MPD2    H3 3994   2.811   3.983  12.454
  261MPD2     N 3995   3.055   4.365  12.456
  261MPD2    H5 3996   3.108   4.428  12.516
  261MPD2    N1 3997   3.012   4.095  12.841
  261MPD2    H7 3998   3.065   4.172  12.880
  262TMC3    C1 3999   3.093   4.530  12.303
  262TMC3    C2 4000   3.008   4.630  12.358
  262TMC3    C3 4001   3.047   4.763  12.352
  262TMC3    C4 4002   3.197   4.557  12.218
  262TMC3    C5 4003   3.238   4.693  12.221
  262TMC3    C6 4004   3.169   0.009  12.288
  262TMC3     C 4005   3.054   4.396  12.322
  262TMC3     O 4006   3.015   4.337  12.222
  262TMC3     H 4007   2.913   4.595  12.396
  262TMC3    H1 4008   3.247   4.484  12.156
  262TMC3    H2 4009   3.209   0.109  12.300
  262TMC3    C7 4010   3.336   4.728  12.122
  262TMC3    C8 4011   2.946   0.083  12.343
  262TMC3    O1 4012   3.411   4.644  12.068
  262TMC3    O2 4013   2.995   0.196  12.334
  263MPD2     C 4014   3.831   3.573  12.120
  263MPD2    C1 4015   3.941   3.595  12.038
  263MPD2    C2 4016   3.926   3.692  11.940
  263MPD2    C3 4017   3.811   3.758  11.919
  263MPD2    C4 4018   3.707   3.738  12.005
  263MPD2    C5 4019   3.718   3.646  12.108
  263MPD2     H 4020   4.015   3.713  11.882
  263MPD2    H1 4021   3.612   3.789  12.005
  263MPD2    H2 4022   3.847   3.501  12.199
  263MPD2    H3 4023   3.635   3.627  12.175
  263MPD2     N 4024   3.810   3.853  11.806
  263MPD2    H5 4025   3.892   3.844  11.747
  263MPD2    N1 4026   4.053   3.511  12.048
  263MPD2    H7 4027   4.049   3.451  12.130
  264TMC3    C1 4028   3.731   4.004  11.648
  264TMC3    C2 4029   3.695   4.135  11.638
  264TMC3    C3 4030   3.745   4.216  11.536
  264TMC3    C4 4031   3.797   3.936  11.547
  264TMC3    C5 4032   3.835   4.010  11.437
  264TMC3    C6 4033   3.805   4.148  11.439
  264TMC3     C 4034   3.704   3.942  11.775
  264TMC3     O 4035   3.615   3.977  11.849
  264TMC3     H 4036   3.655   4.179  11.728
  264TMC3    H1 4037   3.794   3.828  11.550
  264TMC3    H2 4038   3.848   4.199  11.353
  264TMC3    C7 4039   3.945   3.985  11.349
  264TMC3    C8 4040   3.837   4.322  11.571
  264TMC3    O1 4041   3.948   4.030  11.237
  264TMC3    O2 4042   3.947   4.312  11.526
  265MPD2     C 4043   1.181   3.717  15.892
  265MPD2    C1 4044   1.252   3.816  15.825
  265MPD2    C2 4045   1.335   3.791  15.718
  265MPD2    C3 4046   1.354   3.662  15.677
  265MPD2    C4 4047   1.271   3.563  15.741
  265MPD2    C5 4048   1.183   3.590  15.843
  265MPD2     H 4049   1.388   3.872  15.669
  265MPD2    H1 4050   1.280   3.462  15.704
  265MPD2    H2 4051   1.116   3.737  15.976
  265MPD2    H3 4052   1.135   3.511  15.900
  265MPD2     N 4053   1.436   3.622  15.573
  265MPD2    H5 4054   1.453   3.522  15.571
  265MPD2    N1 4055   1.263   3.949  15.874
  265MPD2    H7 4056   1.303   4.013  15.806
  266TMC3    C1 4057   1.254   4.124  16.028
  266TMC3    C2 4058   1.297   4.171  16.150
  266TMC3    C3 4059   1.314   4.301  16.178
  266TMC3    C4 4060   1.229   4.208  15.922
  266TMC3    C5 4061   1.248   4.341  15.950
  266TMC3    C6 4062   1.281   4.391  16.077
  266TMC3     C 4063   1.225   3.986  15.999
  266TMC3     O 4064   1.212   3.916  16.100
  266TMC3     H 4065   1.318   4.099  16.229
  266TMC3    H1 4066   1.196   4.179  15.823
  266TMC3    H2 4067   1.289   4.496  16.102
  266TMC3    C7 4068   1.232   4.427  15.830
  266TMC3    C8 4069   1.398   4.330  16.293
  266TMC3    O1 4070   1.230   4.369  15.723
  266TMC3    O2 4071   1.467   4.245  16.344
  267MPD2     C 4072   3.340   1.000  18.337
  267MPD2    C1 4073   3.408   1.080  18.249
  267MPD2    C2 4074   3.341   1.136  18.145
  267MPD2    C3 4075   3.208   1.120  18.123
  267MPD2    C4 4076   3.135   1.043  18.214
  267MPD2    C5 4077   3.205   0.981  18.314
  267MPD2     H 4078   3.399   1.190  18.070
  267MPD2    H1 4079   3.035   1.008  18.194
  267MPD2    H2 4080   3.388   0.941  18.414
  267MPD2    H3 4081   3.148   0.927  18.389
  267MPD2     N 4082   3.141   1.159  18.002
  267MPD2    H5 4083   3.045   1.128  17.990
  267MPD2    N1 4084   3.546   1.101  18.272
  267MPD2    H7 4085   3.599   1.062  18.349
  268TMC3    C1 4086   3.763   1.190  18.259
  268TMC3    C2 4087   3.857   1.246  18.176
  268TMC3    C3 4088   3.983   1.265  18.229
  268TMC3    C4 4089   3.779   1.159  18.391
  268TMC3    C5 4090   3.907   1.187  18.439
  268TMC3    C6 4091   4.012   1.227  18.358
  268TMC3     C 4092   3.634   1.173  18.200
  268TMC3     O 4093   3.612   1.239  18.097
  268TMC3     H 4094   3.822   1.287  18.082
  268TMC3    H1 4095   3.699   1.137  18.461
  268TMC3    H2 4096   4.112   1.255  18.390
  268TMC3    C7 4097   3.946   1.186  18.579
  268TMC3    C8 4098   4.058   1.379  18.175
  268TMC3    O1 4099   4.060   1.143  18.604
  268TMC3    O2 4100   4.113   1.449  18.257
  269MPD2     C 4101   3.973   4.556  15.852
  269MPD2    C1 4102   3.897   4.610  15.952
  269MPD2    C2 4103   3.880   4.750  15.958
  269MPD2    C3 4104   3.943   0.045  15.861
  269MPD2    C4 4105   4.021   4.771  15.761
  269MPD2    C5 4106   4.041   4.633  15.758
  269MPD2     H 4107   3.810   0.011  16.029
  269MPD2    H1 4108   4.062   0.052  15.682
  269MPD2    H2 4109   3.985   4.449  15.859
  269MPD2    H3 4110   4.111   4.599  15.683
  269MPD2     N 4111   3.929   0.191  15.881
  269MPD2    H5 4112   3.915   0.220  15.977
  269MPD2    N1 4113   3.834   4.521  16.037
  269MPD2    H7 4114   3.836   4.422  16.013
  270TMC3    C1 4115   3.690   4.423  16.199
  270TMC3    C2 4116   3.557   4.381  16.180
  270TMC3    C3 4117   3.529   4.253  16.212
  270TMC3    C4 4118   3.791   4.343  16.248
  270TMC3    C5 4119   3.761   4.216  16.274
  270TMC3    C6 4120   3.628   4.172  16.264
  270TMC3     C 4121   3.738   4.549  16.135
  270TMC3     O 4122   3.666   4.649  16.143
  270TMC3     H 4123   3.489   4.439  16.119
  270TMC3    H1 4124   3.891   4.382  16.261
  270TMC3    H2 4125   3.594   4.078  16.305
  270TMC3    C7 4126   3.847   4.114  16.228
  270TMC3    C8 4127   3.463   4.176  16.105
  270TMC3    O1 4128   3.967   4.122  16.257
  270TMC3    O2 4129   3.509   4.061  16.093
  271MPD2     C 4130   3.117   4.332  14.369
  271MPD2    C1 4131   3.016   4.291  14.455
  271MPD2    C2 4132   2.891   4.339  14.444
  271MPD2    C3 4133   2.862   4.438  14.350
  271MPD2    C4 4134   2.960   4.478  14.262
  271MPD2    C5 4135   3.088   4.435  14.279
  271MPD2     H 4136   2.814   4.292  14.505
  271MPD2    H1 4137   2.936   4.550  14.184
  271MPD2    H2 4138   3.217   4.289  14.368
  271MPD2    H3 4139   3.165   4.462  14.208
  271MPD2     N 4140   2.731   4.494  14.337
  271MPD2    H5 4141   2.717   4.558  14.259
  271MPD2    N1 4142   3.037   4.176  14.546
  271MPD2    H7 4143   2.959   4.135  14.596
  272TMC3    C1 4144   3.148   4.001  14.650
  272TMC3    C2 4145   3.259   3.927  14.656
  272TMC3    C3 4146   3.291   3.862  14.771
  272TMC3    C4 4147   3.060   4.011  14.761
  272TMC3    C5 4148   3.092   3.940  14.876
  272TMC3    C6 4149   3.208   3.869  14.881
  272TMC3     C 4150   3.162   4.119  14.564
  272TMC3     O 4151   3.278   4.138  14.523
  272TMC3     H 4152   3.317   3.912  14.566
  272TMC3    H1 4153   2.965   4.062  14.758
  272TMC3    H2 4154   3.229   3.823  14.977
  272TMC3    C7 4155   3.019   3.985  14.994
  272TMC3    C8 4156   3.390   3.758  14.754
  272TMC3    O1 4157   2.908   4.039  14.974
  272TMC3    O2 4158   3.425   3.740  14.640
  273MPD2     C 4159   4.403   2.604  12.028
  273MPD2    C1 4160   4.538   2.616  11.989
  273MPD2    C2 4161   4.569   2.607  11.859
  273MPD2    C3 4162   4.465   2.597  11.766
  273MPD2    C4 4163   4.335   2.588  11.801
  273MPD2    C5 4164   4.307   2.588  11.936
  273MPD2     H 4165   4.674   2.616  11.833
  273MPD2    H1 4166   4.252   2.572  11.733
  273MPD2    H2 4167   4.367   2.607  12.130
  273MPD2    H3 4168   4.204   2.583  11.969
  273MPD2     N 4169   4.492   2.594  11.626
  273MPD2    H5 4170   4.408   2.617  11.574
  273MPD2    N1 4171   4.634   2.650  12.097
  273MPD2    H7 4172   4.593   2.648  12.190
  274TMC3    C1 4173   4.619   2.635  11.448
  274TMC3    C2 4174   4.502   2.659  11.382
  274TMC3    C3 4175   4.501   2.772  11.316
  274TMC3    C4 4176   4.719   2.725  11.441
  274TMC3    C5 4177   4.709   2.845  11.378
  274TMC3    C6 4178   4.602   2.859  11.299
  274TMC3     C 4179   4.616   2.578  11.573
  274TMC3     O 4180   4.713   2.528  11.628
  274TMC3     H 4181   4.421   2.587  11.379
  274TMC3    H1 4182   0.031   2.711  11.495
  274TMC3    H2 4183   4.593   2.953  11.246
  274TMC3    C7 4184   4.711   2.952  11.471
  274TMC3    C8 4185   4.390   2.786  11.221
  274TMC3    O1 4186   4.629   3.046  11.466
  274TMC3    O2 4187   4.286   2.743  11.263
  275MPD2     C 4188   4.576   0.166  14.809
  275MPD2    C1 4189   4.514   0.214  14.917
  275MPD2    C2 4190   4.382   0.179  14.940
  275MPD2    C3 4191   4.318   0.087  14.863
  275MPD2    C4 4192   4.379   0.031  14.753
  275MPD2    C5 4193   4.509   0.078  14.730
  275MPD2     H 4194   4.331   0.209  15.031
  275MPD2    H1 4195   4.329   4.742  14.687
  275MPD2    H2 4196   4.676   0.196  14.780
  275MPD2    H3 4197   4.562   0.045  14.642
  275MPD2     N 4198   4.180   0.052  14.877
  275MPD2    H5 4199   4.147   4.759  14.816
  275MPD2    N1 4200   4.562   0.314  15.001
  275MPD2    H7 4201   4.516   0.338  15.088
  276TMC3    C1 4202   4.728   0.391  15.150
  276TMC3    C2 4203   4.658   0.334  15.253
  276TMC3    C3 4204   4.710   0.343  15.380
  276TMC3    C4 4205   0.071   0.452  15.164
  276TMC3    C5 4206   0.127   0.447  15.291
  276TMC3    C6 4207   0.062   0.393  15.396
  276TMC3     C 4208   4.689   0.352  15.016
  276TMC3     O 4209   0.002   0.353  14.938
  276TMC3     H 4210   4.557   0.296  15.251
  276TMC3    H1 4211   0.115   0.511  15.085
  276TMC3    H2 4212   0.102   0.399  15.497
  276TMC3    C7 4213   0.253   0.510  15.308
  276TMC3    C8 4214   4.657   0.264  15.487
  276TMC3    O1 4215   0.274   0.552  15.419
  276TMC3    O2 4216   4.654   0.298  15.606
  277MPD2     C 4217   1.835   4.184  13.642
  277MPD2    C1 4218   1.698   4.178  13.642
  277MPD2    C2 4219   1.635   4.142  13.762
  277MPD2    C3 4220   1.702   4.121  13.875
  277MPD2    C4 4221   1.842   4.117  13.874
  277MPD2    C5 4222   1.906   4.156  13.760
  277MPD2     H 4223   1.527   4.132  13.760
  277MPD2    H1 4224   1.896   4.094  13.965
  277MPD2    H2 4225   1.893   4.206  13.553
  277MPD2    H3 4226   2.013   4.172  13.759
  277MPD2     N 4227   1.627   4.098  13.989
  277MPD2    H5 4228   1.527   4.115  13.978
  277MPD2    N1 4229   1.633   4.208  13.523
  277MPD2    H7 4230   1.684   4.262  13.454
  278TMC3    C1 4231   1.550   4.020  14.192
  278TMC3    C2 4232   1.539   3.889  14.236
  278TMC3    C3 4233   1.417   3.842  14.259
  278TMC3    C4 4234   1.437   4.096  14.165
  278TMC3    C5 4235   1.317   4.045  14.199
  278TMC3    C6 4236   1.306   3.917  14.251
  278TMC3     C 4237   1.667   4.042  14.105
  278TMC3     O 4238   1.773   3.993  14.130
  278TMC3     H 4239   1.625   3.823  14.240
  278TMC3    H1 4240   1.441   4.192  14.115
  278TMC3    H2 4241   1.205   3.877  14.249
  278TMC3    C7 4242   1.199   4.090  14.128
  278TMC3    C8 4243   1.393   3.697  14.270
  278TMC3    O1 4244   1.217   4.140  14.019
  278TMC3    O2 4245   1.466   3.621  14.327
  279MPD2     C 4246   0.753   3.926  18.544
  279MPD2    C1 4247   0.722   4.057  18.541
  279MPD2    C2 4248   0.752   4.121  18.423
  279MPD2    C3 4249   0.788   4.056  18.302
  279MPD2    C4 4250   0.801   3.921  18.308
  279MPD2    C5 4251   0.793   3.858  18.432
  279MPD2     H 4252   0.726   4.226  18.414
  279MPD2    H1 4253   0.833   3.861  18.224
  279MPD2    H2 4254   0.747   3.864  18.633
  279MPD2    H3 4255   0.811   3.752  18.449
  279MPD2     N 4256   0.804   4.126  18.181
  279MPD2    H5 4257   0.784   4.069  18.100
  279MPD2    N1 4258   0.673   4.119  18.648
  279MPD2    H7 4259   0.682   4.075  18.739
  280TMC3    C1 4260   0.534   4.295  18.540
  280TMC3    C2 4261   0.468   4.209  18.455
  280TMC3    C3 4262   0.440   4.251  18.333
  280TMC3    C4 4263   0.545   4.434  18.520
  280TMC3    C5 4264   0.505   4.468  18.392
  280TMC3    C6 4265   0.461   4.382  18.296
  280TMC3     C 4266   0.604   4.241  18.657
  280TMC3     O 4267   0.594   4.304  18.763
  280TMC3     H 4268   0.468   4.104  18.483
  280TMC3    H1 4269   0.584   4.501  18.595
  280TMC3    H2 4270   0.439   4.407  18.193
  280TMC3    C7 4271   0.501   4.612  18.357
  280TMC3    C8 4272   0.464   4.161  18.224
  280TMC3    O1 4273   0.577   4.684  18.416
  280TMC3    O2 4274   0.503   4.213  18.118
  281TMC3    C1 4275   4.421   4.299  13.878
  281TMC3    C2 4276   4.487   4.382  13.799
  281TMC3    C3 4277   4.549   4.316  13.691
  281TMC3    C4 4278   4.392   4.165  13.851
  281TMC3    C5 4279   4.449   4.109  13.745
  281TMC3    C6 4280   4.531   4.183  13.664
  281TMC3     C 4281   4.324   4.354  13.964
  281TMC3     O 4282   4.299   4.284  14.060
  281TMC3     H 4283   4.509   4.486  13.820
  281TMC3    H1 4284   4.335   4.107  13.922
  281TMC3    H2 4285   4.580   4.132  13.581
  281TMC3    C7 4286   4.398   3.986  13.696
  281TMC3    C8 4287   4.671   4.372  13.632
  281TMC3    O1 4288   4.459   3.929  13.605
  281TMC3    O2 4289   4.759   4.285  13.612
  282MPD2     C 4290   1.655   0.906  15.399
  282MPD2    C1 4291   1.538   0.982  15.414
  282MPD2    C2 4292   1.483   1.052  15.314
  282MPD2    C3 4293   1.540   1.036  15.187
  282MPD2    C4 4294   1.655   0.965  15.168
  282MPD2    C5 4295   1.711   0.902  15.276
  282MPD2     H 4296   1.397   1.117  15.320
  282MPD2    H1 4297   1.700   0.941  15.072
  282MPD2    H2 4298   1.699   0.864  15.489
  282MPD2    H3 4299   1.807   0.853  15.264
  282MPD2     N 4300   1.466   1.092  15.072
  282MPD2    H5 4301   1.381   1.144  15.093
  282MPD2    N1 4302   1.470   0.997  15.538
  282MPD2    H7 4303   1.393   1.063  15.539
  283TMC3    C1 4304   1.422   0.964  15.767
  283TMC3    C2 4305   1.386   1.097  15.795
  283TMC3    C3 4306   1.296   1.116  15.896
  283TMC3    C4 4307   1.375   0.857  15.839
  283TMC3    C5 4308   1.293   0.887  15.948
  283TMC3    C6 4309   1.258   1.014  15.980
  283TMC3     C 4310   1.502   0.931  15.659
  283TMC3     O 4311   1.559   0.823  15.665
  283TMC3     H 4312   1.424   1.183  15.742
  283TMC3    H1 4313   1.393   0.755  15.807
  283TMC3    H2 4314   1.181   1.045  16.049
  283TMC3    C7 4315   1.203   0.787  16.004
  283TMC3    C8 4316   1.296   1.251  15.961
  283TMC3    O1 4317   1.145   0.834  16.104
  283TMC3    O2 4318   1.294   1.252  16.082
  284MPD2     C 4319   3.827   0.490  12.454
  284MPD2    C1 4320   3.946   0.465  12.398
  284MPD2    C2 4321   4.019   0.359  12.450
  284MPD2    C3 4322   3.962   0.275  12.549
  284MPD2    C4 4323   3.838   0.298  12.600
  284MPD2    C5 4324   3.775   0.413  12.560
  284MPD2     H 4325   4.118   0.336  12.411
  284MPD2    H1 4326   3.784   0.231  12.666
  284MPD2    H2 4327   3.766   0.573  12.420
  284MPD2    H3 4328   3.679   0.435  12.604
  284MPD2     N 4329   4.037   0.170  12.598
  284MPD2    H5 4330   3.991   0.092  12.643
  284MPD2    N1 4331   4.005   0.543  12.295
  284MPD2    H7 4332   4.099   0.515  12.267
  285TMC3    C1 4333   4.054   0.709  12.138
  285TMC3    C2 4334   4.128   0.614  12.072
  285TMC3    C3 4335   4.251   0.648  12.034
  285TMC3    C4 4336   4.103   0.842  12.157
  285TMC3    C5 4337   4.221   0.869  12.106
  285TMC3    C6 4338   4.307   0.773  12.052
  285TMC3     C 4339   3.965   0.657  12.240
  285TMC3     O 4340   3.885   0.734  12.292
  285TMC3     H 4341   4.104   0.509  12.057
  285TMC3    H1 4342   4.037   0.920  12.192
  285TMC3    H2 4343   4.403   0.797  12.008
  285TMC3    C7 4344   4.285   0.996  12.140
  285TMC3    C8 4345   4.325   0.550  11.961
  285TMC3    O1 4346   4.209   1.093  12.135
  285TMC3    O2 4347   4.263   0.491  11.874
  286MPD2     C 4348   4.203   3.704  19.778
  286MPD2    C1 4349   4.243   3.739  19.647
  286MPD2    C2 4350   4.308   3.642  19.575
  286MPD2    C3 4351   4.319   3.510  19.615
  286MPD2    C4 4352   4.277   3.470  19.735
  286MPD2    C5 4353   4.227   3.565  19.816
  286MPD2     H 4354   4.332   3.666  19.472
  286MPD2    H1 4355   4.299   3.376  19.784
  286MPD2    H2 4356   4.152   3.766  19.851
  286MPD2    H3 4357   4.205   3.536  19.918
  286MPD2     N 4358   4.386   3.410  19.548
  286MPD2    H5 4359   4.413   3.326  19.598
  286MPD2    N1 4360   4.223   3.870  19.595
  286MPD2    H7 4361   4.268   3.894  19.507
  287TMC3    C1 4362   4.519   3.309  19.384
  287TMC3    C2 4363   4.511   3.263  19.254
  287TMC3    C3 4364   4.630   3.210  19.199
  287TMC3    C4 4365   4.627   3.293  19.468
  287TMC3    C5 4366   4.736   3.234  19.412
  287TMC3    C6 4367   4.742   3.191  19.278
  287TMC3     C 4368   4.429   3.419  19.418
  287TMC3     O 4369   4.408   3.503  19.334
  287TMC3     H 4370   4.419   3.274  19.198
  287TMC3    H1 4371   4.616   3.346  19.562
  287TMC3    H2 4372   0.044   3.128  19.245
  287TMC3    C7 4373   0.070   3.249  19.491
  287TMC3    C8 4374   4.621   3.128  19.085
  287TMC3    O1 4375   0.062   3.250  19.616
  287TMC3    O2 4376   4.509   3.088  19.052
  288TMC3    C1 4377   1.286   3.574  14.658
  288TMC3    C2 4378   1.181   3.546  14.743
  288TMC3    C3 4379   1.120   3.652  14.797
  288TMC3    C4 4380   1.312   3.703  14.608
  288TMC3    C5 4381   1.242   3.807  14.655
  288TMC3    C6 4382   1.147   3.783  14.755
  288TMC3     C 4383   1.398   3.489  14.682
  288TMC3     O 4384   1.399   3.429  14.787
  288TMC3     H 4385   1.169   3.445  14.779
  288TMC3    H1 4386   1.400   3.720  14.547
  288TMC3    H2 4387   1.090   3.868  14.791
  288TMC3    C7 4388   1.330   3.917  14.693
  288TMC3    C8 4389   1.059   3.650  14.929
  288TMC3    O1 4390   1.380   3.903  14.801
  288TMC3    O2 4391   1.058   3.759  14.986
  289MPD2     C 4392   1.577   2.790  14.632
  289MPD2    C1 4393   1.542   2.888  14.537
  289MPD2    C2 4394   1.414   2.889  14.489
  289MPD2    C3 4395   1.319   2.803  14.543
  289MPD2    C4 4396   1.361   2.708  14.633
  289MPD2    C5 4397   1.486   2.700  14.677
  289MPD2     H 4398   1.388   2.960  14.411
  289MPD2    H1 4399   1.289   2.637  14.673
  289MPD2    H2 4400   1.680   2.782  14.665
  289MPD2    H3 4401   1.514   2.628  14.753
  289MPD2     N 4402   1.175   2.822  14.528
  289MPD2    H5 4403   1.123   2.747  14.572
  289MPD2    N1 4404   1.640   2.975  14.501
  289MPD2    H7 4405   1.727   2.955  14.549
  290TMC3    C1 4406   0.981   2.892  14.437
  290TMC3    C2 4407   0.905   2.994  14.404
  290TMC3    C3 4408   0.765   2.975  14.402
  290TMC3    C4 4409   0.934   2.757  14.456
  290TMC3    C5 4410   0.799   2.741  14.452
  290TMC3    C6 4411   0.716   2.848  14.425
  290TMC3     C 4412   1.121   2.909  14.437
  290TMC3     O 4413   1.175   2.997  14.372
  290TMC3     H 4414   0.948   3.092  14.391
  290TMC3    H1 4415   0.994   2.667  14.463
  290TMC3    H2 4416   0.609   2.840  14.437
  290TMC3    C7 4417   0.735   2.629  14.523
  290TMC3    C8 4418   0.675   3.084  14.379
  290TMC3    O1 4419   0.652   2.660  14.609
  290TMC3    O2 4420   0.577   3.060  14.321
  291MPD2     C 4421   0.592   2.949  18.432
  291MPD2    C1 4422   0.710   2.884  18.402
  291MPD2    C2 4423   0.830   2.950  18.386
  291MPD2    C3 4424   0.832   3.090  18.386
  291MPD2    C4 4425   0.709   3.152  18.413
  291MPD2    C5 4426   0.595   3.084  18.442
  291MPD2     H 4427   0.913   2.881  18.378
  291MPD2    H1 4428   0.701   3.259  18.428
  291MPD2    H2 4429   0.499   2.896  18.450
  291MPD2    H3 4430   0.506   3.142  18.465
  291MPD2     N 4431   0.939   3.175  18.354
  291MPD2    H5 4432   0.922   3.275  18.362
  291MPD2    N1 4433   0.721   2.744  18.402
  291MPD2    H7 4434   0.816   2.709  18.410
  292TMC3    C1 4435   0.660   2.522  18.412
  292TMC3    C2 4436   0.704   2.497  18.537
  292TMC3    C3 4437   0.698   2.371  18.582
  292TMC3    C4 4438   0.616   2.428  18.324
  292TMC3    C5 4439   0.617   2.299  18.369
  292TMC3    C6 4440   0.658   2.271  18.500
  292TMC3     C 4441   0.614   2.654  18.400
  292TMC3     O 4442   0.489   2.661  18.387
  292TMC3     H 4443   0.731   2.574  18.609
  292TMC3    H1 4444   0.600   2.450  18.219
  292TMC3    H2 4445   0.668   2.168  18.531
  292TMC3    C7 4446   0.597   2.183  18.283
  292TMC3    C8 4447   0.628   2.364  18.713
  292TMC3    O1 4448   0.637   2.074  18.321
  292TMC3    O2 4449   0.654   2.456  18.793
  293MPD2     C 4450   2.546   4.020  12.891
  293MPD2    C1 4451   2.455   3.972  12.983
  293MPD2    C2 4452   2.487   3.966  13.124
  293MPD2    C3 4453   2.601   4.030  13.165
  293MPD2    C4 4454   2.672   4.097  13.071
  293MPD2    C5 4455   2.652   4.087  12.937
  293MPD2     H 4456   2.419   3.930  13.201
  293MPD2    H1 4457   2.759   4.156  13.100
  293MPD2    H2 4458   2.539   4.015  12.783
  293MPD2    H3 4459   2.725   4.136  12.874
  293MPD2     N 4460   2.637   4.025  13.304
  293MPD2    H5 4461   2.570   3.984  13.368
  293MPD2    N1 4462   2.332   3.925  12.934
  293MPD2    H7 4463   2.312   3.935  12.835
  294TMC3    C1 4464   2.112   3.838  12.916
  294TMC3    C2 4465   2.023   3.738  12.958
  294TMC3    C3 4466   1.922   3.708  12.864
  294TMC3    C4 4467   2.102   3.904  12.796
  294TMC3    C5 4468   2.003   3.871  12.708
  294TMC3    C6 4469   1.912   3.771  12.741
  294TMC3     C 4470   2.230   3.861  13.002
  294TMC3     O 4471   2.218   3.843  13.121
  294TMC3     H 4472   2.026   3.687  13.054
  294TMC3    H1 4473   2.169   3.986  12.773
  294TMC3    H2 4474   1.832   3.757  12.670
  294TMC3    C7 4475   1.990   3.929  12.574
  294TMC3    C8 4476   1.821   3.607  12.894
  294TMC3    O1 4477   1.891   3.893  12.516
  294TMC3    O2 4478   1.789   3.591  13.012
  295MPD2     C 4479   3.549   2.747  18.255
  295MPD2    C1 4480   3.512   2.876  18.281
  295MPD2    C2 4481   3.480   2.901  18.410
  295MPD2    C3 4482   3.509   2.821  18.515
  295MPD2    C4 4483   3.554   2.691  18.493
  295MPD2    C5 4484   3.574   2.658  18.358
  295MPD2     H 4485   3.427   2.995  18.422
  295MPD2    H1 4486   3.567   2.621  18.575
  295MPD2    H2 4487   3.565   2.700  18.159
  295MPD2    H3 4488   3.607   2.560  18.327
  295MPD2     N 4489   3.468   2.844  18.650
  295MPD2    H5 4490   3.470   2.762  18.709
  295MPD2    N1 4491   3.443   2.952  18.190
  295MPD2    H7 4492   3.421   3.048  18.213
  296TMC3    C1 4493   3.358   2.939  18.827
  296TMC3    C2 4494   3.344   3.059  18.894
  296TMC3    C3 4495   3.232   3.091  18.966
  296TMC3    C4 4496   3.261   2.849  18.836
  296TMC3    C5 4497   3.153   2.880  18.914
  296TMC3    C6 4498   3.140   2.996  18.988
  296TMC3     C 4499   3.410   2.958  18.692
  296TMC3     O 4500   3.417   3.071  18.641
  296TMC3     H 4501   3.423   3.132  18.886
  296TMC3    H1 4502   3.262   2.767  18.765
  296TMC3    H2 4503   3.050   3.025  19.041
  296TMC3    C7 4504   3.036   2.797  18.900
  296TMC3    C8 4505   3.231   3.224  19.048
  296TMC3    O1 4506   3.044   2.716  18.812
  296TMC3    O2 4507   3.343   3.257  19.086
  297MPD2     C 4508   0.283   4.648  16.743
  297MPD2    C1 4509   0.260   4.703  16.618
  297MPD2    C2 4510   0.362   4.774  16.558
  297MPD2    C3 4511   0.490   4.769  16.613
  297MPD2    C4 4512   0.516   4.707  16.733
  297MPD2    C5 4513   0.407   4.647  16.791
  297MPD2     H 4514   0.350   0.045  16.463
  297MPD2    H1 4515   0.611   4.696  16.783
  297MPD2    H2 4516   0.208   4.590  16.796
  297MPD2    H3 4517   0.434   4.592  16.881
  297MPD2     N 4518   0.582   0.068  16.551
  297MPD2    H5 4519   0.547   0.151  16.504
  297MPD2    N1 4520   0.132   4.708  16.548
  297MPD2    H7 4521   0.136   4.756  16.458
  298TMC3    C1 4522   4.690   4.662  16.503
  298TMC3    C2 4523   4.717   4.674  16.372
  298TMC3    C3 4524   4.620   4.723  16.287
  298TMC3    C4 4525   4.570   4.702  16.548
  298TMC3    C5 4526   4.474   4.755  16.462
  298TMC3    C6 4527   4.494   4.761  16.328
  298TMC3     C 4528   0.017   4.642  16.592
  298TMC3     O 4529   4.772   4.607  16.707
  298TMC3     H 4530   0.034   4.651  16.331
  298TMC3    H1 4531   4.562   4.690  16.655
  298TMC3    H2 4532   4.427   0.028  16.258
  298TMC3    C7 4533   4.366   0.054  16.525
  298TMC3    C8 4534   4.640   4.714  16.142
  298TMC3    O1 4535   4.373   0.058  16.648
  298TMC3    O2 4536   4.538   4.719  16.077
  299MPD2     C 4537   0.840   4.664  11.443
  299MPD2    C1 4538   0.892   4.716  11.324
  299MPD2    C2 4539   0.816   4.719  11.205
  299MPD2    C3 4540   0.689   4.673  11.204
  299MPD2    C4 4541   0.635   4.632  11.324
  299MPD2    C5 4542   0.709   4.615  11.438
  299MPD2     H 4543   0.859   4.754  11.112
  299MPD2    H1 4544   0.529   4.611  11.336
  299MPD2    H2 4545   0.901   4.666  11.532
  299MPD2    H3 4546   0.657   4.584  11.528
  299MPD2     N 4547   0.605   4.669  11.087
  299MPD2    H5 4548   0.508   4.646  11.104
  299MPD2    N1 4549   1.021   4.764  11.336
  299MPD2    H7 4550   1.077   4.745  11.418
  300TMC3    C1 4551   0.542   4.659  10.863
  300TMC3    C2 4552   0.554   4.744  10.757
  300TMC3    C3 4553   0.448   4.763  10.671
  300TMC3    C4 4554   0.425   4.607  10.907
  300TMC3    C5 4555   0.322   4.620  10.812
  300TMC3    C6 4556   0.331   4.702  10.699
  300TMC3     C 4557   0.647   4.684  10.956
  300TMC3     O 4558   0.759   4.717  10.920
  300TMC3     H 4559   0.650   0.008  10.735
  300TMC3    H1 4560   0.415   4.526  10.978
  300TMC3    H2 4561   0.247   4.706  10.631
  300TMC3    C7 4562   0.199   4.557  10.835
  300TMC3    C8 4563   0.441   0.119  10.629
  300TMC3    O1 4564   0.142   4.528  10.735
  300TMC3    O2 4565   0.541   0.184  10.625
  301MPD2     C 4566   3.286   1.643  18.963
  301MPD2    C1 4567   3.227   1.561  19.055
  301MPD2    C2 4568   3.266   1.430  19.057
  301MPD2    C3 4569   3.359   1.376  18.975
  301MPD2    C4 4570   3.409   1.460  18.879
  301MPD2    C5 4571   3.381   1.590  18.885
  301MPD2     H 4572   3.206   1.361  19.116
  301MPD2    H1 4573   3.488   1.426  18.813
  301MPD2    H2 4574   3.278   1.750  18.974
  301MPD2    H3 4575   3.435   1.657  18.819
  301MPD2     N 4576   3.389   1.238  18.967
  301MPD2    H5 4577   3.466   1.215  18.905
  301MPD2    N1 4578   3.125   1.606  19.153
  301MPD2    H7 4579   3.109   1.539  19.227
  302TMC3    C1 4580   3.372   1.004  19.014
  302TMC3    C2 4581   3.354   0.906  19.112
  302TMC3    C3 4582   3.300   0.787  19.084
  302TMC3    C4 4583   3.330   0.977  18.887
  302TMC3    C5 4584   3.265   0.858  18.863
  302TMC3    C6 4585   3.241   0.763  18.961
  302TMC3     C 4586   3.361   1.138  19.062
  302TMC3     O 4587   3.325   1.160  19.177
  302TMC3     H 4588   3.373   0.924  19.217
  302TMC3    H1 4589   3.308   1.057  18.818
  302TMC3    H2 4590   3.199   0.667  18.931
  302TMC3    C7 4591   3.176   0.853  18.750
  302TMC3    C8 4592   3.283   0.702  19.202
  302TMC3    O1 4593   3.205   0.910  18.646
  302TMC3    O2 4594   3.380   0.713  19.274
  303MPD2     C 4595   3.248   4.117  10.883
  303MPD2    C1 4596   3.115   4.091  10.910
  303MPD2    C2 4597   3.018   4.099  10.819
  303MPD2    C3 4598   3.055   4.144  10.692
  303MPD2    C4 4599   3.184   4.180  10.656
  303MPD2    C5 4600   3.277   4.170  10.760
  303MPD2     H 4601   2.916   4.070  10.843
  303MPD2    H1 4602   3.209   4.220  10.559
  303MPD2    H2 4603   3.340   4.092  10.934
  303MPD2    H3 4604   3.379   4.194  10.732
  303MPD2     N 4605   2.962   4.142  10.580
  303MPD2    H5 4606   3.004   4.164  10.490
  303MPD2    N1 4607   3.089   4.040  11.039
  303MPD2    H7 4608   3.164   4.001  11.095
  304TMC3    C1 4609   2.960   3.979  11.231
  304TMC3    C2 4610   2.853   4.011  11.309
  304TMC3    C3 4611   2.807   3.937  11.410
  304TMC3    C4 4612   3.027   3.857  11.257
  304TMC3    C5 4613   2.980   3.778  11.357
  304TMC3    C6 4614   2.881   3.827  11.444
  304TMC3     C 4615   2.962   4.040  11.101
  304TMC3     O 4616   2.856   4.084  11.056
  304TMC3     H 4617   2.814   4.111  11.296
  304TMC3    H1 4618   3.097   3.810  11.188
  304TMC3    H2 4619   2.852   3.762  11.526
  304TMC3    C7 4620   2.976   3.637  11.320
  304TMC3    C8 4621   2.667   3.920  11.411
  304TMC3    O1 4622   2.981   3.607  11.201
  304TMC3    O2 4623   2.612   3.941  11.300
  305MPD2     C 4624   1.379   1.475  14.205
  305MPD2    C1 4625   1.411   1.349  14.247
  305MPD2    C2 4626   1.370   1.238  14.165
  305MPD2    C3 4627   1.303   1.265  14.046
  305MPD2    C4 4628   1.268   1.397  14.012
  305MPD2    C5 4629   1.310   1.496  14.094
  305MPD2     H 4630   1.388   1.140  14.207
  305MPD2    H1 4631   1.222   1.410  13.915
  305MPD2    H2 4632   1.416   1.563  14.255
  305MPD2    H3 4633   1.285   1.596  14.059
  305MPD2     N 4634   1.279   1.165  13.955
  305MPD2    H5 4635   1.233   1.183  13.866
  305MPD2    N1 4636   1.495   1.337  14.360
  305MPD2    H7 4637   1.533   1.427  14.389
  306TMC3    C1 4638   1.610   1.236  14.539
  306TMC3    C2 4639   1.704   1.136  14.562
  306TMC3    C3 4640   1.792   1.158  14.666
  306TMC3    C4 4641   1.596   1.350  14.612
  306TMC3    C5 4642   1.679   1.354  14.720
  306TMC3    C6 4643   1.781   1.260  14.748
  306TMC3     C 4644   1.526   1.218  14.424
  306TMC3     O 4645   1.499   1.102  14.403
  306TMC3     H 4646   1.706   1.044  14.504
  306TMC3    H1 4647   1.516   1.422  14.598
  306TMC3    H2 4648   1.840   1.264  14.839
  306TMC3    C7 4649   1.624   1.435  14.830
  306TMC3    C8 4650   1.879   1.045  14.707
  306TMC3    O1 4651   1.507   1.470  14.825
  306TMC3    O2 4652   1.878   0.956  14.614
  307MPD2     C 4653   3.883   4.028  18.302
  307MPD2    C1 4654   3.995   4.067  18.356
  307MPD2    C2 4655   4.003   4.112  18.489
  307MPD2    C3 4656   3.888   4.107  18.565
  307MPD2    C4 4657   3.776   4.046  18.511
  307MPD2    C5 4658   3.768   4.010  18.377
  307MPD2     H 4659   4.093   4.163  18.521
  307MPD2    H1 4660   3.693   4.028  18.578
  307MPD2    H2 4661   3.868   4.004  18.197
  307MPD2    H3 4662   3.686   3.952  18.338
  307MPD2     N 4663   3.893   4.154  18.696
  307MPD2    H5 4664   3.986   4.182  18.725
  307MPD2    N1 4665   4.103   4.096  18.267
  307MPD2    H7 4666   4.175   4.163  18.289
  308TMC3    C1 4667   3.717   4.113  19.094
  308TMC3    C2 4668   3.702   4.242  19.144
  308TMC3    C3 4669   3.745   4.348  19.070
  308TMC3    C4 4670   3.793   4.087  18.986
  308TMC3    C5 4671   3.827   4.195  18.908
  308TMC3    C6 4672   3.806   4.325  18.949
  308TMC3     C 4673   3.593   4.042  19.083
  308TMC3     O 4674   3.596   3.919  19.074
  308TMC3     H 4675   3.640   4.275  19.226
  308TMC3    H1 4676   3.830   3.989  18.957
  308TMC3    H2 4677   3.835   4.404  18.881
  308TMC3    C7 4678   3.787   4.171  18.774
  308TMC3    C8 4679   3.654   4.465  19.079
  308TMC3    O1 4680   3.665   4.158  18.755
  308TMC3    O2 4681   3.542   4.443  19.120
  309MPD2     C 4682   3.070   4.199  17.594
  309MPD2    C1 4683   3.044   4.295  17.497
  309MPD2    C2 4684   2.938   4.384  17.519
  309MPD2    C3 4685   2.874   4.393  17.647
  309MPD2    C4 4686   2.916   4.301  17.740
  309MPD2    C5 4687   3.007   4.202  17.712
  309MPD2     H 4688   2.900   4.446  17.438
  309MPD2    H1 4689   2.870   4.305  17.838
  309MPD2    H2 4690   3.140   4.117  17.579
  309MPD2    H3 4691   3.027   4.128  17.788
  309MPD2     N 4692   2.781   4.493  17.685
  309MPD2    H5 4693   2.765   4.513  17.783
  309MPD2    N1 4694   3.111   4.300  17.375
  309MPD2    H7 4695   3.090   4.367  17.302
  310TMC3    C1 4696   3.251   4.264  17.194
  310TMC3    C2 4697   3.181   4.363  17.124
  310TMC3    C3 4698   3.239   4.413  17.009
  310TMC3    C4 4699   3.372   4.211  17.154
  310TMC3    C5 4700   3.427   4.264  17.036
  310TMC3    C6 4701   3.355   4.355  16.959
  310TMC3     C 4702   3.201   4.211  17.323
  310TMC3     O 4703   3.253   4.113  17.369
  310TMC3     H 4704   3.083   4.396  17.157
  310TMC3    H1 4705   3.419   4.146  17.226
  310TMC3    H2 4706   3.377   4.367  16.853
  310TMC3    C7 4707   3.554   4.223  16.984
  310TMC3    C8 4708   3.168   4.511  16.926
  310TMC3    O1 4709   3.582   4.106  16.995
  310TMC3    O2 4710   3.046   4.525  16.943
  311MPD2     C 4711   0.164   1.092  13.037
  311MPD2    C1 4712   0.215   1.114  13.158
  311MPD2    C2 4713   0.151   1.058  13.272
  311MPD2    C3 4714   0.054   0.968  13.255
  311MPD2    C4 4715   0.015   0.934  13.129
  311MPD2    C5 4716   0.068   1.000  13.021
  311MPD2     H 4717   0.184   1.082  13.372
  311MPD2    H1 4718   4.728   0.854  13.101
  311MPD2    H2 4719   0.205   1.129  12.943
  311MPD2    H3 4720   0.027   0.969  12.925
  311MPD2     N 4721   4.770   0.913  13.370
  311MPD2    H5 4722   0.006   0.955  13.461
  311MPD2    N1 4723   0.320   1.204  13.181
  311MPD2    H7 4724   0.355   1.202  13.276
  312TMC3    C1 4725   4.590   0.817  13.489
  312TMC3    C2 4726   4.460   0.783  13.457
  312TMC3    C3 4727   4.353   0.861  13.507
  312TMC3    C4 4728   4.607   0.919  13.585
  312TMC3    C5 4729   4.498   0.985  13.635
  312TMC3    C6 4730   4.371   0.969  13.589
  312TMC3     C 4731   4.679   0.816  13.367
  312TMC3     O 4732   4.639   0.733  13.281
  312TMC3     H 4733   4.433   0.714  13.378
  312TMC3    H1 4734   4.706   0.942  13.622
  312TMC3    H2 4735   4.289   1.020  13.639
  312TMC3    C7 4736   4.521   1.097  13.726
  312TMC3    C8 4737   4.225   0.851  13.440
  312TMC3    O1 4738   4.441   1.192  13.729
  312TMC3    O2 4739   4.193   0.741  13.398
  313MPD2     C 4740   3.987   0.185  11.585
  313MPD2    C1 4741   4.040   0.289  11.511
  313MPD2    C2 4742   4.125   0.263  11.405
  313MPD2    C3 4743   4.162   0.133  11.373
  313MPD2    C4 4744   4.109   0.027  11.443
  313MPD2    C5 4745   4.019   0.060  11.536
  313MPD2     H 4746   4.172   0.345  11.352
  313MPD2    H1 4747   4.129   4.703  11.423
  313MPD2    H2 4748   3.914   0.197  11.664
  313MPD2    H3 4749   3.963   4.757  11.577
  313MPD2     N 4750   4.249   0.111  11.259
  313MPD2    H5 4751   4.281   0.198  11.217
  313MPD2    N1 4752   4.006   0.422  11.530
  313MPD2    H7 4753   4.057   0.501  11.492
  314TMC3    C1 4754   3.877   0.599  11.614
  314TMC3    C2 4755   3.997   0.655  11.638
  314TMC3    C3 4756   4.022   0.782  11.584
  314TMC3    C4 4757   3.777   0.660  11.541
  314TMC3    C5 4758   3.806   0.783  11.485
  314TMC3    C6 4759   3.926   0.843  11.511
  314TMC3     C 4760   3.893   0.456  11.598
  314TMC3     O 4761   3.797   0.392  11.646
  314TMC3     H 4762   4.062   0.607  11.710
  314TMC3    H1 4763   3.689   0.600  11.521
  314TMC3    H2 4764   3.957   0.939  11.473
  314TMC3    C7 4765   3.741   0.789  11.355
  314TMC3    C8 4766   4.136   0.858  11.628
  314TMC3    O1 4767   3.641   0.720  11.347
  314TMC3    O2 4768   4.126   0.982  11.610
  315MPD2     C 4769   4.542   4.176  17.788
  315MPD2    C1 4770   4.616   4.248  17.877
  315MPD2    C2 4771   4.671   4.368  17.831
  315MPD2    C3 4772   4.642   4.426  17.709
  315MPD2    C4 4773   4.553   4.360  17.627
  315MPD2    C5 4774   4.508   4.228  17.666
  315MPD2     H 4775   4.738   4.422  17.896
  315MPD2    H1 4776   4.528   4.397  17.528
  315MPD2    H2 4777   4.514   4.073  17.808
  315MPD2    H3 4778   4.436   4.178  17.601
  315MPD2     N 4779   4.699   4.556  17.691
  315MPD2    H5 4780   4.779   4.583  17.748
  315MPD2    N1 4781   4.653   4.202  18.011
  315MPD2    H7 4782   4.693   4.274  18.070
  316TMC3    C1 4783   4.740   4.769  17.594
  316TMC3    C2 4784   0.084   4.763  17.657
  316TMC3    C3 4785   0.150   0.106  17.648
  316TMC3    C4 4786   4.686   0.098  17.531
  316TMC3    C5 4787   4.764   0.206  17.518
  316TMC3    C6 4788   0.112   0.213  17.577
  316TMC3     C 4789   4.656   4.649  17.599
  316TMC3     O 4790   4.564   4.647  17.518
  316TMC3     H 4791   0.140   4.676  17.689
  316TMC3    H1 4792   4.585   0.094  17.492
  316TMC3    H2 4793   0.161   0.309  17.587
  316TMC3    C7 4794   4.687   0.324  17.557
  316TMC3    C8 4795   0.257   0.139  17.743
  316TMC3    O1 4796   4.720   0.371  17.663
  316TMC3    O2 4797   0.338   0.228  17.710
  317MPD2     C 4798   1.273   2.957  12.850
  317MPD2    C1 4799   1.300   2.826  12.821
  317MPD2    C2 4800   1.389   2.765  12.904
  317MPD2    C3 4801   1.448   2.830  13.012
  317MPD2    C4 4802   1.419   2.963  13.041
  317MPD2    C5 4803   1.326   3.022  12.958
  317MPD2     H 4804   1.403   2.658  12.894
  317MPD2    H1 4805   1.454   3.025  13.122
  317MPD2    H2 4806   1.192   3.005  12.796
  317MPD2    H3 4807   1.306   3.126  12.982
  317MPD2     N 4808   1.541   2.758  13.095
  317MPD2    H5 4809   1.532   2.657  13.105
  317MPD2    N1 4810   1.259   2.754  12.714
  317MPD2    H7 4811   1.313   2.668  12.707
  318TMC3    C1 4812   1.645   2.712  13.301
  318TMC3    C2 4813   1.552   2.611  13.314
  318TMC3    C3 4814   1.579   2.520  13.417
  318TMC3    C4 4815   1.755   2.722  13.381
  318TMC3    C5 4816   1.774   2.620  13.473
  318TMC3    C6 4817   1.699   2.514  13.490
  318TMC3     C 4818   1.613   2.812  13.199
  318TMC3     O 4819   1.641   2.935  13.213
  318TMC3     H 4820   1.458   2.614  13.260
  318TMC3    H1 4821   1.830   2.800  13.367
  318TMC3    H2 4822   1.715   2.451  13.576
  318TMC3    C7 4823   1.891   2.643  13.549
  318TMC3    C8 4824   1.483   2.418  13.438
  318TMC3    O1 4825   1.912   2.763  13.570
  318TMC3    O2 4826   1.518   2.305  13.471
  319MPD2     C 4827   2.379   4.051  16.781
  319MPD2    C1 4828   2.262   4.017  16.850
  319MPD2    C2 4829   2.176   3.916  16.800
  319MPD2    C3 4830   2.201   3.847  16.678
  319MPD2    C4 4831   2.315   3.888  16.613
  319MPD2    C5 4832   2.397   3.985  16.663
  319MPD2     H 4833   2.089   3.895  16.862
  319MPD2    H1 4834   2.339   3.842  16.518
  319MPD2    H2 4835   2.454   4.119  16.818
  319MPD2    H3 4836   2.483   4.012  16.603
  319MPD2     N 4837   2.117   3.753  16.623
  319MPD2    H5 4838   2.146   3.742  16.526
  319MPD2    N1 4839   2.229   4.082  16.975
  319MPD2    H7 4840   2.130   4.078  16.998
  320TMC3    C1 4841   1.935   3.630  16.570
  320TMC3    C2 4842   1.909   3.709  16.463
  320TMC3    C3 4843   1.801   3.678  16.387
  320TMC3    C4 4844   1.853   3.534  16.613
  320TMC3    C5 4845   1.740   3.511  16.536
  320TMC3    C6 4846   1.704   3.586  16.423
  320TMC3     C 4847   2.007   3.695  16.672
  320TMC3     O 4848   1.965   3.689  16.785
  320TMC3     H 4849   1.967   3.799  16.445
  320TMC3    H1 4850   1.862   3.486  16.710
  320TMC3    H2 4851   1.619   3.559  16.361
  320TMC3    C7 4852   1.714   3.369  16.511
  320TMC3    C8 4853   1.760   3.792  16.304
  320TMC3    O1 4854   1.624   3.343  16.431
  320TMC3    O2 4855   1.754   3.893  16.374
  321TMC3    C1 4856   2.236   4.203  17.169
  321TMC3    C2 4857   2.136   4.129  17.227
  321TMC3    C3 4858   2.077   4.167  17.348
  321TMC3    C4 4859   2.291   4.307  17.241
  321TMC3    C5 4860   2.227   4.344  17.354
  321TMC3    C6 4861   2.110   4.286  17.405
  321TMC3     C 4862   2.311   4.152  17.063
  321TMC3     O 4863   2.429   4.182  17.052
  321TMC3     H 4864   2.104   4.040  17.174
  321TMC3    H1 4865   2.384   4.351  17.206
  321TMC3    H2 4866   2.074   4.318  17.502
  321TMC3    C7 4867   2.315   4.398  17.451
  321TMC3    C8 4868   2.101   4.061  17.452
  321TMC3    O1 4869   2.436   4.394  17.423
  321TMC3    O2 4870   2.096   4.105  17.565
  322MPD2     C 4871   1.226   0.518  13.841
  322MPD2    C1 4872   1.253   0.443  13.954
  322MPD2    C2 4873   1.267   0.304  13.946
  322MPD2    C3 4874   1.260   0.244  13.827
  322MPD2    C4 4875   1.223   0.314  13.711
  322MPD2    C5 4876   1.209   0.455  13.721
  322MPD2     H 4877   1.295   0.252  14.037
  322MPD2    H1 4878   1.180   0.265  13.625
  322MPD2    H2 4879   1.214   0.625  13.855
  322MPD2    H3 4880   1.183   0.516  13.635
  322MPD2     N 4881   1.299   0.111  13.812
  322MPD2    H5 4882   1.301   0.049  13.892
  322MPD2    N1 4883   1.271   0.514  14.073
  322MPD2    H7 4884   1.275   0.615  14.060
  323TMC3    C1 4885   1.380   0.556  14.284
  323TMC3    C2 4886   1.449   0.658  14.225
  323TMC3    C3 4887   1.541   0.719  14.309
  323TMC3    C4 4888   1.392   0.518  14.415
  323TMC3    C5 4889   1.488   0.586  14.492
  323TMC3    C6 4890   1.565   0.683  14.436
  323TMC3     C 4891   1.306   0.465  14.197
  323TMC3     O 4892   1.299   0.351  14.235
  323TMC3     H 4893   1.435   0.694  14.124
  323TMC3    H1 4894   1.328   0.446  14.465
  323TMC3    H2 4895   1.637   0.742  14.492
  323TMC3    C7 4896   1.550   0.494  14.588
  323TMC3    C8 4897   1.664   0.766  14.260
  323TMC3    O1 4898   1.533   0.373  14.566
  323TMC3    O2 4899   1.759   0.701  14.292
  324MPD2     C 4900   2.740   1.492  14.576
  324MPD2    C1 4901   2.774   1.609  14.509
  324MPD2    C2 4902   2.684   1.660  14.417
  324MPD2    C3 4903   2.563   1.596  14.392
  324MPD2    C4 4904   2.526   1.485  14.472
  324MPD2    C5 4905   2.619   1.434  14.558
  324MPD2     H 4906   2.717   1.748  14.363
  324MPD2    H1 4907   2.426   1.443  14.471
  324MPD2    H2 4908   2.805   1.442  14.646
  324MPD2    H3 4909   2.595   1.354  14.627
  324MPD2     N 4910   2.466   1.638  14.293
  324MPD2    H5 4911   2.377   1.590  14.293
  324MPD2    N1 4912   2.899   1.679  14.525
  324MPD2    H7 4913   2.905   1.763  14.469
  325TMC3    C1 4914   2.351   1.777  14.144
  325TMC3    C2 4915   2.255   1.680  14.138
  325TMC3    C3 4916   2.133   1.714  14.089
  325TMC3    C4 4917   2.324   1.910  14.118
  325TMC3    C5 4918   2.202   1.941  14.076
  325TMC3    C6 4919   2.108   1.843  14.051
  325TMC3     C 4920   2.479   1.745  14.213
  325TMC3     O 4921   2.562   1.833  14.216
  325TMC3     H 4922   2.289   1.577  14.144
  325TMC3    H1 4923   2.406   1.981  14.121
  325TMC3    H2 4924   2.013   1.863  14.004
  325TMC3    C7 4925   2.176   2.075  14.052
  325TMC3    C8 4926   2.041   1.602  14.065
  325TMC3    O1 4927   2.272   2.144  14.021
  325TMC3    O2 4928   2.064   1.496  14.120
  326MPD2     C 4929   4.113   3.323  11.416
  326MPD2    C1 4930   4.125   3.286  11.286
  326MPD2    C2 4931   4.249   3.268  11.227
  326MPD2    C3 4932   4.359   3.292  11.302
  326MPD2    C4 4933   4.345   3.340  11.431
  326MPD2    C5 4934   4.222   3.349  11.488
  326MPD2     H 4935   4.252   3.225  11.128
  326MPD2    H1 4936   4.435   3.368  11.484
  326MPD2    H2 4937   4.018   3.344  11.464
  326MPD2    H3 4938   4.209   3.383  11.590
  326MPD2     N 4939   4.490   3.266  11.261
  326MPD2    H5 4940   4.569   3.278  11.324
  326MPD2    N1 4941   4.014   3.263  11.203
  326MPD2    H7 4942   4.042   3.228  11.112
  327TMC3    C1 4943   3.798   3.264  11.122
  327TMC3    C2 4944   3.720   3.361  11.062
  327TMC3    C3 4945   3.678   3.332  10.935
  327TMC3    C4 4946   3.838   3.148  11.064
  327TMC3    C5 4947   3.809   3.137  10.930
  327TMC3    C6 4948   3.730   3.231  10.867
  327TMC3     C 4949   3.883   3.300  11.232
  327TMC3     O 4950   3.840   3.371  11.321
  327TMC3     H 4951   3.705   3.460  11.103
  327TMC3    H1 4952   3.897   3.074  11.117
  327TMC3    H2 4953   3.702   3.232  10.762
  327TMC3    C7 4954   3.913   3.074  10.849
  327TMC3    C8 4955   3.597   3.430  10.863
  327TMC3    O1 4956   3.927   3.113  10.737
  327TMC3    O2 4957   3.611   3.439  10.740
  328MPD2     C 4958   1.974   2.876  17.578
  328MPD2    C1 4959   1.913   2.766  17.513
  328MPD2    C2 4960   1.874   2.794  17.378
  328MPD2    C3 4961   1.893   2.919  17.323
  328MPD2    C4 4962   1.938   3.019  17.393
  328MPD2    C5 4963   1.989   2.994  17.519
  328MPD2     H 4964   1.811   2.722  17.328
  328MPD2    H1 4965   1.959   3.117  17.351
  328MPD2    H2 4966   2.011   2.881  17.680
  328MPD2    H3 4967   2.032   3.074  17.578
  328MPD2     N 4968   1.818   2.957  17.203
  328MPD2    H5 4969   1.818   3.057  17.187
  328MPD2    N1 4970   1.853   2.666  17.586
  328MPD2    H7 4971   1.864   2.663  17.687
  329TMC3    C1 4972   1.692   2.497  17.622
  329TMC3    C2 4973   1.612   2.583  17.687
  329TMC3    C3 4974   1.484   2.538  17.720
  329TMC3    C4 4975   1.650   2.375  17.580
  329TMC3    C5 4976   1.521   2.336  17.605
  329TMC3    C6 4977   1.438   2.422  17.672
  329TMC3     C 4978   1.792   2.553  17.534
  329TMC3     O 4979   1.783   2.511  17.419
  329TMC3     H 4980   1.640   2.685  17.710
  329TMC3    H1 4981   1.726   2.321  17.524
  329TMC3    H2 4982   1.339   2.399  17.708
  329TMC3    C7 4983   1.488   2.192  17.584
  329TMC3    C8 4984   1.385   2.642  17.705
  329TMC3    O1 4985   1.413   2.140  17.668
  329TMC3    O2 4986   1.274   2.629  17.652
  330TMC3    C1 4987   4.379   2.609   9.776
  330TMC3    C2 4988   4.341   2.500   9.695
  330TMC3    C3 4989   4.361   2.374   9.741
  330TMC3    C4 4990   4.424   2.586   9.905
  330TMC3    C5 4991   4.438   2.456   9.946
  330TMC3    C6 4992   4.417   2.352   9.864
  330TMC3     C 4993   4.334   2.740   9.733
  330TMC3     O 4994   4.357   2.837   9.806
  330TMC3     H 4995   4.326   2.508   9.588
  330TMC3    H1 4996   4.434   2.674   9.967
  330TMC3    H2 4997   4.453   2.253   9.889
  330TMC3    C7 4998   4.516   2.441  10.061
  330TMC3    C8 4999   4.281   2.270   9.678
  330TMC3    O1 5000   4.557   2.543  10.111
  330TMC3    O2 5001   4.245   2.310   9.566
  331MPD2     C 5002   3.102   1.179  13.665
  331MPD2    C1 5003   3.123   1.226  13.537
  331MPD2    C2 5004   3.036   1.187  13.437
  331MPD2    C3 5005   2.942   1.091  13.472
  331MPD2    C4 5006   2.933   1.044  13.597
  331MPD2    C5 5007   3.010   1.095  13.700
  331MPD2     H 5008   3.044   1.217  13.333
  331MPD2    H1 5009   2.855   0.979  13.635
  331MPD2    H2 5010   3.175   1.198  13.743
  331MPD2    H3 5011   3.010   1.063  13.804
  331MPD2     N 5012   2.845   1.046  13.372
  331MPD2    H5 5013   2.860   1.089  13.281
  331MPD2    N1 5014   3.241   1.304  13.515
  331MPD2    H7 5015   3.284   1.338  13.600
  332TMC3    C1 5016   2.665   0.929  13.273
  332TMC3    C2 5017   2.660   1.026  13.176
  332TMC3    C3 5018   2.595   0.991  13.059
  332TMC3    C4 5019   2.611   0.807  13.255
  332TMC3    C5 5020   2.552   0.775  13.139
  332TMC3    C6 5021   2.549   0.864  13.039
  332TMC3     C 5022   2.750   0.954  13.390
  332TMC3     O 5023   2.714   0.889  13.487
  332TMC3     H 5024   2.678   1.131  13.197
  332TMC3    H1 5025   2.627   0.737  13.336
  332TMC3    H2 5026   2.513   0.835  12.941
  332TMC3    C7 5027   2.589   0.642  13.098
  332TMC3    C8 5028   2.618   1.075  12.946
  332TMC3    O1 5029   2.502   0.571  13.040
  332TMC3    O2 5030   2.696   1.167  12.960
  333MPD2     C 5031   2.531   1.654  11.426
  333MPD2    C1 5032   2.521   1.580  11.313
  333MPD2    C2 5033   2.501   1.442  11.320
  333MPD2    C3 5034   2.477   1.382  11.441
  333MPD2    C4 5035   2.492   1.457  11.558
  333MPD2    C5 5036   2.522   1.592  11.546
  333MPD2     H 5037   2.504   1.391  11.225
  333MPD2    H1 5038   2.482   1.416  11.658
  333MPD2    H2 5039   2.543   1.761  11.410
  333MPD2    H3 5040   2.535   1.657  11.632
  333MPD2     N 5041   2.461   1.246  11.432
  333MPD2    H5 5042   2.447   1.210  11.338
  333MPD2    N1 5043   2.530   1.655  11.188
  333MPD2    H7 5044   2.572   1.747  11.193
  334TMC3    C1 5045   2.556   1.680  10.953
  334TMC3    C2 5046   2.645   1.608  10.876
  334TMC3    C3 5047   2.755   1.673  10.833
  334TMC3    C4 5048   2.576   1.814  10.976
  334TMC3    C5 5049   2.685   1.873  10.921
  334TMC3    C6 5050   2.781   1.803  10.858
  334TMC3     C 5051   2.499   1.604  11.061
  334TMC3     O 5052   2.462   1.493  11.036
  334TMC3     H 5053   2.629   1.502  10.862
  334TMC3    H1 5054   2.508   1.866  11.042
  334TMC3    H2 5055   2.876   1.849  10.834
  334TMC3    C7 5056   2.717   2.009  10.966
  334TMC3    C8 5057   2.872   1.590  10.808
  334TMC3    O1 5058   2.836   2.048  10.968
  334TMC3    O2 5059   2.859   1.499  10.728
  335TMC3    C1 5060   2.477   2.624  17.488
  335TMC3    C2 5061   2.412   2.560  17.390
  335TMC3    C3 5062   2.467   2.570  17.259
  335TMC3    C4 5063   2.599   2.685  17.468
  335TMC3    C5 5064   2.656   2.678  17.340
  335TMC3    C6 5065   2.579   2.635  17.231
  335TMC3     C 5066   2.402   2.661  17.609
  335TMC3     O 5067   2.284   2.625  17.614
  335TMC3     H 5068   2.318   2.508  17.407
  335TMC3    H1 5069   2.663   2.714  17.550
  335TMC3    H2 5070   2.623   2.631  17.132
  335TMC3    C7 5071   2.789   2.730  17.312
  335TMC3    C8 5072   2.412   2.488  17.153
  335TMC3    O1 5073   2.854   2.684  17.219
  335TMC3    O2 5074   2.470   2.489  17.049
  336MPD2     C 5075   2.351   0.169  16.496
  336MPD2    C1 5076   2.309   0.137  16.372
  336MPD2    C2 5077   2.320   0.003  16.330
  336MPD2    C3 5078   2.374   4.686  16.419
  336MPD2    C4 5079   2.406   4.726  16.544
  336MPD2    C5 5080   2.397   0.076  16.580
  336MPD2     H 5081   2.280   4.751  16.235
  336MPD2    H1 5082   2.436   4.654  16.619
  336MPD2    H2 5083   2.346   0.267  16.542
  336MPD2    H3 5084   2.408   0.100  16.685
  336MPD2     N 5085   2.371   4.550  16.392
  336MPD2    H5 5086   2.375   4.482  16.467
  336MPD2    N1 5087   2.254   0.226  16.281
  336MPD2    H7 5088   2.220   0.183  16.196
  337TMC3    C1 5089   2.159   0.406  16.171
  337TMC3    C2 5090   2.073   0.324  16.093
  337TMC3    C3 5091   2.014   0.375  15.981
  337TMC3    C4 5092   2.190   0.528  16.136
  337TMC3    C5 5093   2.132   0.578  16.025
  337TMC3    C6 5094   2.051   0.506  15.938
  337TMC3     C 5095   2.217   0.359  16.294
  337TMC3     O 5096   2.254   0.445  16.377
  337TMC3     H 5097   2.053   0.222  16.123
  337TMC3    H1 5098   2.254   0.590  16.197
  337TMC3    H2 5099   2.009   0.554  15.850
  337TMC3    C7 5100   2.165   0.712  15.986
  337TMC3    C8 5101   1.897   0.311  15.932
  337TMC3    O1 5102   2.154   0.742  15.867
  337TMC3    O2 5103   1.862   0.203  15.985
  338MPD2     C 5104   2.802   0.161  19.103
  338MPD2    C1 5105   2.754   0.037  19.055
  338MPD2    C2 5106   2.634   4.769  19.102
  338MPD2    C3 5107   2.556   0.062  19.186
  338MPD2    C4 5108   2.599   0.185  19.241
  338MPD2    C5 5109   2.723   0.233  19.197
  338MPD2     H 5110   2.602   4.675  19.059
  338MPD2    H1 5111   2.553   0.241  19.322
  338MPD2    H2 5112   2.891   0.211  19.065
  338MPD2    H3 5113   2.760   0.331  19.226
  338MPD2     N 5114   2.427   4.779  19.213
  338MPD2    H5 5115   2.397   4.699  19.159
  338MPD2    N1 5116   2.837   4.739  18.964
  338MPD2    H7 5117   2.801   4.644  18.955
  339TMC3    C1 5118   2.217   0.008  19.299
  339TMC3    C2 5119   2.218   4.657  19.302
  339TMC3    C3 5120   2.102   4.582  19.293
  339TMC3    C4 5121   2.099   0.082  19.278
  339TMC3    C5 5122   1.987   0.003  19.259
  339TMC3    C6 5123   1.982   4.643  19.265
  339TMC3     C 5124   2.337   0.074  19.279
  339TMC3     O 5125   2.331   0.195  19.293
  339TMC3     H 5126   2.311   4.606  19.325
  339TMC3    H1 5127   2.105   0.189  19.264
  339TMC3    H2 5128   1.892   4.587  19.243
  339TMC3    C7 5129   1.862   0.078  19.268
  339TMC3    C8 5130   2.111   4.448  19.336
  339TMC3    O1 5131   1.873   0.179  19.336
  339TMC3    O2 5132   2.219   4.388  19.324
  340MPD2     C 5133   2.315   2.751  10.195
  340MPD2    C1 5134   2.340   2.623  10.237
  340MPD2    C2 5135   2.388   2.599  10.362
  340MPD2    C3 5136   2.428   2.702  10.447
  340MPD2    C4 5137   2.406   2.828  10.400
  340MPD2    C5 5138   2.358   2.851  10.278
  340MPD2     H 5139   2.405   2.498  10.397
  340MPD2    H1 5140   2.427   2.914  10.462
  340MPD2    H2 5141   2.281   2.782  10.097
  340MPD2    H3 5142   2.345   2.953  10.244
  340MPD2     N 5143   2.509   2.682  10.558
  340MPD2    H5 5144   2.536   2.767  10.607
  340MPD2    N1 5145   2.301   2.524  10.151
  340MPD2    H7 5146   2.275   2.560  10.060
  341TMC3    C1 5147   2.293   2.316  10.049
  341TMC3    C2 5148   2.227   2.200  10.054
  341TMC3    C3 5149   2.230   2.114   9.943
  341TMC3    C4 5150   2.349   2.363   9.940
  341TMC3    C5 5151   2.374   2.273   9.838
  341TMC3    C6 5152   2.321   2.143   9.838
  341TMC3     C 5153   2.293   2.392  10.173
  341TMC3     O 5154   2.309   2.327  10.277
  341TMC3     H 5155   2.155   2.175  10.131
  341TMC3    H1 5156   2.404   2.455   9.955
  341TMC3    H2 5157   2.342   2.075   9.757
  341TMC3    C7 5158   2.488   2.300   9.749
  341TMC3    C8 5159   2.180   1.982   9.959
  341TMC3    O1 5160   2.551   2.206   9.703
  341TMC3    O2 5161   2.175   1.933  10.073
  342MPD2     C 5162   0.476   0.788  17.722
  342MPD2    C1 5163   0.612   0.821  17.730
  342MPD2    C2 5164   0.641   0.950  17.755
  342MPD2    C3 5165   0.538   1.050  17.759
  342MPD2    C4 5166   0.402   1.011  17.754
  342MPD2    C5 5167   0.376   0.877  17.732
  342MPD2     H 5168   0.746   0.972  17.771
  342MPD2    H1 5169   0.321   1.082  17.758
  342MPD2    H2 5170   0.440   0.690  17.692
  342MPD2    H3 5171   0.274   0.843  17.721
  342MPD2     N 5172   0.564   1.187  17.773
  342MPD2    H5 5173   0.486   1.247  17.797
  342MPD2    N1 5174   0.708   0.715  17.748
  342MPD2    H7 5175   0.802   0.753  17.746
  343TMC3    C1 5176   0.794   0.499  17.734
  343TMC3    C2 5177   0.870   0.529  17.623
  343TMC3    C3 5178   0.906   0.429  17.538
  343TMC3    C4 5179   0.768   0.367  17.763
  343TMC3    C5 5180   0.823   0.274  17.685
  343TMC3    C6 5181   0.886   0.300  17.571
  343TMC3     C 5182   0.680   0.585  17.752
  343TMC3     O 5183   0.581   0.539  17.800
  343TMC3     H 5184   0.893   0.633  17.604
  343TMC3    H1 5185   0.697   0.340  17.840
  343TMC3    H2 5186   0.917   0.215  17.511
  343TMC3    C7 5187   0.779   0.141  17.710
  343TMC3    C8 5188   1.036   0.457  17.481
  343TMC3    O1 5189   0.747   0.070  17.615
  343TMC3    O2 5190   1.103   0.539  17.544
  344MPD2     C 5191   1.401   0.712  11.455
  344MPD2    C1 5192   1.408   0.636  11.339
  344MPD2    C2 5193   1.478   0.687  11.229
  344MPD2    C3 5194   1.540   0.815  11.243
  344MPD2    C4 5195   1.528   0.880  11.364
  344MPD2    C5 5196   1.445   0.840  11.465
  344MPD2     H 5197   1.474   0.631  11.136
  344MPD2    H1 5198   1.555   0.985  11.367
  344MPD2    H2 5199   1.357   0.677  11.548
  344MPD2    H3 5200   1.438   0.899  11.556
  344MPD2     N 5201   1.604   0.886  11.142
  344MPD2    H5 5202   1.631   0.979  11.171
  344MPD2    N1 5203   1.367   0.501  11.325
  344MPD2    H7 5204   1.392   0.443  11.245
  345TMC3    C1 5205   1.682   0.950  10.928
  345TMC3    C2 5206   1.768   1.037  10.989
  345TMC3    C3 5207   1.830   1.138  10.921
  345TMC3    C4 5208   1.630   0.979  10.804
  345TMC3    C5 5209   1.679   1.087  10.738
  345TMC3    C6 5210   1.770   1.168  10.796
  345TMC3     C 5211   1.614   0.846  11.011
  345TMC3     O 5212   1.530   0.776  10.954
  345TMC3     H 5213   1.814   1.012  11.084
  345TMC3    H1 5214   1.540   0.928  10.773
  345TMC3    H2 5215   1.803   1.251  10.735
  345TMC3    C7 5216   1.602   1.159  10.642
  345TMC3    C8 5217   1.910   1.235  10.986
  345TMC3    O1 5218   1.604   1.278  10.643
  345TMC3    O2 5219   1.902   1.246  11.112
  346MPD2     C 5220   1.100   1.798  14.048
  346MPD2    C1 5221   1.210   1.864  13.998
  346MPD2    C2 5222   1.270   1.962  14.076
  346MPD2    C3 5223   1.222   1.994  14.201
  346MPD2    C4 5224   1.110   1.926  14.245
  346MPD2    C5 5225   1.051   1.828  14.172
  346MPD2     H 5226   1.357   2.017  14.042
  346MPD2    H1 5227   1.058   1.946  14.338
  346MPD2    H2 5228   1.050   1.721  13.990
  346MPD2    H3 5229   0.970   1.772  14.217
  346MPD2     N 5230   1.283   2.096  14.275
  346MPD2    H5 5231   1.367   2.138  14.236
  346MPD2    N1 5232   1.258   1.839  13.871
  346MPD2    H7 5233   1.337   1.895  13.840
  347TMC3    C1 5234   1.306   2.278  14.413
  347TMC3    C2 5235   1.390   2.329  14.316
  347TMC3    C3 5236   1.504   2.387  14.346
  347TMC3    C4 5237   1.336   2.306  14.547
  347TMC3    C5 5238   1.456   2.361  14.575
  347TMC3    C6 5239   1.541   2.400  14.478
  347TMC3     C 5240   1.226   2.160  14.381
  347TMC3     O 5241   1.141   2.132  14.464
  347TMC3     H 5242   1.375   2.329  14.209
  347TMC3    H1 5243   1.277   2.260  14.625
  347TMC3    H2 5244   1.625   2.463  14.505
  347TMC3    C7 5245   1.506   2.348  14.711
  347TMC3    C8 5246   1.607   2.325  14.269
  347TMC3    O1 5247   1.423   2.337  14.801
  347TMC3    O2 5248   1.576   2.221  14.215
  348MPD2     C 5249   4.684   2.048  12.494
  348MPD2    C1 5250   0.019   2.030  12.420
  348MPD2    C2 5251   0.039   2.092  12.304
  348MPD2    C3 5252   4.714   2.161  12.240
  348MPD2    C4 5253   4.595   2.165  12.308
  348MPD2    C5 5254   4.582   2.119  12.438
  348MPD2     H 5255   0.138   2.091  12.261
  348MPD2    H1 5256   4.505   2.214  12.272
  348MPD2    H2 5257   4.668   2.012  12.595
  348MPD2    H3 5258   4.492   2.140  12.494
  348MPD2     N 5259   4.725   2.219  12.107
  348MPD2    H5 5260   0.039   2.232  12.073
  348MPD2    N1 5261   0.129   1.952  12.469
  348MPD2    H7 5262   0.202   1.939  12.399
  349TMC3    C1 5263   0.243   1.792  12.586
  349TMC3    C2 5264   0.237   1.667  12.651
  349TMC3    C3 5265   0.307   1.563  12.592
  349TMC3    C4 5266   0.333   1.807  12.483
  349TMC3    C5 5267   0.407   1.700  12.430
  349TMC3    C6 5268   0.399   1.578  12.493
  349TMC3     C 5269   0.128   1.883  12.589
  349TMC3     O 5270   0.045   1.882  12.684
  349TMC3     H 5271   0.159   1.652  12.725
  349TMC3    H1 5272   0.365   1.907  12.455
  349TMC3    H2 5273   0.478   1.506  12.473
  349TMC3    C7 5274   0.527   1.731  12.361
  349TMC3    C8 5275   0.269   1.431  12.642
  349TMC3    O1 5276   0.627   1.667  12.388
  349TMC3    O2 5277   0.248   1.416  12.758
  350MPD2     C 5278   3.654   4.673  10.804
  350MPD2    C1 5279   3.741   4.619  10.709
  350MPD2    C2 5280   3.872   4.666  10.703
  350MPD2    C3 5281   3.917   4.762  10.788
  350MPD2    C4 5282   3.823   0.039  10.870
  350MPD2    C5 5283   3.697   4.771  10.885
  350MPD2     H 5284   3.941   4.615  10.637
  350MPD2    H1 5285   3.854   0.129  10.923
  350MPD2    H2 5286   3.553   4.636  10.813
  350MPD2    H3 5287   3.637   0.042  10.959
  350MPD2     N 5288   4.055   0.017  10.777
  350MPD2    H5 5289   4.097   0.006  10.685
  350MPD2    N1 5290   3.715   4.510  10.626
  350MPD2    H7 5291   3.798   4.475  10.578
  351TMC3    C1 5292   3.606   4.328  10.535
  351TMC3    C2 5293   3.727   4.269  10.529
  351TMC3    C3 5294   3.744   4.179  10.422
  351TMC3    C4 5295   3.501   4.304  10.446
  351TMC3    C5 5296   3.522   4.215  10.349
  351TMC3    C6 5297   3.644   4.152  10.334
  351TMC3     C 5298   3.595   4.443  10.619
  351TMC3     O 5299   3.488   4.467  10.670
  351TMC3     H 5300   3.811   4.300  10.591
  351TMC3    H1 5301   3.410   4.359  10.466
  351TMC3    H2 5302   3.662   4.085  10.251
  351TMC3    C7 5303   3.412   4.194  10.254
  351TMC3    C8 5304   3.879   4.117  10.405
  351TMC3    O1 5305   3.320   4.278  10.254
  351TMC3    O2 5306   3.899   4.070  10.292
  352MPD2     C 5307   2.482   2.292  18.894
  352MPD2    C1 5308   2.404   2.226  18.992
  352MPD2    C2 5309   2.476   2.131  19.060
  352MPD2    C3 5310   2.614   2.100  19.035
  352MPD2    C4 5311   2.675   2.174  18.933
  352MPD2    C5 5312   2.607   2.274  18.866
  352MPD2     H 5313   2.420   2.074  19.133
  352MPD2    H1 5314   2.777   2.146  18.912
  352MPD2    H2 5315   2.432   2.374  18.843
  352MPD2    H3 5316   2.661   2.333  18.793
  352MPD2     N 5317   2.683   1.999  19.097
  352MPD2    H5 5318   2.783   1.999  19.078
  352MPD2    N1 5319   2.273   2.258  19.007
  352MPD2    H7 5320   2.239   2.328  18.942
  353TMC3    C1 5321   2.731   1.839  19.258
  353TMC3    C2 5322   2.867   1.853  19.227
  353TMC3    C3 5323   2.957   1.744  19.245
  353TMC3    C4 5324   2.684   1.732  19.329
  353TMC3    C5 5325   2.776   1.631  19.354
  353TMC3    C6 5326   2.910   1.632  19.314
  353TMC3     C 5327   2.633   1.924  19.205
  353TMC3     O 5328   2.529   1.926  19.270
  353TMC3     H 5329   2.903   1.937  19.168
  353TMC3    H1 5330   2.578   1.716  19.341
  353TMC3    H2 5331   2.970   1.547  19.345
  353TMC3    C7 5332   2.729   1.492  19.371
  353TMC3    C8 5333   3.075   1.735  19.157
  353TMC3    O1 5334   2.799   1.397  19.335
  353TMC3    O2 5335   3.107   1.831  19.091
  354TMC3    C1 5336   4.179   2.946  13.970
  354TMC3    C2 5337   4.264   3.050  13.994
  354TMC3    C3 5338   4.354   3.099  13.898
  354TMC3    C4 5339   4.190   2.877  13.858
  354TMC3    C5 5340   4.273   2.924  13.764
  354TMC3    C6 5341   4.357   3.030  13.775
  354TMC3     C 5342   4.124   2.877  14.086
  354TMC3     O 5343   4.020   2.816  14.069
  354TMC3     H 5344   4.255   3.109  14.085
  354TMC3    H1 5345   4.108   2.810  13.834
  354TMC3    H2 5346   4.395   3.076  13.685
  354TMC3    C7 5347   4.251   2.883  13.628
  354TMC3    C8 5348   4.363   3.238  13.867
  354TMC3    O1 5349   4.134   2.857  13.591
  354TMC3    O2 5350   4.263   3.294  13.833
  355MPD2     C 5351   4.201   3.885  12.085
  355MPD2    C1 5352   4.311   3.847  12.018
  355MPD2    C2 5353   4.413   3.779  12.086
  355MPD2    C3 5354   4.398   3.748  12.223
  355MPD2    C4 5355   4.279   3.780  12.280
  355MPD2    C5 5356   4.183   3.844  12.212
  355MPD2     H 5357   4.514   3.766  12.050
  355MPD2    H1 5358   4.253   3.748  12.380
  355MPD2    H2 5359   4.118   3.935  12.036
  355MPD2    H3 5360   4.095   3.873  12.268
  355MPD2     N 5361   4.507   3.695  12.297
  355MPD2    H5 5362   4.489   3.686  12.397
  355MPD2    N1 5363   4.336   3.898  11.880
  355MPD2    H7 5364   4.266   3.962  11.844
  356TMC3    C1 5365   4.732   3.717  12.307
  356TMC3    C2 5366   0.022   3.792  12.215
  356TMC3    C3 5367   0.079   3.910  12.253
  356TMC3    C4 5368   4.715   3.768  12.438
  356TMC3    C5 5369   0.000   3.882  12.467
  356TMC3    C6 5370   0.073   3.959  12.384
  356TMC3     C 5371   4.622   3.652  12.244
  356TMC3     O 5372   4.647   3.602  12.132
  356TMC3     H 5373   0.031   3.766  12.110
  356TMC3    H1 5374   4.666   3.705  12.511
  356TMC3    H2 5375   0.117   4.056  12.407
  356TMC3    C7 5376   0.016   3.913  12.607
  356TMC3    C8 5377   0.133   3.991  12.145
  356TMC3    O1 5378   0.025   3.814  12.681
  356TMC3    O2 5379   0.108   3.952  12.032
  357MPD2     C 5380   4.629   3.373  18.334
  357MPD2    C1 5381   4.572   3.395  18.459
  357MPD2    C2 5382   4.506   3.515  18.461
  357MPD2    C3 5383   4.493   3.609  18.359
  357MPD2    C4 5384   4.553   3.576  18.233
  357MPD2    C5 5385   4.618   3.455  18.228
  357MPD2     H 5386   4.462   3.552  18.553
  357MPD2    H1 5387   4.549   3.642  18.147
  357MPD2    H2 5388   4.688   3.283  18.317
  357MPD2    H3 5389   4.651   3.420  18.131
  357MPD2     N 5390   4.414   3.726  18.360
  357MPD2    H5 5391   4.381   3.756  18.269
  357MPD2    N1 5392   4.577   3.304  18.562
  357MPD2    H7 5393   4.637   3.225  18.540
  358TMC3    C1 5394   4.470   3.206  18.757
  358TMC3    C2 5395   4.473   3.093  18.678
  358TMC3    C3 5396   4.362   3.010  18.692
  358TMC3    C4 5397   4.370   3.240  18.837
  358TMC3    C5 5398   4.260   3.158  18.839
  358TMC3    C6 5399   4.252   3.050  18.763
  358TMC3     C 5400   4.525   3.325  18.686
  358TMC3     O 5401   4.481   3.431  18.733
  358TMC3     H 5402   4.566   3.072  18.626
  358TMC3    H1 5403   4.392   3.318  18.908
  358TMC3    H2 5404   4.169   2.990  18.798
  358TMC3    C7 5405   4.177   3.164  18.958
  358TMC3    C8 5406   4.324   2.950  18.560
  358TMC3    O1 5407   4.142   3.061  19.009
  358TMC3    O2 5408   4.386   2.990  18.460
  359MPD2     C 5409   4.645   2.756  12.825
  359MPD2    C1 5410   4.619   2.690  12.710
  359MPD2    C2 5411   4.526   2.587  12.711
  359MPD2    C3 5412   4.450   2.571  12.829
  359MPD2    C4 5413   4.473   2.647  12.937
  359MPD2    C5 5414   4.584   2.728  12.945
  359MPD2     H 5415   4.498   2.525  12.627
  359MPD2    H1 5416   4.409   2.646  13.025
  359MPD2    H2 5417   4.717   2.837  12.831
  359MPD2    H3 5418   4.599   2.792  13.031
  359MPD2     N 5419   4.346   2.472  12.835
  359MPD2    H5 5420   4.299   2.470  12.925
  359MPD2    N1 5421   4.691   2.715  12.587
  359MPD2    H7 5422   4.656   2.654  12.514
  360TMC3    C1 5423   0.022   2.823  12.411
  360TMC3    C2 5424   0.099   2.933  12.367
  360TMC3    C3 5425   0.131   2.947  12.237
  360TMC3    C4 5426   0.002   2.716  12.322
  360TMC3    C5 5427   0.049   2.731  12.194
  360TMC3    C6 5428   0.117   2.839  12.152
  360TMC3     C 5429   4.776   2.820  12.555
  360TMC3     O 5430   0.050   2.897  12.634
  360TMC3     H 5431   0.113   3.008  12.445
  360TMC3    H1 5432   4.739   2.621  12.349
  360TMC3    H2 5433   0.138   2.866  12.049
  360TMC3    C7 5434   4.768   2.657  12.087
  360TMC3    C8 5435   0.251   3.022  12.210
  360TMC3    O1 5436   0.055   2.636  11.983
  360TMC3    O2 5437   0.256   3.141  12.237
  361MPD2     C 5438   1.407   1.003  16.921
  361MPD2    C1 5439   1.441   1.098  17.007
  361MPD2    C2 5440   1.553   1.092  17.082
  361MPD2    C3 5441   1.644   0.989  17.056
  361MPD2    C4 5442   1.614   0.904  16.955
  361MPD2    C5 5443   1.489   0.903  16.900
  361MPD2     H 5444   1.566   1.163  17.163
  361MPD2    H1 5445   1.670   0.813  16.934
  361MPD2    H2 5446   1.318   1.006  16.859
  361MPD2    H3 5447   1.457   0.827  16.830
  361MPD2     N 5448   1.775   0.994  17.101
  361MPD2    H5 5449   1.837   0.922  17.065
  361MPD2    N1 5450   1.350   1.210  17.037
  361MPD2    H7 5451   1.377   1.279  17.106
  362TMC3    C1 5452   1.161   1.349  17.016
  362TMC3    C2 5453   1.141   1.357  17.150
  362TMC3    C3 5454   1.061   1.456  17.197
  362TMC3    C4 5455   1.101   1.436  16.931
  362TMC3    C5 5456   1.014   1.518  16.986
  362TMC3    C6 5457   1.003   1.544  17.120
  362TMC3     C 5458   1.240   1.240  16.960
  362TMC3     O 5459   1.217   1.201  16.849
  362TMC3     H 5460   1.187   1.292  17.223
  362TMC3    H1 5461   1.109   1.411  16.826
  362TMC3    H2 5462   0.936   1.622  17.156
  362TMC3    C7 5463   0.928   1.582  16.888
  362TMC3    C8 5464   0.970   1.416  17.304
  362TMC3    O1 5465   0.881   1.692  16.925
  362TMC3    O2 5466   0.958   1.295  17.327
  363TMC3    C1 5467   0.174   4.159   9.790
  363TMC3    C2 5468   0.191   4.058   9.886
  363TMC3    C3 5469   0.153   4.083  10.014
  363TMC3    C4 5470   0.101   4.271   9.819
  363TMC3    C5 5471   0.048   4.282   9.947
  363TMC3    C6 5472   0.080   4.192  10.045
  363TMC3     C 5473   0.194   4.134   9.646
  363TMC3     O 5474   0.135   4.203   9.563
  363TMC3     H 5475   0.254   3.973   9.860
  363TMC3    H1 5476   0.071   4.341   9.741
  363TMC3    H2 5477   0.046   4.178  10.147
  363TMC3    C7 5478   4.709   4.372   9.964
  363TMC3    C8 5479   0.209   4.010  10.123
  363TMC3    O1 5480   4.668   4.428   9.865
  363TMC3    O2 5481   0.241   4.077  10.219
  364MPD2     C 5482   3.184   3.732  10.814
  364MPD2    C1 5483   3.295   3.722  10.735
  364MPD2    C2 5484   3.402   3.641  10.770
  364MPD2    C3 5485   3.404   3.584  10.900
  364MPD2    C4 5486   3.298   3.613  10.981
  364MPD2    C5 5487   3.193   3.686  10.941
  364MPD2     H 5488   3.479   3.628  10.695
  364MPD2    H1 5489   3.304   3.570  11.080
  364MPD2    H2 5490   3.097   3.783  10.774
  364MPD2    H3 5491   3.109   3.696  11.009
  364MPD2     N 5492   3.505   3.493  10.942
  364MPD2    H5 5493   3.505   3.464  11.039
  364MPD2    N1 5494   3.288   3.788  10.614
  364MPD2    H7 5495   3.199   3.830  10.588
  365TMC3    C1 5496   3.531   3.819  10.575
  365TMC3    C2 5497   3.615   3.772  10.477
  365TMC3    C3 5498   3.752   3.783  10.503
  365TMC3    C4 5499   3.572   3.892  10.681
  365TMC3    C5 5500   3.709   3.902  10.698
  365TMC3    C6 5501   3.801   3.841  10.614
  365TMC3     C 5502   3.393   3.822  10.530
  365TMC3     O 5503   3.387   3.859  10.414
  365TMC3     H 5504   3.573   3.715  10.395
  365TMC3    H1 5505   3.502   3.943  10.745
  365TMC3    H2 5506   3.908   3.860  10.621
  365TMC3    C7 5507   3.755   4.014  10.778
  365TMC3    C8 5508   3.847   3.704  10.426
  365TMC3    O1 5509   3.859   4.067  10.755
  365TMC3    O2 5510   3.962   3.742  10.429
  366MPD2     C 5511   1.941   3.994  15.568
  366MPD2    C1 5512   1.997   4.099  15.496
  366MPD2    C2 5513   2.095   4.065  15.410
  366MPD2    C3 5514   2.138   3.936  15.396
  366MPD2    C4 5515   2.078   3.829  15.461
  366MPD2    C5 5516   1.977   3.865  15.549
  366MPD2     H 5517   2.143   4.138  15.346
  366MPD2    H1 5518   2.116   3.728  15.461
  366MPD2    H2 5519   1.874   4.008  15.652
  366MPD2    H3 5520   1.930   3.789  15.610
  366MPD2     N 5521   2.256   3.918  15.311
  366MPD2    H5 5522   2.281   4.001  15.258
  366MPD2    N1 5523   1.973   4.238  15.527
  366MPD2    H7 5524   2.021   4.315  15.482
  367TMC3    C1 5525   1.880   4.426  15.623
  367TMC3    C2 5526   1.998   4.479  15.670
  367TMC3    C3 5527   1.991   4.608  15.723
  367TMC3    C4 5528   1.763   4.499  15.610
  367TMC3    C5 5529   1.764   4.631  15.654
  367TMC3    C6 5530   1.874   4.684  15.708
  367TMC3     C 5531   1.869   4.284  15.600
  367TMC3     O 5532   1.769   4.215  15.638
  367TMC3     H 5533   2.098   4.442  15.652
  367TMC3    H1 5534   1.674   4.459  15.564
  367TMC3    H2 5535   1.872   0.006  15.744
  367TMC3    C7 5536   1.707   4.722  15.556
  367TMC3    C8 5537   2.106   4.659  15.801
  367TMC3    O1 5538   1.778   0.034  15.512
  367TMC3    O2 5539   2.177   4.567  15.848
  368MPD2     C 5540   3.369   1.343  13.876
  368MPD2    C1 5541   3.372   1.464  13.809
  368MPD2    C2 5542   3.469   1.480  13.705
  368MPD2    C3 5543   3.568   1.388  13.688
  368MPD2    C4 5544   3.547   1.262  13.738
  368MPD2    C5 5545   3.455   1.244  13.834
  368MPD2     H 5546   3.465   1.580  13.662
  368MPD2    H1 5547   3.624   1.189  13.716
  368MPD2    H2 5548   3.288   1.319  13.944
  368MPD2    H3 5549   3.452   1.143  13.874
  368MPD2     N 5550   3.681   1.402  13.597
  368MPD2    H5 5551   3.738   1.319  13.580
  368MPD2    N1 5552   3.262   1.554  13.836
  368MPD2    H7 5553   3.196   1.522  13.906
  369TMC3    C1 5554   3.112   1.728  13.773
  369TMC3    C2 5555   3.098   1.855  13.715
  369TMC3    C3 5556   2.985   1.871  13.641
  369TMC3    C4 5557   3.016   1.631  13.763
  369TMC3    C5 5558   2.905   1.658  13.690
  369TMC3    C6 5559   2.884   1.781  13.633
  369TMC3     C 5560   3.246   1.680  13.771
  369TMC3     O 5561   3.319   1.743  13.700
  369TMC3     H 5562   3.169   1.935  13.732
  369TMC3    H1 5563   3.026   1.532  13.805
  369TMC3    H2 5564   2.797   1.797  13.570
  369TMC3    C7 5565   2.830   1.542  13.643
  369TMC3    C8 5566   2.987   1.970  13.537
  369TMC3    O1 5567   2.797   1.456  13.718
  369TMC3    O2 5568   2.882   1.991  13.478
  370TMC3    C1 5569   2.597   2.066  16.362
  370TMC3    C2 5570   2.524   1.990  16.445
  370TMC3    C3 5571   2.497   1.858  16.417
  370TMC3    C4 5572   2.653   2.007  16.253
  370TMC3    C5 5573   2.631   1.877  16.232
  370TMC3    C6 5574   2.562   1.790  16.318
  370TMC3     C 5575   2.672   2.172  16.426
  370TMC3     O 5576   2.671   2.166  16.546
  370TMC3     H 5577   2.479   2.044  16.528
  370TMC3    H1 5578   2.731   2.057  16.196
  370TMC3    H2 5579   2.535   1.690  16.287
  370TMC3    C7 5580   2.735   1.824  16.137
  370TMC3    C8 5581   2.473   1.767  16.528
  370TMC3    O1 5582   2.747   1.899  16.038
  370TMC3    O2 5583   2.491   1.647  16.515
  371TMC3    C1 5584   4.007   0.413  15.861
  371TMC3    C2 5585   4.029   0.416  15.992
  371TMC3    C3 5586   4.060   0.535  16.047
  371TMC3    C4 5587   4.029   0.518  15.777
  371TMC3    C5 5588   4.058   0.633  15.835
  371TMC3    C6 5589   4.070   0.648  15.969
  371TMC3     C 5590   3.984   0.283  15.795
  371TMC3     O 5591   4.018   0.274  15.677
  371TMC3     H 5592   4.003   0.328  16.050
  371TMC3    H1 5593   4.022   0.508  15.669
  371TMC3    H2 5594   4.072   0.746  16.014
  371TMC3    C7 5595   4.103   0.741  15.747
  371TMC3    C8 5596   3.992   0.554  16.173
  371TMC3    O1 5597   4.032   0.763  15.650
  371TMC3    O2 5598   4.018   0.463  16.252
  372MPD2     C 5599   3.419   1.711  14.088
  372MPD2    C1 5600   3.528   1.631  14.083
  372MPD2    C2 5601   3.518   1.511  14.150
  372MPD2    C3 5602   3.413   1.481  14.232
  372MPD2    C4 5603   3.306   1.565  14.242
  372MPD2    C5 5604   3.309   1.677  14.165
  372MPD2     H 5605   3.602   1.442  14.145
  372MPD2    H1 5606   3.217   1.557  14.303
  372MPD2    H2 5607   3.416   1.797  14.023
  372MPD2    H3 5608   3.229   1.749  14.168
  372MPD2     N 5609   3.406   1.351  14.290
  372MPD2    H5 5610   3.486   1.291  14.274
  372MPD2    N1 5611   3.637   1.656  13.999
  372MPD2    H7 5612   3.708   1.584  13.993
  373TMC3    C1 5613   3.312   1.166  14.391
  373TMC3    C2 5614   3.255   1.123  14.511
  373TMC3    C3 5615   3.270   0.988  14.541
  373TMC3    C4 5616   3.389   1.091  14.308
  373TMC3    C5 5617   3.398   0.959  14.342
  373TMC3    C6 5618   3.336   0.907  14.453
  373TMC3     C 5619   3.301   1.309  14.361
  373TMC3     O 5620   3.206   1.362  14.413
  373TMC3     H 5621   3.198   1.190  14.574
  373TMC3    H1 5622   3.444   1.117  14.218
  373TMC3    H2 5623   3.338   0.799  14.462
  373TMC3    C7 5624   3.518   0.880  14.300
  373TMC3    C8 5625   3.347   0.971  14.661
  373TMC3    O1 5626   3.579   0.922  14.204
  373TMC3    O2 5627   3.433   0.883  14.649
  374TMC3    C1 5628   3.742   2.009   9.937
  374TMC3    C2 5629   3.836   2.097   9.979
  374TMC3    C3 5630   3.880   2.186   9.885
  374TMC3    C4 5631   3.703   1.998   9.808
  374TMC3    C5 5632   3.746   2.097   9.722
  374TMC3    C6 5633   3.837   2.192   9.756
  374TMC3     C 5634   3.707   1.897  10.027
  374TMC3     O 5635   3.658   1.802   9.974
  374TMC3     H 5636   3.863   2.109  10.083
  374TMC3    H1 5637   3.620   1.936   9.777
  374TMC3    H2 5638   3.867   2.268   9.685
  374TMC3    C7 5639   3.716   2.070   9.583
  374TMC3    C8 5640   3.965   2.295   9.920
  374TMC3    O1 5641   3.666   1.955   9.565
  374TMC3    O2 5642   3.932   2.399   9.863
  375MPD2     C 5643   3.968   2.682  16.955
  375MPD2    C1 5644   3.869   2.676  16.857
  375MPD2    C2 5645   3.885   2.596  16.744
  375MPD2    C3 5646   4.008   2.524  16.733
  375MPD2    C4 5647   4.110   2.534  16.827
  375MPD2    C5 5648   4.087   2.612  16.935
  375MPD2     H 5649   3.805   2.591  16.671
  375MPD2    H1 5650   4.204   2.480  16.817
  375MPD2    H2 5651   3.957   2.741  17.045
  375MPD2    H3 5652   4.163   2.624  17.011
  375MPD2     N 5653   4.044   2.439  16.630
  375MPD2    H5 5654   4.144   2.423  16.629
  375MPD2    N1 5655   3.749   2.748  16.863
  375MPD2    H7 5656   3.681   2.707  16.799
  376TMC3    C1 5657   4.038   2.320  16.429
  376TMC3    C2 5658   4.102   2.212  16.491
  376TMC3    C3 5659   4.152   2.113  16.415
  376TMC3    C4 5660   3.997   2.317  16.303
  376TMC3    C5 5661   4.050   2.221  16.224
  376TMC3    C6 5662   4.128   2.116  16.277
  376TMC3     C 5663   3.976   2.421  16.513
  376TMC3     O 5664   3.882   2.483  16.469
  376TMC3     H 5665   4.115   2.223  16.598
  376TMC3    H1 5666   3.943   2.398  16.255
  376TMC3    H2 5667   4.187   2.061  16.205
  376TMC3    C7 5668   4.082   2.253  16.086
  376TMC3    C8 5669   4.269   2.044  16.457
  376TMC3    O1 5670   4.161   2.344  16.076
  376TMC3    O2 5671   4.368   2.039  16.379
  377MPD2     C 5672   2.132   2.200  12.884
  377MPD2    C1 5673   2.190   2.093  12.950
  377MPD2    C2 5674   2.103   1.995  12.997
  377MPD2    C3 5675   1.966   2.016  12.992
  377MPD2    C4 5676   1.910   2.124  12.927
  377MPD2    C5 5677   1.998   2.207  12.863
  377MPD2     H 5678   2.137   1.909  13.053
  377MPD2    H1 5679   1.804   2.140  12.909
  377MPD2    H2 5680   2.196   2.273  12.836
  377MPD2    H3 5681   1.956   2.290  12.807
  377MPD2     N 5682   1.874   1.938  13.069
  377MPD2    H5 5683   1.779   1.974  13.065
  377MPD2    N1 5684   2.329   2.072  12.943
  377MPD2    H7 5685   2.376   2.133  12.877
  378TMC3    C1 5686   2.467   1.878  12.657
  378TMC3    C2 5687   2.409   1.859  12.787
  378TMC3    C3 5688   2.474   1.921  12.896
  378TMC3    C4 5689   2.591   1.944  12.642
  378TMC3    C5 5690   2.656   1.980  12.758
  378TMC3    C6 5691   2.598   1.977  12.882
  378TMC3     C 5692   2.377   1.882  12.547
  378TMC3     O 5693   2.258   1.872  12.575
  378TMC3     H 5694   2.317   1.804  12.803
  378TMC3    H1 5695   2.653   1.945  12.553
  378TMC3    H2 5696   2.643   2.029  12.966
  378TMC3    C7 5697   2.791   2.027  12.748
  378TMC3    C8 5698   2.394   1.973  13.002
  378TMC3    O1 5699   2.869   1.974  12.830
  378TMC3    O2 5700   2.360   1.899  13.093
  379MPD2     C 5701   3.183   0.038  16.520
  379MPD2    C1 5702   3.080   4.735  16.566
  379MPD2    C2 5703   3.109   4.667  16.682
  379MPD2    C3 5704   3.226   4.665  16.746
  379MPD2    C4 5705   3.334   4.738  16.696
  379MPD2    C5 5706   3.305   0.031  16.583
  379MPD2     H 5707   3.035   4.596  16.716
  379MPD2    H1 5708   3.433   4.747  16.739
  379MPD2    H2 5709   3.168   0.095  16.429
  379MPD2    H3 5710   3.382   0.089  16.532
  379MPD2     N 5711   3.255   4.584  16.847
  379MPD2    H5 5712   3.351   4.582  16.880
  379MPD2    N1 5713   2.963   4.715  16.489
  379MPD2    H7 5714   2.950   4.769  16.404
  380TMC3    C1 5715   2.759   4.620  16.406
  380TMC3    C2 5716   2.738   4.491  16.360
  380TMC3    C3 5717   2.721   4.483  16.230
  380TMC3    C4 5718   2.746   4.737  16.339
  380TMC3    C5 5719   2.697   4.720  16.212
  380TMC3    C6 5720   2.686   4.595  16.151
  380TMC3     C 5721   2.851   4.632  16.519
  380TMC3     O 5722   2.830   4.561  16.612
  380TMC3     H 5723   2.771   4.416  16.431
  380TMC3    H1 5724   2.756   0.054  16.385
  380TMC3    H2 5725   2.646   4.580  16.052
  380TMC3    C7 5726   2.627   0.050  16.142
  380TMC3    C8 5727   2.832   4.429  16.167
  380TMC3    O1 5728   2.670   0.160  16.161
  380TMC3    O2 5729   2.829   4.440  16.045
  381TMC3    C1 5730   2.623   1.102  16.378
  381TMC3    C2 5731   2.711   1.209  16.384
  381TMC3    C3 5732   2.675   1.315  16.465
  381TMC3    C4 5733   2.517   1.094  16.459
  381TMC3    C5 5734   2.491   1.198  16.542
  381TMC3    C6 5735   2.574   1.308  16.547
  381TMC3     C 5736   2.639   1.009  16.272
  381TMC3     O 5737   2.718   1.047  16.183
  381TMC3     H 5738   2.796   1.217  16.318
  381TMC3    H1 5739   2.440   1.018  16.465
  381TMC3    H2 5740   2.562   1.384  16.623
  381TMC3    C7 5741   2.431   1.149  16.667
  381TMC3    C8 5742   2.791   1.404  16.501
  381TMC3    O1 5743   2.509   1.067  16.716
  381TMC3    O2 5744   2.903   1.355  16.494
  382MPD2     C 5745   1.853   3.883  17.273
  382MPD2    C1 5746   1.797   3.877  17.395
  382MPD2    C2 5747   1.790   3.750  17.453
  382MPD2    C3 5748   1.817   3.632  17.386
  382MPD2    C4 5749   1.876   3.643  17.261
  382MPD2    C5 5750   1.890   3.765  17.204
  382MPD2     H 5751   1.742   3.746  17.550
  382MPD2    H1 5752   1.898   3.552  17.206
  382MPD2    H2 5753   1.870   3.970  17.210
  382MPD2    H3 5754   1.941   3.778  17.109
  382MPD2     N 5755   1.791   3.501  17.443
  382MPD2    H5 5756   1.790   3.421  17.380
  382MPD2    N1 5757   1.761   3.991  17.470
  382MPD2    H7 5758   1.744   3.967  17.567
  383TMC3    C1 5759   1.705   3.343  17.586
  383TMC3    C2 5760   1.628   3.282  17.494
  383TMC3    C3 5761   1.619   3.147  17.509
  383TMC3    C4 5762   1.750   3.286  17.702
  383TMC3    C5 5763   1.725   3.149  17.718
  383TMC3    C6 5764   1.653   3.077  17.622
  383TMC3     C 5765   1.730   3.481  17.566
  383TMC3     O 5766   1.725   3.551  17.666
  383TMC3     H 5767   1.601   3.337  17.405
  383TMC3    H1 5768   1.802   3.346  17.776
  383TMC3    H2 5769   1.633   2.971  17.636
  383TMC3    C7 5770   1.756   3.075  17.842
  383TMC3    C8 5771   1.536   3.080  17.410
  383TMC3    O1 5772   1.721   2.959  17.860
  383TMC3    O2 5773   1.469   3.147  17.329
  384MPD2     C 5774   3.469   0.485  12.263
  384MPD2    C1 5775   3.435   0.393  12.363
  384MPD2    C2 5776   3.518   0.279  12.368
  384MPD2    C3 5777   3.618   0.262  12.275
  384MPD2    C4 5778   3.646   0.355  12.176
  384MPD2    C5 5779   3.570   0.469  12.176
  384MPD2     H 5780   3.507   0.205  12.447
  384MPD2    H1 5781   3.727   0.350  12.104
  384MPD2    H2 5782   3.416   0.579  12.257
  384MPD2    H3 5783   3.591   0.548  12.105
  384MPD2     N 5784   3.695   0.139  12.288
  384MPD2    H5 5785   3.786   0.126  12.246
  384MPD2    N1 5786   3.324   0.416  12.450
  384MPD2    H7 5787   3.286   0.510  12.453
  385TMC3    C1 5788   3.735   4.694  12.326
  385TMC3    C2 5789   3.678   4.580  12.290
  385TMC3    C3 5790   3.678   4.472  12.379
  385TMC3    C4 5791   3.809   4.697  12.441
  385TMC3    C5 5792   3.803   4.597  12.530
  385TMC3    C6 5793   3.738   4.479  12.505
  385TMC3     C 5794   3.641   0.027  12.331
  385TMC3     O 5795   3.522   0.002  12.347
  385TMC3     H 5796   3.591   4.586  12.226
  385TMC3    H1 5797   3.839   0.019  12.462
  385TMC3    H2 5798   3.729   4.395  12.573
  385TMC3    C7 5799   3.793   4.649  12.671
  385TMC3    C8 5800   3.587   4.371  12.340
  385TMC3    O1 5801   3.849   4.756  12.690
  385TMC3    O2 5802   3.526   4.326  12.435
  386TMC3    C1 5803   3.724   2.303  12.239
  386TMC3    C2 5804   3.715   2.288  12.103
  386TMC3    C3 5805   3.614   2.358  12.048
  386TMC3    C4 5806   3.652   2.389  12.318
  386TMC3    C5 5807   3.545   2.452  12.257
  386TMC3    C6 5808   3.534   2.441  12.120
  386TMC3     C 5809   3.845   2.247  12.303
  386TMC3     O 5810   3.907   2.322  12.379
  386TMC3     H 5811   3.793   2.234  12.052
  386TMC3    H1 5812   3.669   2.395  12.425
  386TMC3    H2 5813   3.455   2.485  12.060
  386TMC3    C7 5814   3.425   2.485  12.336
  386TMC3    C8 5815   3.620   2.383  11.904
  386TMC3    O1 5816   3.418   2.456  12.455
  386TMC3    O2 5817   3.597   2.495  11.865
  387MPD2     C 5818   0.695   2.203   9.797
  387MPD2    C1 5819   0.797   2.251   9.876
  387MPD2    C2 5820   0.850   2.172   9.969
  387MPD2    C3 5821   0.808   2.043   9.977
  387MPD2    C4 5822   0.709   1.989   9.900
  387MPD2    C5 5823   0.650   2.074   9.819
  387MPD2     H 5824   0.931   2.209  10.031
  387MPD2    H1 5825   0.683   1.884   9.903
  387MPD2    H2 5826   0.643   2.261   9.721
  387MPD2    H3 5827   0.567   2.044   9.756
  387MPD2     N 5828   0.885   1.957  10.068
  387MPD2    H5 5829   0.954   2.009  10.122
  387MPD2    N1 5830   0.866   2.377   9.857
  387MPD2    H7 5831   0.946   2.391   9.918
  388TMC3    C1 5832   0.961   2.540   9.723
  388TMC3    C2 5833   0.935   2.679   9.707
  388TMC3    C3 5834   1.045   2.760   9.714
  388TMC3    C4 5835   1.083   2.483   9.732
  388TMC3    C5 5836   1.192   2.565   9.728
  388TMC3    C6 5837   1.166   2.701   9.728
  388TMC3     C 5838   0.844   2.455   9.744
  388TMC3     O 5839   0.741   2.484   9.685
  388TMC3     H 5840   0.833   2.716   9.703
  388TMC3    H1 5841   1.085   2.377   9.710
  388TMC3    H2 5842   1.257   2.759   9.728
  388TMC3    C7 5843   1.316   2.517   9.790
  388TMC3    C8 5844   1.031   2.900   9.740
  388TMC3    O1 5845   1.396   2.600   9.829
  388TMC3    O2 5846   0.914   2.938   9.731
  389MPD2     C 5847   0.760   0.709  11.728
  389MPD2    C1 5848   0.704   0.606  11.648
  389MPD2    C2 5849   0.654   0.493  11.710
  389MPD2    C3 5850   0.660   0.478  11.851
  389MPD2    C4 5851   0.730   0.574  11.924
  389MPD2    C5 5852   0.769   0.691  11.863
  389MPD2     H 5853   0.603   0.415  11.655
  389MPD2    H1 5854   0.731   0.574  12.032
  389MPD2    H2 5855   0.765   0.809  11.688
  389MPD2    H3 5856   0.817   0.771  11.918
  389MPD2     N 5857   0.605   0.376  11.931
  389MPD2    H5 5858   0.621   0.386  12.031
  389MPD2    N1 5859   0.688   0.645  11.505
  389MPD2    H7 5860   0.728   0.734  11.478
  390TMC3    C1 5861   0.482   0.200  11.995
  390TMC3    C2 5862   0.418   0.085  11.964
  390TMC3    C3 5863   0.362   0.011  12.066
  390TMC3    C4 5864   0.489   0.248  12.123
  390TMC3    C5 5865   0.439   0.167  12.219
  390TMC3    C6 5866   0.377   0.048  12.194
  390TMC3     C 5867   0.530   0.279  11.885
  390TMC3     O 5868   0.495   0.248  11.773
  390TMC3     H 5869   0.393   0.069  11.860
  390TMC3    H1 5870   0.532   0.343  12.153
  390TMC3    H2 5871   0.324   0.011  12.281
  390TMC3    C7 5872   0.398   0.235  12.352
  390TMC3    C8 5873   0.259   4.696  12.024
  390TMC3    O1 5874   0.494   0.289  12.405
  390TMC3    O2 5875   0.255   4.668  11.903
  391MPD2     C 5876   4.284   2.325  11.443
  391MPD2    C1 5877   4.401   2.257  11.431
  391MPD2    C2 5878   4.446   2.226  11.302
  391MPD2    C3 5879   4.367   2.260  11.190
  391MPD2    C4 5880   4.248   2.330  11.210
  391MPD2    C5 5881   4.208   2.363  11.333
  391MPD2     H 5882   4.540   2.176  11.280
  391MPD2    H1 5883   4.190   2.368  11.127
  391MPD2    H2 5884   4.239   2.336  11.541
  391MPD2    H3 5885   4.113   2.413  11.348
  391MPD2     N 5886   4.402   2.217  11.057
  391MPD2    H5 5887   4.491   2.171  11.044
  391MPD2    N1 5888   4.486   2.239  11.547
  391MPD2    H7 5889   4.456   2.275  11.637
  392TMC3    C1 5890   4.389   2.225  10.831
  392TMC3    C2 5891   4.318   2.209  10.712
  392TMC3    C3 5892   4.368   2.259  10.597
  392TMC3    C4 5893   4.513   2.284  10.828
  392TMC3    C5 5894   4.555   2.349  10.716
  392TMC3    C6 5895   4.480   2.339  10.597
  392TMC3     C 5896   4.315   2.226  10.950
  392TMC3     O 5897   4.193   2.223  10.952
  392TMC3     H 5898   4.218   2.166  10.715
  392TMC3    H1 5899   4.574   2.277  10.918
  392TMC3    H2 5900   4.523   2.377  10.505
  392TMC3    C7 5901   4.696   2.401  10.713
  392TMC3    C8 5902   4.276   2.282  10.488
  392TMC3    O1 5903   4.768   2.377  10.811
  392TMC3    O2 5904   4.209   2.182  10.461
  393TMC3    C1 5905   3.784   0.301  11.213
  393TMC3    C2 5906   3.697   0.342  11.308
  393TMC3    C3 5907   3.663   0.243  11.400
  393TMC3    C4 5908   3.838   0.179  11.204
  393TMC3    C5 5909   3.796   0.085  11.294
  393TMC3    C6 5910   3.712   0.117  11.398
  393TMC3     C 5911   3.756   0.370  11.089
  393TMC3     O 5912   3.641   0.416  11.074
  393TMC3     H 5913   3.654   0.442  11.310
  393TMC3    H1 5914   3.910   0.162  11.124
  393TMC3    H2 5915   3.685   0.045  11.475
  393TMC3    C7 5916   3.846   4.727  11.285
  393TMC3    C8 5917   3.535   0.249  11.469
  393TMC3    O1 5918   3.781   4.649  11.351
  393TMC3    O2 5919   3.485   0.143  11.506
  394TMC3    C1 5920   0.604   0.629  11.292
  394TMC3    C2 5921   0.494   0.598  11.220
  394TMC3    C3 5922   0.495   0.624  11.087
  394TMC3    C4 5923   0.724   0.673  11.229
  394TMC3    C5 5924   0.714   0.701  11.092
  394TMC3    C6 5925   0.601   0.676  11.016
  394TMC3     C 5926   0.616   0.570  11.419
  394TMC3     O 5927   0.541   0.481  11.445
  394TMC3     H 5928   0.399   0.571  11.266
  394TMC3    H1 5929   0.815   0.695  11.284
  394TMC3    H2 5930   0.591   0.708  10.913
  394TMC3    C7 5931   0.826   0.772  11.027
  394TMC3    C8 5932   0.369   0.602  11.018
  394TMC3    O1 5933   0.913   0.827  11.088
  394TMC3    O2 5934   0.263   0.612  11.080
  395TMC3    C1 5935   4.628   2.295  14.965
  395TMC3    C2 5936   4.521   2.266  15.054
  395TMC3    C3 5937   4.529   2.306  15.187
  395TMC3    C4 5938   4.737   2.366  15.003
  395TMC3    C5 5939   4.747   2.388  15.137
  395TMC3    C6 5940   4.646   2.359  15.230
  395TMC3     C 5941   4.622   2.278  14.823
  395TMC3     O 5942   4.631   2.383  14.763
  395TMC3     H 5943   4.429   2.222  15.016
  395TMC3    H1 5944   0.037   2.390  14.934
  395TMC3    H2 5945   4.662   2.367  15.337
  395TMC3    C7 5946   0.092   2.439  15.189
  395TMC3    C8 5947   4.468   2.228  15.292
  395TMC3    O1 5948   0.095   2.510  15.288
  395TMC3    O2 5949   4.466   2.274  15.408
  396MPD2     C 5950   4.748   3.262  17.238
  396MPD2    C1 5951   0.073   3.289  17.331
  396MPD2    C2 5952   0.164   3.387  17.294
  396MPD2    C3 5953   0.143   3.463  17.180
  396MPD2    C4 5954   0.036   3.444  17.096
  396MPD2    C5 5955   4.732   3.343  17.132
  396MPD2     H 5956   0.253   3.410  17.351
  396MPD2    H1 5957   0.001   3.514  17.020
  396MPD2    H2 5958   4.677   3.187  17.270
  396MPD2    H3 5959   4.646   3.331  17.068
  396MPD2     N 5960   0.241   3.562  17.152
  396MPD2    H5 5961   0.322   3.580  17.210
  396MPD2    N1 5962   0.076   3.207  17.448
  396MPD2    H7 5963   0.003   3.137  17.446
  397TMC3    C1 5964   0.175   3.114  17.640
  397TMC3    C2 5965   0.305   3.072  17.639
  397TMC3    C3 5966   0.337   2.941  17.620
  397TMC3    C4 5967   0.075   3.019  17.641
  397TMC3    C5 5968   0.106   2.885  17.663
  397TMC3    C6 5969   0.236   2.848  17.633
  397TMC3     C 5970   0.164   3.223  17.552
  397TMC3     O 5971   0.240   3.316  17.581
  397TMC3     H 5972   0.377   3.149  17.612
  397TMC3    H1 5973   4.755   3.053  17.665
  397TMC3    H2 5974   0.258   2.743  17.618
  397TMC3    C7 5975   0.008   2.779  17.666
  397TMC3    C8 5976   0.426   2.908  17.509
  397TMC3    O1 5977   0.032   2.671  17.604
  397TMC3    O2 5978   0.400   2.815  17.430
  398MPD2     C 5979   3.158   4.644  18.301
  398MPD2    C1 5980   3.210   4.545  18.381
  398MPD2    C2 5981   3.324   4.568  18.459
  398MPD2    C3 5982   3.375   4.693  18.470
  398MPD2    C4 5983   3.309   0.016  18.404
  398MPD2    C5 5984   3.208   4.771  18.323
  398MPD2     H 5985   3.369   4.486  18.515
  398MPD2    H1 5986   3.328   0.123  18.401
  398MPD2    H2 5987   3.071   4.634  18.238
  398MPD2    H3 5988   3.168   0.072  18.264
  398MPD2     N 5989   3.488   4.721  18.555
  398MPD2    H5 5990   3.551   4.650  18.590
  398MPD2    N1 5991   3.157   4.415  18.371
  398MPD2    H7 5992   3.194   4.343  18.433
  399TMC3    C1 5993   2.996   4.244  18.324
  399TMC3    C2 5994   3.082   4.158  18.386
  399TMC3    C3 5995   3.026   4.055  18.459
  399TMC3    C4 5996   2.861   4.234  18.331
  399TMC3    C5 5997   2.815   4.141  18.418
  399TMC3    C6 5998   2.890   4.051  18.486
  399TMC3     C 5999   3.044   4.380  18.298
  399TMC3     O 6000   2.955   4.442  18.240
  399TMC3     H 6001   3.186   4.157  18.356
  399TMC3    H1 6002   2.795   4.305  18.282
  399TMC3    H2 6003   2.850   3.985  18.562
  399TMC3    C7 6004   2.678   4.086  18.400
  399TMC3    C8 6005   3.095   3.934  18.508
  399TMC3    O1 6006   2.659   3.973  18.438
  399TMC3    O2 6007   3.026   3.834  18.499
  400TMC3    C1 6008   1.711   2.937  17.002
  400TMC3    C2 6009   1.591   2.881  16.971
  400TMC3    C3 6010   1.495   2.962  16.924
  400TMC3    C4 6011   1.736   3.071  16.997
  400TMC3    C5 6012   1.642   3.143  16.923
  400TMC3    C6 6013   1.518   3.095  16.891
  400TMC3     C 6014   1.762   2.871  17.113
  400TMC3     O 6015   1.778   2.748  17.111
  400TMC3     H 6016   1.579   2.774  16.980
  400TMC3    H1 6017   1.830   3.121  17.016
  400TMC3    H2 6018   1.449   3.165  16.846
  400TMC3    C7 6019   1.667   3.289  16.925
  400TMC3    C8 6020   1.358   2.923  16.888
  400TMC3    O1 6021   1.778   3.328  16.888
  400TMC3    O2 6022   1.282   3.020  16.883
  401MPD2     C 6023   4.495   1.548  18.220
  401MPD2    C1 6024   4.525   1.478  18.332
  401MPD2    C2 6025   4.490   1.355  18.359
  401MPD2    C3 6026   4.422   1.283  18.266
  401MPD2    C4 6027   4.391   1.342  18.142
  401MPD2    C5 6028   4.421   1.474  18.126
  401MPD2     H 6029   4.510   1.321  18.460
  401MPD2    H1 6030   4.332   1.288  18.069
  401MPD2    H2 6031   4.517   1.654  18.211
  401MPD2    H3 6032   4.390   1.517  18.032
  401MPD2     N 6033   4.383   1.151  18.307
  401MPD2    H5 6034   4.406   1.125  18.402
  401MPD2    N1 6035   4.583   1.545  18.435
  401MPD2    H7 6036   4.623   1.496  18.515
  402TMC3    C1 6037   4.305   0.941  18.316
  402TMC3    C2 6038   4.294   0.964  18.449
  402TMC3    C3 6039   4.323   0.863  18.533
  402TMC3    C4 6040   4.369   0.830  18.266
  402TMC3    C5 6041   4.416   0.743  18.355
  402TMC3    C6 6042   4.388   0.748  18.490
  402TMC3     C 6043   4.329   1.057  18.228
  402TMC3     O 6044   4.301   1.056  18.109
  402TMC3     H 6045   4.232   1.049  18.475
  402TMC3    H1 6046   4.383   0.826  18.159
  402TMC3    H2 6047   4.438   0.678  18.556
  402TMC3    C7 6048   4.516   0.656  18.314
  402TMC3    C8 6049   4.330   0.885  18.678
  402TMC3    O1 6050   4.515   0.614  18.198
  402TMC3    O2 6051   4.388   0.802  18.744
  403MPD2     C 6052   3.124   4.588  13.680
  403MPD2    C1 6053   3.103   4.469  13.753
  403MPD2    C2 6054   3.186   4.443  13.857
  403MPD2    C3 6055   3.287   4.522  13.899
  403MPD2    C4 6056   3.310   4.636  13.824
  403MPD2    C5 6057   3.232   4.662  13.715
  403MPD2     H 6058   3.171   4.352  13.914
  403MPD2    H1 6059   3.384   4.711  13.849
  403MPD2    H2 6060   3.064   4.616  13.594
  403MPD2    H3 6061   3.245   4.755  13.661
  403MPD2     N 6062   3.369   4.475  14.006
  403MPD2    H5 6063   3.323   4.394  14.047
  403MPD2    N1 6064   2.994   4.385  13.708
  403MPD2    H7 6065   2.921   4.427  13.651
  404TMC3    C1 6066   2.846   4.198  13.697
  404TMC3    C2 6067   2.779   4.112  13.776
  404TMC3    C3 6068   2.709   4.010  13.715
  404TMC3    C4 6069   2.835   4.194  13.553
  404TMC3    C5 6070   2.754   4.095  13.504
  404TMC3    C6 6071   2.696   3.994  13.579
  404TMC3     C 6072   2.961   4.266  13.758
  404TMC3     O 6073   3.013   4.199  13.844
  404TMC3     H 6074   2.780   4.135  13.882
  404TMC3    H1 6075   2.893   4.264  13.494
  404TMC3    H2 6076   2.658   3.900  13.539
  404TMC3    C7 6077   2.747   4.087  13.359
  404TMC3    C8 6078   2.706   3.889  13.794
  404TMC3    O1 6079   2.844   4.145  13.308
  404TMC3    O2 6080   2.719   3.780  13.741
  405MPD2     C 6081   3.335   0.240  15.154
  405MPD2    C1 6082   3.275   0.185  15.047
  405MPD2    C2 6083   3.144   0.235  15.012
  405MPD2    C3 6084   3.087   0.338  15.086
  405MPD2    C4 6085   3.148   0.391  15.198
  405MPD2    C5 6086   3.275   0.341  15.232
  405MPD2     H 6087   3.088   0.180  14.938
  405MPD2    H1 6088   3.117   0.460  15.275
  405MPD2    H2 6089   3.426   0.199  15.197
  405MPD2    H3 6090   3.339   0.382  15.309
  405MPD2     N 6091   2.958   0.377  15.050
  405MPD2    H5 6092   2.909   0.311  14.990
  405MPD2    N1 6093   3.336   0.080  14.979
  405MPD2    H7 6094   3.412   0.037  15.030
  406TMC3    C1 6095   2.559   0.564  14.972
  406TMC3    C2 6096   2.519   0.447  14.923
  406TMC3    C3 6097   2.586   0.332  14.942
  406TMC3    C4 6098   2.682   0.580  15.022
  406TMC3    C5 6099   2.752   0.468  15.043
  406TMC3    C6 6100   2.707   0.343  15.003
  406TMC3     C 6101   2.512   0.674  14.894
  406TMC3     O 6102   2.519   0.791  14.945
  406TMC3     H 6103   2.412   0.442  14.904
  406TMC3    H1 6104   2.720   0.675  15.056
  406TMC3    H2 6105   2.757   0.250  15.028
  406TMC3    C7 6106   2.887   0.490  15.086
  406TMC3    C8 6107   2.600   0.274  14.810
  406TMC3    O1 6108   2.912   0.583  15.159
  406TMC3    O2 6109   2.540   0.325  14.719
  407MPD2     C 6110   0.306   1.740  10.130
  407MPD2    C1 6111   0.443   1.748  10.123
  407MPD2    C2 6112   0.507   1.835  10.211
  407MPD2    C3 6113   0.433   1.903  10.309
  407MPD2    C4 6114   0.298   1.890  10.317
  407MPD2    C5 6115   0.234   1.815  10.224
  407MPD2     H 6116   0.614   1.843  10.194
  407MPD2    H1 6117   0.240   1.940  10.394
  407MPD2    H2 6118   0.245   1.680  10.063
  407MPD2    H3 6119   0.127   1.805  10.241
  407MPD2     N 6120   0.494   1.983  10.410
  407MPD2    H5 6121   0.437   2.058  10.446
  407MPD2    N1 6122   0.527   1.686  10.028
  407MPD2    H7 6123   0.627   1.688  10.048
  408TMC3    C1 6124   0.586   1.575   9.830
  408TMC3    C2 6125   0.692   1.494   9.867
  408TMC3    C3 6126   0.809   1.513   9.798
  408TMC3    C4 6127   0.597   1.662   9.729
  408TMC3    C5 6128   0.715   1.671   9.664
  408TMC3    C6 6129   0.819   1.597   9.698
  408TMC3     C 6130   0.480   1.604   9.921
  408TMC3     O 6131   0.365   1.578   9.875
  408TMC3     H 6132   0.689   1.434   9.957
  408TMC3    H1 6133   0.519   1.734   9.709
  408TMC3    H2 6134   0.913   1.612   9.646
  408TMC3    C7 6135   0.741   1.793   9.587
  408TMC3    C8 6136   0.925   1.430   9.831
  408TMC3    O1 6137   0.859   1.812   9.561
  408TMC3    O2 6138   0.899   1.318   9.873
  409MPD2     C 6139   0.344   2.299  17.064
  409MPD2    C1 6140   0.399   2.348  17.181
  409MPD2    C2 6141   0.470   2.462  17.170
  409MPD2    C3 6142   0.502   2.514  17.047
  409MPD2    C4 6143   0.444   2.473  16.934
  409MPD2    C5 6144   0.367   2.368  16.944
  409MPD2     H 6145   0.501   2.512  17.261
  409MPD2    H1 6146   0.471   2.518  16.839
  409MPD2    H2 6147   0.270   2.220  17.063
  409MPD2    H3 6148   0.329   2.328  16.850
  409MPD2     N 6149   0.589   2.625  17.036
  409MPD2    H5 6150   0.589   2.676  16.948
  409MPD2    N1 6151   0.374   2.292  17.305
  409MPD2    H7 6152   0.405   2.339  17.389
  410TMC3    C1 6153   0.755   2.783  17.098
  410TMC3    C2 6154   0.882   2.799  17.148
  410TMC3    C3 6155   0.955   2.907  17.113
  410TMC3    C4 6156   0.703   2.875  17.019
  410TMC3    C5 6157   0.781   2.979  16.984
  410TMC3    C6 6158   0.900   3.009  17.046
  410TMC3     C 6159   0.684   2.663  17.135
  410TMC3     O 6160   0.716   2.596  17.231
  410TMC3     H 6161   0.915   2.731  17.225
  410TMC3    H1 6162   0.603   2.861  16.981
  410TMC3    H2 6163   0.963   3.088  17.007
  410TMC3    C7 6164   0.739   3.044  16.861
  410TMC3    C8 6165   1.095   2.923  17.145
  410TMC3    O1 6166   0.654   2.983  16.797
  410TMC3    O2 6167   1.133   3.036  17.176
  411MPD2     C 6168   0.799   3.173  14.786
  411MPD2    C1 6169   0.702   3.187  14.878
  411MPD2    C2 6170   0.614   3.083  14.907
  411MPD2    C3 6171   0.634   2.956  14.846
  411MPD2    C4 6172   0.746   2.939  14.767
  411MPD2    C5 6173   0.825   3.046  14.738
  411MPD2     H 6174   0.528   3.104  14.970
  411MPD2    H1 6175   0.764   2.839  14.730
  411MPD2    H2 6176   0.870   3.251  14.761
  411MPD2    H3 6177   0.900   3.026  14.663
  411MPD2     N 6178   0.538   2.856  14.848
  411MPD2    H5 6179   0.555   2.776  14.787
  411MPD2    N1 6180   0.679   3.317  14.938
  411MPD2    H7 6181   0.719   3.394  14.885
  412TMC3    C1 6182   0.325   2.755  14.878
  412TMC3    C2 6183   0.205   2.766  14.945
  412TMC3    C3 6184   0.105   2.696  14.902
  412TMC3    C4 6185   0.346   2.659  14.780
  412TMC3    C5 6186   0.239   2.579  14.749
  412TMC3    C6 6187   0.116   2.598  14.808
  412TMC3     C 6188   0.419   2.856  14.921
  412TMC3     O 6189   0.386   2.937  15.002
  412TMC3     H 6190   0.194   2.816  15.041
  412TMC3    H1 6191   0.439   2.640  14.727
  412TMC3    H2 6192   0.039   2.531  14.770
  412TMC3    C7 6193   0.257   2.451  14.679
  412TMC3    C8 6194   4.752   2.747  14.939
  412TMC3    O1 6195   0.233   2.349  14.744
  412TMC3    O2 6196   4.752   2.860  14.985
  413MPD2     C 6197   2.731   1.747  15.662
  413MPD2    C1 6198   2.633   1.685  15.584
  413MPD2    C2 6199   2.667   1.569  15.519
  413MPD2    C3 6200   2.792   1.510  15.535
  413MPD2    C4 6201   2.884   1.578  15.608
  413MPD2    C5 6202   2.854   1.694  15.671
  413MPD2     H 6203   2.587   1.514  15.470
  413MPD2    H1 6204   2.987   1.546  15.615
  413MPD2    H2 6205   2.698   1.826  15.728
  413MPD2    H3 6206   2.931   1.739  15.732
  413MPD2     N 6207   2.808   1.381  15.486
  413MPD2    H5 6208   2.751   1.344  15.410
  413MPD2    N1 6209   2.499   1.735  15.595
  413MPD2    H7 6210   2.487   1.825  15.640
  414TMC3    C1 6211   2.892   1.163  15.466
  414TMC3    C2 6212   2.973   1.063  15.508
  414TMC3    C3 6213   2.986   0.953  15.437
  414TMC3    C4 6214   2.831   1.150  15.341
  414TMC3    C5 6215   2.846   1.034  15.269
  414TMC3    C6 6216   2.915   0.927  15.325
  414TMC3     C 6217   2.905   1.298  15.531
  414TMC3     O 6218   2.986   1.304  15.624
  414TMC3     H 6219   3.020   1.079  15.604
  414TMC3    H1 6220   2.789   1.240  15.297
  414TMC3    H2 6221   2.916   0.838  15.264
  414TMC3    C7 6222   2.768   1.026  15.146
  414TMC3    C8 6223   3.086   0.856  15.464
  414TMC3    O1 6224   2.659   1.063  15.158
  414TMC3    O2 6225   3.087   0.748  15.402
  415TMC3    C1 6226   2.775   4.076  10.465
  415TMC3    C2 6227   2.799   4.161  10.361
  415TMC3    C3 6228   2.735   4.130  10.248
  415TMC3    C4 6229   2.710   3.964  10.457
  415TMC3    C5 6230   2.650   3.931  10.337
  415TMC3    C6 6231   2.662   4.015  10.228
  415TMC3     C 6232   2.829   4.109  10.592
  415TMC3     O 6233   2.760   4.088  10.691
  415TMC3     H 6234   2.847   4.257  10.374
  415TMC3    H1 6235   2.709   3.900  10.545
  415TMC3    H2 6236   2.609   3.978  10.141
  415TMC3    C7 6237   2.606   3.798  10.323
  415TMC3    C8 6238   2.759   4.208  10.122
  415TMC3    O1 6239   2.591   3.755  10.211
  415TMC3    O2 6240   2.684   4.187  10.024
  416MPD2     C 6241   0.079   3.113  11.939
  416MPD2    C1 6242   4.744   3.125  11.878
  416MPD2    C2 6243   4.718   3.067  11.748
  416MPD2    C3 6244   0.051   3.012  11.683
  416MPD2    C4 6245   0.160   2.982  11.756
  416MPD2    C5 6246   0.178   3.042  11.880
  416MPD2     H 6247   4.623   3.071  11.697
  416MPD2    H1 6248   0.248   2.945  11.706
  416MPD2    H2 6249   0.091   3.168  12.031
  416MPD2    H3 6250   0.278   3.036  11.921
  416MPD2     N 6251   0.037   2.945  11.561
  416MPD2    H5 6252   0.095   2.862  11.548
  416MPD2    N1 6253   4.641   3.185  11.955
  416MPD2    H7 6254   4.671   3.241  12.034
  417TMC3    C1 6255   4.435   3.269  12.002
  417TMC3    C2 6256   4.441   3.254  12.137
  417TMC3    C3 6257   4.350   3.323  12.216
  417TMC3    C4 6258   4.344   3.354  11.944
  417TMC3    C5 6259   4.269   3.430  12.027
  417TMC3    C6 6260   4.263   3.414  12.160
  417TMC3     C 6261   4.515   3.200  11.909
  417TMC3     O 6262   4.458   3.158  11.808
  417TMC3     H 6263   4.516   3.195  12.189
  417TMC3    H1 6264   4.332   3.358  11.836
  417TMC3    H2 6265   4.210   3.479  12.229
  417TMC3    C7 6266   4.156   3.496  11.958
  417TMC3    C8 6267   4.366   3.339  12.363
  417TMC3    O1 6268   4.160   3.536  11.843
  417TMC3    O2 6269   4.310   3.435  12.415
  418TMC3    C1 6270   3.886   0.108  18.579
  418TMC3    C2 6271   3.770   0.051  18.555
  418TMC3    C3 6272   3.664   0.065  18.646
  418TMC3    C4 6273   3.905   0.178  18.693
  418TMC3    C5 6274   3.808   0.194  18.778
  418TMC3    C6 6275   3.678   0.156  18.743
  418TMC3     C 6276   3.991   0.135  18.480
  418TMC3     O 6277   4.060   0.236  18.496
  418TMC3     H 6278   3.758   0.001  18.459
  418TMC3    H1 6279   4.004   0.206  18.726
  418TMC3    H2 6280   3.590   0.179  18.801
  418TMC3    C7 6281   3.830   0.287  18.893
  418TMC3    C8 6282   3.530   0.064  18.591
  418TMC3    O1 6283   3.898   0.381  18.865
  418TMC3    O2 6284   3.472   0.170  18.609
  419MPD2     C 6285   2.172   2.869  12.986
  419MPD2    C1 6286   2.040   2.886  12.953
  419MPD2    C2 6287   1.953   2.927  13.050
  419MPD2    C3 6288   1.998   2.965  13.175
  419MPD2    C4 6289   2.124   2.948  13.209
  419MPD2    C5 6290   2.214   2.894  13.120
  419MPD2     H 6291   1.847   2.924  13.026
  419MPD2    H1 6292   2.165   2.990  13.300
  419MPD2    H2 6293   2.247   2.844  12.912
  419MPD2    H3 6294   2.318   2.879  13.146
  419MPD2     N 6295   1.906   3.039  13.255
  419MPD2    H5 6296   1.808   3.040  13.229
  419MPD2    N1 6297   1.987   2.885  12.816
  419MPD2    H7 6298   1.894   2.923  12.804
  420TMC3    C1 6299   1.828   3.200  13.422
  420TMC3    C2 6300   1.719   3.222  13.341
  420TMC3    C3 6301   1.661   3.342  13.358
  420TMC3    C4 6302   1.866   3.288  13.520
  420TMC3    C5 6303   1.788   3.397  13.546
  420TMC3    C6 6304   1.689   3.432  13.458
  420TMC3     C 6305   1.930   3.106  13.380
  420TMC3     O 6306   2.027   3.108  13.453
  420TMC3     H 6307   1.692   3.163  13.255
  420TMC3    H1 6308   1.952   3.269  13.583
  420TMC3    H2 6309   1.657   3.536  13.459
  420TMC3    C7 6310   1.713   3.366  13.663
  420TMC3    C8 6311   1.544   3.379  13.277
  420TMC3    O1 6312   1.770   3.305  13.751
  420TMC3    O2 6313   1.524   3.495  13.250
  421TMC3    C1 6314   3.482   4.515  14.204
  421TMC3    C2 6315   3.498   4.604  14.307
  421TMC3    C3 6316   3.543   4.559  14.428
  421TMC3    C4 6317   3.507   4.385  14.223
  421TMC3    C5 6318   3.543   4.342  14.347
  421TMC3    C6 6319   3.565   4.425  14.451
  421TMC3     C 6320   3.453   4.555  14.071
  421TMC3     O 6321   3.496   4.666  14.041
  421TMC3     H 6322   3.485   4.708  14.279
  421TMC3    H1 6323   3.495   4.311  14.145
  421TMC3    H2 6324   3.629   4.390  14.532
  421TMC3    C7 6325   3.627   4.226  14.336
  421TMC3    C8 6326   3.601   4.658  14.517
  421TMC3    O1 6327   3.701   4.213  14.239
  421TMC3    O2 6328   3.685   4.617  14.592
  422TMC3    C1 6329   0.733   1.405  13.093
  422TMC3    C2 6330   0.705   1.517  13.171
  422TMC3    C3 6331   0.579   1.524  13.223
  422TMC3    C4 6332   0.650   1.304  13.079
  422TMC3    C5 6333   0.522   1.316  13.129
  422TMC3    C6 6334   0.485   1.429  13.195
  422TMC3     C 6335   0.863   1.406  13.025
  422TMC3     O 6336   0.905   1.515  12.998
  422TMC3     H 6337   0.777   1.597  13.185
  422TMC3    H1 6338   0.669   1.209  13.031
  422TMC3    H2 6339   0.384   1.441  13.233
  422TMC3    C7 6340   0.411   1.234  13.080
  422TMC3    C8 6341   0.534   1.657  13.247
  422TMC3    O1 6342   0.424   1.199  12.962
  422TMC3    O2 6343   0.592   1.749  13.187
  423MPD2     C 6344   1.772   2.398  18.545
  423MPD2    C1 6345   1.858   2.299  18.583
  423MPD2    C2 6346   1.914   2.220  18.487
  423MPD2    C3 6347   1.872   2.221  18.357
  423MPD2    C4 6348   1.803   2.335  18.310
  423MPD2    C5 6349   1.742   2.414  18.407
  423MPD2     H 6350   1.987   2.147  18.520
  423MPD2    H1 6351   1.775   2.355  18.207
  423MPD2    H2 6352   1.745   2.485  18.603
  423MPD2    H3 6353   1.670   2.493  18.389
  423MPD2     N 6354   1.922   2.132  18.265
  423MPD2    H5 6355   1.886   2.143  18.171
  423MPD2    N1 6356   1.884   2.274  18.721
  423MPD2    H7 6357   1.961   2.209  18.735
  424TMC3    C1 6358   1.872   2.289  18.953
  424TMC3    C2 6359   2.006   2.293  18.972
  424TMC3    C3 6360   2.050   2.267  19.099
  424TMC3    C4 6361   1.786   2.284  19.062
  424TMC3    C5 6362   1.837   2.264  19.186
  424TMC3    C6 6363   1.967   2.244  19.207
  424TMC3     C 6364   1.813   2.333  18.824
  424TMC3     O 6365   1.703   2.390  18.826
  424TMC3     H 6366   2.068   2.325  18.889
  424TMC3    H1 6367   1.682   2.274  19.034
  424TMC3    H2 6368   2.010   2.231  19.306
  424TMC3    C7 6369   1.751   2.243  19.298
  424TMC3    C8 6370   2.187   2.211  19.107
  424TMC3    O1 6371   1.812   2.224  19.405
  424TMC3    O2 6372   2.218   2.153  19.214
  425MPD2     C 6373   1.518   1.500  17.780
  425MPD2    C1 6374   1.444   1.404  17.716
  425MPD2    C2 6375   1.305   1.407  17.715
  425MPD2    C3 6376   1.238   1.509  17.773
  425MPD2    C4 6377   1.313   1.612  17.838
  425MPD2    C5 6378   1.452   1.607  17.838
  425MPD2     H 6379   1.251   1.320  17.680
  425MPD2    H1 6380   1.266   1.700  17.881
  425MPD2    H2 6381   1.625   1.486  17.774
  425MPD2    H3 6382   1.498   1.695  17.882
  425MPD2     N 6383   1.103   1.502  17.775
  425MPD2    H5 6384   1.059   1.431  17.718
  425MPD2    N1 6385   1.517   1.298  17.660
  425MPD2    H7 6386   1.615   1.297  17.686
  426TMC3    C1 6387   1.554   1.092  17.550
  426TMC3    C2 6388   1.530   1.007  17.451
  426TMC3    C3 6389   1.610   0.899  17.435
  426TMC3    C4 6390   1.639   1.055  17.656
  426TMC3    C5 6391   1.730   0.953  17.630
  426TMC3    C6 6392   1.719   0.874  17.518
  426TMC3     C 6393   1.469   1.205  17.573
  426TMC3     O 6394   1.360   1.202  17.507
  426TMC3     H 6395   1.462   1.049  17.378
  426TMC3    H1 6396   1.635   1.119  17.743
  426TMC3    H2 6397   1.786   0.791  17.501
  426TMC3    C7 6398   1.783   0.883  17.749
  426TMC3    C8 6399   1.579   0.802  17.333
  426TMC3    O1 6400   1.886   0.820  17.726
  426TMC3    O2 6401   1.662   0.722  17.303
  427MPD2     C 6402   4.504   3.095  15.172
  427MPD2    C1 6403   4.514   3.137  15.302
  427MPD2    C2 6404   4.425   3.239  15.347
  427MPD2    C3 6405   4.330   3.291  15.259
  427MPD2    C4 6406   4.330   3.250  15.129
  427MPD2    C5 6407   4.414   3.150  15.085
  427MPD2     H 6408   4.430   3.266  15.452
  427MPD2    H1 6409   4.252   3.286  15.063
  427MPD2    H2 6410   4.558   3.011  15.131
  427MPD2    H3 6411   4.409   3.125  14.980
  427MPD2     N 6412   4.223   3.387  15.289
  427MPD2    H5 6413   4.150   3.405  15.221
  427MPD2    N1 6414   4.605   3.079  15.396
  427MPD2    H7 6415   4.628   3.122  15.485
  428TMC3    C1 6416   4.725   2.906  15.508
  428TMC3    C2 6417   4.729   2.771  15.532
  428TMC3    C3 6418   0.010   2.731  15.650
  428TMC3    C4 6419   0.007   2.997  15.591
  428TMC3    C5 6420   0.079   2.950  15.694
  428TMC3    C6 6421   0.084   2.814  15.726
  428TMC3     C 6422   4.666   2.956  15.381
  428TMC3     O 6423   4.652   2.874  15.292
  428TMC3     H 6424   4.685   2.703  15.459
  428TMC3    H1 6425   0.025   3.099  15.561
  428TMC3    H2 6426   0.140   2.771  15.808
  428TMC3    C7 6427   0.194   3.018  15.742
  428TMC3    C8 6428   0.010   2.582  15.668
  428TMC3    O1 6429   0.223   3.005  15.860
  428TMC3    O2 6430   4.717   2.516  15.599
  429MPD2     C 6431   0.882   3.404  18.055
  429MPD2    C1 6432   0.964   3.342  17.958
  429MPD2    C2 6433   1.034   3.427  17.876
  429MPD2    C3 6434   1.033   3.565  17.890
  429MPD2    C4 6435   0.963   3.625  17.987
  429MPD2    C5 6436   0.889   3.543  18.069
  429MPD2     H 6437   1.097   3.398  17.792
  429MPD2    H1 6438   0.955   3.732  17.999
  429MPD2    H2 6439   0.812   3.353  18.119
  429MPD2    H3 6440   0.825   3.587  18.145
  429MPD2     N 6441   1.108   3.637  17.791
  429MPD2    H5 6442   1.167   3.576  17.734
  429MPD2    N1 6443   0.975   3.203  17.924
  429MPD2    H7 6444   1.062   3.179  17.877
  430TMC3    C1 6445   1.203   3.805  17.660
  430TMC3    C2 6446   1.182   3.930  17.604
  430TMC3    C3 6447   1.272   3.972  17.513
  430TMC3    C4 6448   1.302   3.722  17.617
  430TMC3    C5 6449   1.387   3.762  17.526
  430TMC3    C6 6450   1.382   3.891  17.479
  430TMC3     C 6451   1.113   3.769  17.771
  430TMC3     O 6452   1.023   3.847  17.799
  430TMC3     H 6453   1.106   4.002  17.631
  430TMC3    H1 6454   1.310   3.618  17.647
  430TMC3    H2 6455   1.455   3.930  17.410
  430TMC3    C7 6456   1.414   3.668  17.418
  430TMC3    C8 6457   1.227   4.019  17.382
  430TMC3    O1 6458   1.421   3.550  17.448
  430TMC3    O2 6459   1.292   3.994  17.283
  431MPD2     C 6460   1.630   3.396  12.888
  431MPD2    C1 6461   1.699   3.423  12.779
  431MPD2    C2 6462   1.697   3.340  12.673
  431MPD2    C3 6463   1.619   3.228  12.678
  431MPD2    C4 6464   1.557   3.194  12.793
  431MPD2    C5 6465   1.557   3.277  12.897
  431MPD2     H 6466   1.765   3.373  12.595
  431MPD2    H1 6467   1.499   3.104  12.812
  431MPD2    H2 6468   1.635   3.451  12.981
  431MPD2    H3 6469   1.514   3.247  12.992
  431MPD2     N 6470   1.647   3.112  12.606
  431MPD2    H5 6471   1.621   3.018  12.632
  431MPD2    N1 6472   1.795   3.535  12.782
  431MPD2    H7 6473   1.815   3.560  12.686
  432TMC3    C1 6474   1.798   2.991  12.475
  432TMC3    C2 6475   1.851   2.959  12.351
  432TMC3    C3 6476   1.969   2.887  12.344
  432TMC3    C4 6477   1.862   2.961  12.591
  432TMC3    C5 6478   1.980   2.891  12.579
  432TMC3    C6 6479   2.036   2.847  12.457
  432TMC3     C 6480   1.725   3.113  12.487
  432TMC3     O 6481   1.736   3.205  12.409
  432TMC3     H 6482   1.807   2.991  12.257
  432TMC3    H1 6483   1.835   3.015  12.681
  432TMC3    H2 6484   2.132   2.798  12.455
  432TMC3    C7 6485   2.054   2.865  12.701
  432TMC3    C8 6486   2.049   2.895  12.222
  432TMC3    O1 6487   2.163   2.815  12.682
  432TMC3    O2 6488   1.985   2.877  12.116
  433MPD2     C 6489   0.667   2.240  11.099
  433MPD2    C1 6490   0.610   2.177  11.200
  433MPD2    C2 6491   0.638   2.217  11.334
  433MPD2    C3 6492   0.716   2.330  11.352
  433MPD2    C4 6493   0.763   2.397  11.244
  433MPD2    C5 6494   0.741   2.355  11.116
  433MPD2     H 6495   0.611   2.152  11.416
  433MPD2    H1 6496   0.836   2.477  11.245
  433MPD2    H2 6497   0.654   2.206  10.997
  433MPD2    H3 6498   0.791   2.394  11.028
  433MPD2     N 6499   0.740   2.368  11.486
  433MPD2    H5 6500   0.706   2.304  11.557
  433MPD2    N1 6501   0.536   2.062  11.168
  433MPD2    H7 6502   0.538   2.038  11.069
  434TMC3    C1 6503   0.444   1.848  11.229
  434TMC3    C2 6504   0.443   1.766  11.338
  434TMC3    C3 6505   0.467   1.639  11.316
  434TMC3    C4 6506   0.441   1.805  11.099
  434TMC3    C5 6507   0.446   1.667  11.083
  434TMC3    C6 6508   0.460   1.582  11.189
  434TMC3     C 6509   0.469   1.991  11.260
  434TMC3     O 6510   0.432   2.026  11.375
  434TMC3     H 6511   0.472   1.799  11.437
  434TMC3    H1 6512   0.433   1.873  11.015
  434TMC3    H2 6513   0.472   1.475  11.179
  434TMC3    C7 6514   0.492   1.618  10.956
  434TMC3    C8 6515   0.553   1.576  11.420
  434TMC3    O1 6516   0.510   1.707  10.869
  434TMC3    O2 6517   0.511   1.579  11.535
  435MPD2     C 6518   2.960   2.047  15.611
  435MPD2    C1 6519   2.908   2.042  15.740
  435MPD2    C2 6520   2.999   2.015  15.845
  435MPD2    C3 6521   3.127   1.979  15.821
  435MPD2    C4 6522   3.171   1.975  15.692
  435MPD2    C5 6523   3.086   2.006  15.585
  435MPD2     H 6524   2.967   2.027  15.948
  435MPD2    H1 6525   3.274   1.948  15.669
  435MPD2    H2 6526   2.899   2.069  15.524
  435MPD2    H3 6527   3.112   1.993  15.480
  435MPD2     N 6528   3.204   1.938  15.934
  435MPD2    H5 6529   3.157   1.942  16.024
  435MPD2    N1 6530   2.775   2.077  15.777
  435MPD2    H7 6531   2.760   2.068  15.877
  436TMC3    C1 6532   2.450   2.261  15.944
  436TMC3    C2 6533   2.568   2.218  15.885
  436TMC3    C3 6534   2.554   2.153  15.763
  436TMC3    C4 6535   2.329   2.255  15.882
  436TMC3    C5 6536   2.320   2.185  15.761
  436TMC3    C6 6537   2.428   2.128  15.704
  436TMC3     C 6538   2.470   2.304  16.080
  436TMC3     O 6539   2.585   2.299  16.119
  436TMC3     H 6540   2.667   2.245  15.921
  436TMC3    H1 6541   2.247   2.309  15.928
  436TMC3    H2 6542   2.418   2.086  15.605
  436TMC3    C7 6543   2.184   2.140  15.711
  436TMC3    C8 6544   2.673   2.113  15.692
  436TMC3    O1 6545   2.191   2.101  15.593
  436TMC3    O2 6546   2.667   2.103  15.570
  437TMC3    C1 6547   1.554   4.027  12.780
  437TMC3    C2 6548   1.441   4.109  12.803
  437TMC3    C3 6549   1.383   4.177  12.694
  437TMC3    C4 6550   1.608   4.031  12.663
  437TMC3    C5 6551   1.551   4.100  12.561
  437TMC3    C6 6552   1.441   4.176  12.573
  437TMC3     C 6553   1.658   4.027  12.885
  437TMC3     O 6554   1.758   4.083  12.841
  437TMC3     H 6555   1.408   4.123  12.905
  437TMC3    H1 6556   1.689   3.965  12.634
  437TMC3    H2 6557   1.408   4.246  12.497
  437TMC3    C7 6558   1.643   4.184  12.481
  437TMC3    C8 6559   1.259   4.253  12.711
  437TMC3    O1 6560   1.612   4.233  12.372
  437TMC3    O2 6561   1.215   4.307  12.610
  438MPD2     C 6562   3.963   0.205  17.277
  438MPD2    C1 6563   4.022   0.080  17.307
  438MPD2    C2 6564   4.010   0.030  17.427
  438MPD2    C3 6565   3.924   0.083  17.525
  438MPD2    C4 6566   3.854   0.197  17.486
  438MPD2    C5 6567   3.882   0.258  17.367
  438MPD2     H 6568   4.065   4.718  17.440
  438MPD2    H1 6569   3.781   0.236  17.556
  438MPD2    H2 6570   3.977   0.252  17.180
  438MPD2    H3 6571   3.839   0.351  17.333
  438MPD2     N 6572   3.902   0.022  17.649
  438MPD2    H5 6573   3.825   0.059  17.703
  438MPD2    N1 6574   4.107   0.023  17.214
  438MPD2    H7 6575   4.140   4.708  17.229
  439TMC3    C1 6576   4.231   4.743  17.025
  439TMC3    C2 6577   4.208   4.682  16.905
  439TMC3    C3 6578   4.288   4.574  16.869
  439TMC3    C4 6579   4.330   4.693  17.106
  439TMC3    C5 6580   4.402   4.579  17.068
  439TMC3    C6 6581   4.377   4.514  16.953
  439TMC3     C 6582   4.136   0.053  17.084
  439TMC3     O 6583   4.083   0.130  17.005
  439TMC3     H 6584   4.126   4.715  16.842
  439TMC3    H1 6585   4.361   4.745  17.196
  439TMC3    H2 6586   4.436   4.430  16.920
  439TMC3    C7 6587   4.492   4.519  17.162
  439TMC3    C8 6588   4.294   4.529  16.728
  439TMC3    O1 6589   4.559   4.593  17.235
  439TMC3    O2 6590   4.387   4.456  16.701
  440MPD2     C 6591   2.611   0.243  15.335
  440MPD2    C1 6592   2.698   0.338  15.376
  440MPD2    C2 6593   2.827   0.301  15.407
  440MPD2    C3 6594   2.855   0.165  15.419
  440MPD2    C4 6595   2.771   0.067  15.379
  440MPD2    C5 6596   2.647   0.106  15.329
  440MPD2     H 6597   2.900   0.379  15.423
  440MPD2    H1 6598   2.801   4.743  15.384
  440MPD2    H2 6599   2.510   0.279  15.318
  440MPD2    H3 6600   2.572   0.034  15.298
  440MPD2     N 6601   2.980   0.121  15.449
  440MPD2    H5 6602   3.006   0.023  15.442
  440MPD2    N1 6603   2.671   0.481  15.375
  440MPD2    H7 6604   2.740   0.549  15.407
  441TMC3    C1 6605   3.202   0.130  15.555
  441TMC3    C2 6606   3.299   0.220  15.580
  441TMC3    C3 6607   3.351   0.221  15.707
  441TMC3    C4 6608   3.154   0.042  15.649
  441TMC3    C5 6609   3.221   0.037  15.769
  441TMC3    C6 6610   3.320   0.129  15.799
  441TMC3     C 6611   3.090   0.195  15.490
  441TMC3     O 6612   3.095   0.313  15.522
  441TMC3     H 6613   3.324   0.294  15.504
  441TMC3    H1 6614   3.055   4.780  15.636
  441TMC3    H2 6615   3.364   0.141  15.897
  441TMC3    C7 6616   3.167   4.725  15.871
  441TMC3    C8 6617   3.394   0.353  15.756
  441TMC3    O1 6618   3.066   4.663  15.842
  441TMC3    O2 6619   3.453   0.353  15.863
  442MPD2     C 6620   1.065   0.885  16.855
  442MPD2    C1 6621   0.929   0.884  16.804
  442MPD2    C2 6622   0.896   0.789  16.718
  442MPD2    C3 6623   0.982   0.677  16.685
  442MPD2    C4 6624   1.116   0.686  16.729
  442MPD2    C5 6625   1.146   0.780  16.815
  442MPD2     H 6626   0.795   0.777  16.682
  442MPD2    H1 6627   1.183   0.609  16.694
  442MPD2    H2 6628   1.117   0.953  16.922
  442MPD2    H3 6629   1.235   0.762  16.873
  442MPD2     N 6630   0.944   0.564  16.606
  442MPD2    H5 6631   1.023   0.510  16.574
  442MPD2    N1 6632   0.837   0.987  16.839
  442MPD2    H7 6633   0.750   0.992  16.788
  443TMC3    C1 6634   0.759   1.187  16.927
  443TMC3    C2 6635   0.724   1.226  16.798
  443TMC3    C3 6636   0.615   1.308  16.786
  443TMC3    C4 6637   0.696   1.238  17.032
  443TMC3    C5 6638   0.594   1.327  17.020
  443TMC3    C6 6639   0.546   1.358  16.891
  443TMC3     C 6640   0.857   1.082  16.934
  443TMC3     O 6641   0.934   1.085  17.033
  443TMC3     H 6642   0.767   1.174  16.713
  443TMC3    H1 6643   0.727   1.193  17.126
  443TMC3    H2 6644   0.470   1.435  16.883
  443TMC3    C7 6645   0.480   1.280  17.097
  443TMC3    C8 6646   0.546   1.293  16.657
  443TMC3    O1 6647   0.477   1.164  17.129
  443TMC3    O2 6648   0.610   1.250  16.564
  444MPD2     C 6649   1.319   0.423  17.392
  444MPD2    C1 6650   1.209   0.351  17.342
  444MPD2    C2 6651   1.231   0.247  17.258
  444MPD2    C3 6652   1.355   0.207  17.210
  444MPD2    C4 6653   1.464   0.279  17.250
  444MPD2    C5 6654   1.445   0.384  17.339
  444MPD2     H 6655   1.133   0.210  17.231
  444MPD2    H1 6656   1.561   0.271  17.203
  444MPD2    H2 6657   1.322   0.499  17.469
  444MPD2    H3 6658   1.534   0.438  17.369
  444MPD2     N 6659   1.356   0.097  17.121
  444MPD2    H5 6660   1.277   0.034  17.135
  444MPD2    N1 6661   1.077   0.370  17.390
  444MPD2    H7 6662   1.006   0.309  17.350
  445TMC3    C1 6663   1.455   4.713  16.974
  445TMC3    C2 6664   1.338   4.679  16.921
  445TMC3    C3 6665   1.332   4.571  16.833
  445TMC3    C4 6666   1.574   4.658  16.947
  445TMC3    C5 6667   1.566   4.558  16.852
  445TMC3    C6 6668   1.448   4.513  16.791
  445TMC3     C 6669   1.470   0.055  17.060
  445TMC3     O 6670   1.579   0.106  17.063
  445TMC3     H 6671   1.245   4.730  16.943
  445TMC3    H1 6672   1.666   4.678  17.001
  445TMC3    H2 6673   1.451   4.446  16.706
  445TMC3    C7 6674   1.682   4.472  16.818
  445TMC3    C8 6675   1.208   4.561  16.756
  445TMC3    O1 6676   1.789   4.532  16.831
  445TMC3    O2 6677   1.119   4.646  16.763
  446MPD2     C 6678   0.353   1.472  11.955
  446MPD2    C1 6679   0.296   1.576  11.879
  446MPD2    C2 6680   0.380   1.662  11.816
  446MPD2    C3 6681   0.522   1.655  11.835
  446MPD2    C4 6682   0.567   1.546  11.906
  446MPD2    C5 6683   0.487   1.452  11.970
  446MPD2     H 6684   0.345   1.733  11.743
  446MPD2    H1 6685   0.675   1.533  11.910
  446MPD2    H2 6686   0.294   1.393  11.999
  446MPD2    H3 6687   0.520   1.365  12.026
  446MPD2     N 6688   0.605   1.750  11.776
  446MPD2    H5 6689   0.565   1.817  11.710
  446MPD2    N1 6690   0.157   1.590  11.861
  446MPD2    H7 6691   0.126   1.667  11.802
  447TMC3    C1 6692   0.807   1.844  11.700
  447TMC3    C2 6693   0.786   1.830  11.568
  447TMC3    C3 6694   0.896   1.800  11.489
  447TMC3    C4 6695   0.942   1.849  11.749
  447TMC3    C5 6696   1.045   1.792  11.673
  447TMC3    C6 6697   1.020   1.767  11.540
  447TMC3     C 6698   0.740   1.754  11.790
  447TMC3     O 6699   0.816   1.696  11.863
  447TMC3     H 6700   0.688   1.832  11.521
  447TMC3    H1 6701   0.957   1.889  11.849
  447TMC3    H2 6702   1.106   1.727  11.488
  447TMC3    C7 6703   1.160   1.736  11.741
  447TMC3    C8 6704   0.889   1.803  11.344
  447TMC3    O1 6705   1.197   1.632  11.702
  447TMC3    O2 6706   0.777   1.799  11.290
  448TMC3    C1 6707   3.926   1.716  17.175
  448TMC3    C2 6708   3.896   1.586  17.139
  448TMC3    C3 6709   3.935   1.488  17.223
  448TMC3    C4 6710   3.997   1.739  17.296
  448TMC3    C5 6711   4.029   1.634  17.374
  448TMC3    C6 6712   3.994   1.507  17.344
  448TMC3     C 6713   3.824   1.807  17.149
  448TMC3     O 6714   3.743   1.776  17.065
  448TMC3     H 6715   3.837   1.567  17.050
  448TMC3    H1 6716   4.021   1.842  17.320
  448TMC3    H2 6717   4.018   1.416  17.398
  448TMC3    C7 6718   4.091   1.670  17.503
  448TMC3    C8 6719   3.890   1.353  17.185
  448TMC3    O1 6720   4.152   1.780  17.515
  448TMC3    O2 6721   3.947   1.262  17.238
  449MPD2     C 6722   0.765   4.406  14.286
  449MPD2    C1 6723   0.644   4.453  14.229
  449MPD2    C2 6724   0.524   4.410  14.277
  449MPD2    C3 6725   0.515   4.320  14.381
  449MPD2    C4 6726   0.627   4.272  14.433
  449MPD2    C5 6727   0.754   4.312  14.385
  449MPD2     H 6728   0.433   4.452  14.235
  449MPD2    H1 6729   0.641   4.190  14.502
  449MPD2    H2 6730   0.867   4.438  14.269
  449MPD2    H3 6731   0.849   4.280  14.427
  449MPD2     N 6732   0.389   4.287  14.422
  449MPD2    H5 6733   0.314   4.312  14.358
  449MPD2    N1 6734   0.639   4.549  14.126
  449MPD2    H7 6735   0.547   4.587  14.106
  450TMC3    C1 6736   0.678   4.676  13.945
  450TMC3    C2 6737   0.682   4.616  13.826
  450TMC3    C3 6738   0.571   4.624  13.740
  450TMC3    C4 6739   0.571   4.752  13.988
  450TMC3    C5 6740   0.455   4.745  13.914
  450TMC3    C6 6741   0.454   4.680  13.790
  450TMC3     C 6742   0.741   4.601  14.053
  450TMC3     O 6743   0.859   4.571  14.052
  450TMC3     H 6744   0.763   4.557  13.786
  450TMC3    H1 6745   0.558   0.000  14.092
  450TMC3    H2 6746   0.363   4.669  13.733
  450TMC3    C7 6747   0.343   4.705  13.996
  450TMC3    C8 6748   0.549   4.524  13.633
  450TMC3    O1 6749   0.370   4.663  14.104
  450TMC3    O2 6750   0.436   4.480  13.618
  451MPD2     C 6751   2.011   3.394  19.674
  451MPD2    C1 6752   2.010   3.419  19.535
  451MPD2    C2 6753   2.093   3.344  19.448
  451MPD2    C3 6754   2.183   3.254  19.502
  451MPD2    C4 6755   2.181   3.225  19.642
  451MPD2    C5 6756   2.096   3.299  19.724
  451MPD2     H 6757   2.079   3.373  19.345
  451MPD2    H1 6758   2.253   3.157  19.686
  451MPD2    H2 6759   1.951   3.444  19.749
  451MPD2    H3 6760   2.089   3.274  19.829
  451MPD2     N 6761   2.267   3.169  19.426
  451MPD2    H5 6762   2.318   3.095  19.472
  451MPD2    N1 6763   1.925   3.527  19.491
  451MPD2    H7 6764   1.877   3.560  19.574
  452TMC3    C1 6765   2.360   3.089  19.225
  452TMC3    C2 6766   2.314   2.965  19.249
  452TMC3    C3 6767   2.358   2.860  19.170
  452TMC3    C4 6768   2.434   3.116  19.115
  452TMC3    C5 6769   2.460   3.019  19.026
  452TMC3    C6 6770   2.428   2.887  19.061
  452TMC3     C 6771   2.292   3.196  19.296
  452TMC3     O 6772   2.290   3.302  19.235
  452TMC3     H 6773   2.236   2.955  19.324
  452TMC3    H1 6774   2.463   3.220  19.102
  452TMC3    H2 6775   2.460   2.804  18.998
  452TMC3    C7 6776   2.423   3.055  18.892
  452TMC3    C8 6777   2.247   2.772  19.144
  452TMC3    O1 6778   2.450   3.171  18.852
  452TMC3    O2 6779   2.239   2.746  19.024
  453TMC3    C1 6780   2.649   0.865  12.335
  453TMC3    C2 6781   2.605   0.735  12.320
  453TMC3    C3 6782   2.568   0.701  12.193
  453TMC3    C4 6783   2.664   0.948  12.230
  453TMC3    C5 6784   2.623   0.914  12.108
  453TMC3    C6 6785   2.567   0.787  12.086
  453TMC3     C 6786   2.773   0.867  12.413
  453TMC3     O 6787   2.865   0.934  12.368
  453TMC3     H 6788   2.604   0.658  12.397
  453TMC3    H1 6789   2.707   1.046  12.247
  453TMC3    H2 6790   2.528   0.766  11.987
  453TMC3    C7 6791   2.687   0.983  11.996
  453TMC3    C8 6792   2.560   0.562  12.163
  453TMC3    O1 6793   2.638   0.983  11.886
  453TMC3    O2 6794   2.524   0.550  12.047
  454MPD2     C 6795   2.032   4.694  16.472
  454MPD2    C1 6796   1.971   4.770  16.376
  454MPD2    C2 6797   1.933   0.121  16.412
  454MPD2    C3 6798   1.940   0.169  16.541
  454MPD2    C4 6799   2.001   0.086  16.633
  454MPD2    C5 6800   2.047   4.744  16.602
  454MPD2     H 6801   1.910   0.193  16.334
  454MPD2    H1 6802   2.016   0.128  16.732
  454MPD2    H2 6803   2.082   4.601  16.448
  454MPD2    H3 6804   2.100   4.680  16.671
  454MPD2     N 6805   1.890   0.298  16.581
  454MPD2    H5 6806   1.894   0.318  16.680
  454MPD2    N1 6807   1.941   4.726  16.244
  454MPD2    H7 6808   1.907   0.017  16.180
  455TMC3    C1 6809   1.690   0.430  16.563
  455TMC3    C2 6810   1.691   0.450  16.698
  455TMC3    C3 6811   1.602   0.379  16.777
  455TMC3    C4 6812   1.591   0.350  16.500
  455TMC3    C5 6813   1.497   0.297  16.587
  455TMC3    C6 6814   1.501   0.307  16.725
  455TMC3     C 6815   1.815   0.385  16.502
  455TMC3     O 6816   1.820   0.395  16.381
  455TMC3     H 6817   1.758   0.522  16.742
  455TMC3    H1 6818   1.590   0.340  16.392
  455TMC3    H2 6819   1.451   0.230  16.782
  455TMC3    C7 6820   1.460   0.163  16.555
  455TMC3    C8 6821   1.578   0.450  16.902
  455TMC3    O1 6822   1.339   0.130  16.574
  455TMC3    O2 6823   1.671   0.502  16.953
  456MPD2     C 6824   4.058   0.177  16.382
  456MPD2    C1 6825   4.152   0.170  16.476
  456MPD2    C2 6826   4.137   0.225  16.606
  456MPD2    C3 6827   4.021   0.298  16.632
  456MPD2    C4 6828   3.922   0.307  16.531
  456MPD2    C5 6829   3.940   0.244  16.407
  456MPD2     H 6830   4.212   0.218  16.684
  456MPD2    H1 6831   3.836   0.368  16.555
  456MPD2    H2 6832   4.085   0.144  16.282
  456MPD2    H3 6833   3.877   0.264  16.321
  456MPD2     N 6834   4.018   0.372  16.750
  456MPD2    H5 6835   4.097   0.365  16.814
  456MPD2    N1 6836   4.268   0.086  16.440
  456MPD2    H7 6837   4.271   0.056  16.343
  457TMC3    C1 6838   3.949   0.516  16.917
  457TMC3    C2 6839   3.870   0.624  16.948
  457TMC3    C3 6840   3.918   0.699  17.056
  457TMC3    C4 6841   4.052   0.473  16.993
  457TMC3    C5 6842   4.083   0.548  17.102
  457TMC3    C6 6843   4.022   0.664  17.136
  457TMC3     C 6844   3.909   0.440  16.808
  457TMC3     O 6845   3.795   0.453  16.769
  457TMC3     H 6846   3.794   0.661  16.879
  457TMC3    H1 6847   4.096   0.377  16.966
  457TMC3    H2 6848   4.054   0.736  17.211
  457TMC3    C7 6849   4.193   0.506  17.188
  457TMC3    C8 6850   3.891   0.842  17.052
  457TMC3    O1 6851   4.268   0.421  17.141
  457TMC3    O2 6852   3.975   0.918  17.099
  458MPD2     C 6853   2.088   4.446  12.507
  458MPD2    C1 6854   2.074   4.368  12.620
  458MPD2    C2 6855   1.959   4.293  12.639
  458MPD2    C3 6856   1.862   4.287  12.543
  458MPD2    C4 6857   1.881   4.358  12.422
  458MPD2    C5 6858   1.993   4.432  12.409
  458MPD2     H 6859   1.944   4.237  12.730
  458MPD2    H1 6860   1.827   4.332  12.331
  458MPD2    H2 6861   2.174   4.508  12.486
  458MPD2    H3 6862   2.012   4.498  12.325
  458MPD2     N 6863   1.753   4.209  12.566
  458MPD2    H5 6864   1.769   4.160  12.654
  458MPD2    N1 6865   2.185   4.372  12.710
  458MPD2    H7 6866   2.251   4.444  12.685
  459TMC3    C1 6867   2.308   4.335  12.916
  459TMC3    C2 6868   2.397   4.436  12.885
  459TMC3    C3 6869   2.487   4.473  12.985
  459TMC3    C4 6870   2.315   4.278  13.041
  459TMC3    C5 6871   2.407   4.321  13.135
  459TMC3    C6 6872   2.494   4.421  13.107
  459TMC3     C 6873   2.197   4.296  12.829
  459TMC3     O 6874   2.126   4.205  12.866
  459TMC3     H 6875   2.395   4.485  12.789
  459TMC3    H1 6876   2.260   4.186  13.058
  459TMC3    H2 6877   2.568   4.459  13.176
  459TMC3    C7 6878   2.379   4.275  13.271
  459TMC3    C8 6879   2.573   4.582  12.957
  459TMC3    O1 6880   2.292   4.190  13.284
  459TMC3    O2 6881   2.683   4.582  13.009
  460MPD2     C 6882   1.178   1.832  11.115
  460MPD2    C1 6883   1.045   1.848  11.152
  460MPD2    C2 6884   0.956   1.906  11.063
  460MPD2    C3 6885   0.999   1.954  10.940
  460MPD2    C4 6886   1.134   1.933  10.905
  460MPD2    C5 6887   1.218   1.871  10.993
  460MPD2     H 6888   0.857   1.925  11.103
  460MPD2    H1 6889   1.175   1.966  10.810
  460MPD2    H2 6890   1.248   1.784  11.183
  460MPD2    H3 6891   1.321   1.856  10.962
  460MPD2     N 6892   0.913   2.022  10.855
  460MPD2    H5 6893   0.816   1.997  10.871
  460MPD2    N1 6894   1.016   1.809  11.286
  460MPD2    H7 6895   1.099   1.792  11.342
  461TMC3    C1 6896   0.855   2.152  10.670
  461TMC3    C2 6897   0.770   2.052  10.622
  461TMC3    C3 6898   0.667   2.082  10.540
  461TMC3    C4 6899   0.834   2.280  10.645
  461TMC3    C5 6900   0.721   2.310  10.570
  461TMC3    C6 6901   0.633   2.216  10.523
  461TMC3     C 6902   0.956   2.110  10.763
  461TMC3     O 6903   1.066   2.168  10.748
  461TMC3     H 6904   0.792   1.948  10.641
  461TMC3    H1 6905   0.904   2.356  10.680
  461TMC3    H2 6906   0.556   2.251  10.456
  461TMC3    C7 6907   0.682   2.447  10.538
  461TMC3    C8 6908   0.630   1.994  10.440
  461TMC3    O1 6909   0.568   2.467  10.502
  461TMC3    O2 6910   0.715   1.926  10.386
  462TMC3    C1 6911   1.191   3.479  18.277
  462TMC3    C2 6912   1.271   3.463  18.167
  462TMC3    C3 6913   1.299   3.335  18.122
  462TMC3    C4 6914   1.130   3.376  18.340
  462TMC3    C5 6915   1.145   3.254  18.278
  462TMC3    C6 6916   1.245   3.228  18.185
  462TMC3     C 6917   1.164   3.608  18.328
  462TMC3     O 6918   1.063   3.615  18.395
  462TMC3     H 6919   1.299   3.548  18.105
  462TMC3    H1 6920   1.064   3.401  18.422
  462TMC3    H2 6921   1.242   3.129  18.140
  462TMC3    C7 6922   1.070   3.140  18.321
  462TMC3    C8 6923   1.329   3.314  17.978
  462TMC3    O1 6924   1.115   3.030  18.310
  462TMC3    O2 6925   1.322   3.413  17.907
  463MPD2     C 6926   1.933   2.169  20.057
  463MPD2    C1 6927   1.935   2.144  19.919
  463MPD2    C2 6928   2.009   2.239  19.844
  463MPD2    C3 6929   2.093   2.333  19.902
  463MPD2    C4 6930   2.101   2.335  20.040
  463MPD2    C5 6931   2.021   2.251  20.116
  463MPD2     H 6932   2.019   2.220  19.738
  463MPD2    H1 6933   2.165   2.404  20.094
  463MPD2    H2 6934   1.874   2.110  20.126
  463MPD2    H3 6935   2.027   2.263  20.224
  463MPD2     N 6936   2.189   2.410  19.831
  463MPD2    H5 6937   2.255   2.466  19.884
  463MPD2    N1 6938   1.873   2.037  19.862
  463MPD2    H7 6939   1.876   2.040  19.761
  464TMC3    C1 6940   1.751   1.835  19.836
  464TMC3    C2 6941   1.722   1.861  19.706
  464TMC3    C3 6942   1.654   1.757  19.640
  464TMC3    C4 6943   1.708   1.724  19.892
  464TMC3    C5 6944   1.639   1.624  19.829
  464TMC3    C6 6945   1.615   1.638  19.692
  464TMC3     C 6946   1.809   1.936  19.925
  464TMC3     O 6947   1.809   1.909  20.043
  464TMC3     H 6948   1.737   1.954  19.652
  464TMC3    H1 6949   1.723   1.701  19.997
  464TMC3    H2 6950   1.585   1.555  19.629
  464TMC3    C7 6951   1.679   1.490  19.864
  464TMC3    C8 6952   1.672   1.757  19.491
  464TMC3    O1 6953   1.785   1.477  19.919
  464TMC3    O2 6954   1.583   1.711  19.420
  465MPD2     C 6955   3.596   0.782  17.421
  465MPD2    C1 6956   3.604   0.649  17.429
  465MPD2    C2 6957   3.579   0.576  17.314
  465MPD2    C3 6958   3.563   0.643  17.195
  465MPD2    C4 6959   3.541   0.773  17.192
  465MPD2    C5 6960   3.563   0.840  17.305
  465MPD2     H 6961   3.604   0.471  17.315
  465MPD2    H1 6962   3.507   0.831  17.107
  465MPD2    H2 6963   3.605   0.845  17.509
  465MPD2    H3 6964   3.534   0.944  17.304
  465MPD2     N 6965   3.550   0.558  17.085
  465MPD2    H5 6966   3.553   0.457  17.097
  465MPD2    N1 6967   3.617   0.575  17.542
  465MPD2    H7 6968   3.647   0.479  17.529
  466TMC3    C1 6969   3.292   0.335  16.839
  466TMC3    C2 6970   3.265   0.392  16.717
  466TMC3    C3 6971   3.346   0.487  16.655
  466TMC3    C4 6972   3.393   0.386  16.915
  466TMC3    C5 6973   3.461   0.497  16.867
  466TMC3    C6 6974   3.443   0.542  16.734
  466TMC3     C 6975   3.194   0.258  16.906
  466TMC3     O 6976   3.216   0.214  17.020
  466TMC3     H 6977   3.176   0.371  16.660
  466TMC3    H1 6978   3.409   0.350  17.016
  466TMC3    H2 6979   3.498   0.629  16.699
  466TMC3    C7 6980   3.515   0.597  16.960
  466TMC3    C8 6981   3.277   0.579  16.571
  466TMC3    O1 6982   3.540   0.709  16.911
  466TMC3    O2 6983   3.302   0.580  16.454
  467TMC3    C1 6984   4.126   3.695  14.324
  467TMC3    C2 6985   4.078   3.784  14.236
  467TMC3    C3 6986   3.940   3.775  14.218
  467TMC3    C4 6987   4.059   3.607  14.397
  467TMC3    C5 6988   3.924   3.597  14.370
  467TMC3    C6 6989   3.862   3.679  14.276
  467TMC3     C 6990   4.267   3.671  14.310
  467TMC3     O 6991   4.337   3.641  14.408
  467TMC3     H 6992   4.141   3.847  14.175
  467TMC3    H1 6993   4.103   3.539  14.469
  467TMC3    H2 6994   3.756   3.672  14.254
  467TMC3    C7 6995   3.855   3.480  14.433
  467TMC3    C8 6996   3.916   3.801  14.075
  467TMC3    O1 6997   3.922   3.409  14.511
  467TMC3    O2 6998   3.891   3.914  14.041
  468MPD2     C 6999   2.597   2.486  11.106
  468MPD2    C1 7000   2.720   2.423  11.111
  468MPD2    C2 7001   2.720   2.293  11.061
  468MPD2    C3 7002   2.606   2.221  11.025
  468MPD2    C4 7003   2.486   2.294  11.016
  468MPD2    C5 7004   2.482   2.431  11.057
  468MPD2     H 7005   2.818   2.246  11.061
  468MPD2    H1 7006   2.398   2.250  10.971
  468MPD2    H2 7007   2.584   2.589  11.138
  468MPD2    H3 7008   2.391   2.489  11.049
  468MPD2     N 7009   2.605   2.086  10.985
  468MPD2    H5 7010   2.511   2.055  10.963
  468MPD2    N1 7011   2.838   2.478  11.156
  468MPD2    H7 7012   2.922   2.423  11.169
  469TMC3    C1 7013   2.977   2.629  11.274
  469TMC3    C2 7014   3.081   2.539  11.267
  469TMC3    C3 7015   3.181   2.540  11.365
  469TMC3    C4 7016   2.971   2.722  11.372
  469TMC3    C5 7017   3.072   2.719  11.471
  469TMC3    C6 7018   3.172   2.628  11.468
  469TMC3     C 7019   2.856   2.612  11.198
  469TMC3     O 7020   2.768   2.701  11.213
  469TMC3     H 7021   3.091   2.462  11.191
  469TMC3    H1 7022   2.894   2.797  11.363
  469TMC3    H2 7023   3.249   2.638  11.544
  469TMC3    C7 7024   3.056   2.807  11.583
  469TMC3    C8 7025   3.273   2.425  11.371
  469TMC3    O1 7026   2.952   2.871  11.577
  469TMC3    O2 7027   3.246   2.327  11.302
  470TMC3    C1 7028   0.401   2.668  18.872
  470TMC3    C2 7029   0.480   2.736  18.789
  470TMC3    C3 7030   0.597   2.784  18.832
  470TMC3    C4 7031   0.426   2.640  19.005
  470TMC3    C5 7032   0.543   2.699  19.056
  470TMC3    C6 7033   0.628   2.766  18.965
  470TMC3     C 7034   0.292   2.591  18.805
  470TMC3     O 7035   0.298   2.573  18.682
  470TMC3     H 7036   0.458   2.744  18.683
  470TMC3    H1 7037   0.360   2.580  19.067
  470TMC3    H2 7038   0.709   2.830  18.999
  470TMC3    C7 7039   0.567   2.733  19.196
  470TMC3    C8 7040   0.622   2.920  18.790
  470TMC3    O1 7041   0.672   2.786  19.216
  470TMC3    O2 7042   0.527   2.996  18.786
  471MPD2     C 7043   0.896   4.245  17.074
  471MPD2    C1 7044   0.964   4.126  17.065
  471MPD2    C2 7045   1.043   4.079  17.163
  471MPD2    C3 7046   1.037   4.145  17.281
  471MPD2    C4 7047   0.957   4.252  17.301
  471MPD2    C5 7048   0.876   4.299  17.198
  471MPD2     H 7049   1.096   3.988  17.137
  471MPD2    H1 7050   0.957   4.300  17.398
  471MPD2    H2 7051   0.838   4.284  16.991
  471MPD2    H3 7052   0.824   4.390  17.225
  471MPD2     N 7053   1.129   4.113  17.388
  471MPD2    H5 7054   1.107   4.146  17.482
  471MPD2    N1 7055   0.977   4.059  16.940
  471MPD2    H7 7056   1.050   3.989  16.938
  472TMC3    C1 7057   0.910   3.984  16.723
  472TMC3    C2 7058   0.853   4.023  16.606
  472TMC3    C3 7059   0.846   3.937  16.502
  472TMC3    C4 7060   0.977   3.862  16.735
  472TMC3    C5 7061   0.973   3.773  16.630
  472TMC3    C6 7062   0.904   3.809  16.515
  472TMC3     C 7063   0.878   4.065  16.839
  472TMC3     O 7064   0.768   4.109  16.835
  472TMC3     H 7065   0.808   4.121  16.594
  472TMC3    H1 7066   1.022   3.831  16.829
  472TMC3    H2 7067   0.921   3.749  16.426
  472TMC3    C7 7068   0.961   3.637  16.676
  472TMC3    C8 7069   0.714   3.914  16.443
  472TMC3    O1 7070   0.991   3.605  16.793
  472TMC3    O2 7071   0.674   3.995  16.357
  473MPD2     C 7072   1.058   1.054  14.252
  473MPD2    C1 7073   0.960   1.147  14.232
  473MPD2    C2 7074   0.975   1.268  14.295
  473MPD2    C3 7075   1.086   1.294  14.378
  473MPD2    C4 7076   1.174   1.188  14.407
  473MPD2    C5 7077   1.160   1.071  14.340
  473MPD2     H 7078   0.899   1.342  14.275
  473MPD2    H1 7079   1.259   1.209  14.471
  473MPD2    H2 7080   1.044   0.956  14.208
  473MPD2    H3 7081   1.230   0.993  14.367
  473MPD2     N 7082   1.114   1.415  14.429
  473MPD2    H5 7083   1.196   1.424  14.488
  473MPD2    N1 7084   0.857   1.139  14.140
  473MPD2    H7 7085   0.784   1.209  14.133
  474TMC3    C1 7086   1.085   1.641  14.485
  474TMC3    C2 7087   0.991   1.717  14.543
  474TMC3    C3 7088   1.023   1.834  14.601
  474TMC3    C4 7089   1.211   1.692  14.475
  474TMC3    C5 7090   1.241   1.802  14.548
  474TMC3    C6 7091   1.152   1.875  14.613
  474TMC3     C 7092   1.036   1.530  14.407
  474TMC3     O 7093   0.942   1.555  14.335
  474TMC3     H 7094   0.888   1.683  14.545
  474TMC3    H1 7095   1.286   1.636  14.420
  474TMC3    H2 7096   1.168   1.965  14.672
  474TMC3    C7 7097   1.381   1.820  14.591
  474TMC3    C8 7098   0.911   1.921  14.635
  474TMC3    O1 7099   1.462   1.774  14.509
  474TMC3    O2 7100   0.801   1.870  14.662
  475MPD2     C 7101   4.128   4.340  11.133
  475MPD2    C1 7102   4.148   4.443  11.039
  475MPD2    C2 7103   4.084   4.569  11.061
  475MPD2    C3 7104   3.999   4.587  11.170
  475MPD2    C4 7105   3.985   4.482  11.257
  475MPD2    C5 7106   4.049   4.365  11.238
  475MPD2     H 7107   4.077   4.650  10.990
  475MPD2    H1 7108   3.932   4.491  11.351
  475MPD2    H2 7109   4.181   4.246  11.121
  475MPD2    H3 7110   4.038   4.288  11.313
  475MPD2     N 7111   3.937   4.706  11.186
  475MPD2    H5 7112   3.962   0.004  11.127
  475MPD2    N1 7113   4.235   4.416  10.934
  475MPD2    H7 7114   4.245   4.317  10.916
  476TMC3    C1 7115   4.324   4.636  10.903
  476TMC3    C2 7116   4.291   4.735  10.818
  476TMC3    C3 7117   4.269   0.077  10.871
  476TMC3    C4 7118   4.369   4.657  11.026
  476TMC3    C5 7119   4.354   4.779  11.081
  476TMC3    C6 7120   4.317   0.107  11.000
  476TMC3     C 7121   4.311   4.496  10.855
  476TMC3     O 7122   4.374   4.460  10.754
  476TMC3     H 7123   4.265   4.704  10.717
  476TMC3    H1 7124   4.395   4.573  11.089
  476TMC3    H2 7125   4.300   0.208  11.034
  476TMC3    C7 7126   4.306   4.774  11.221
  476TMC3    C8 7127   4.124   0.089  10.872
  476TMC3    O1 7128   4.296   4.660  11.265
  476TMC3    O2 7129   4.074   0.122  10.977
  477MPD2     C 7130   1.609   1.219  11.858
  477MPD2    C1 7131   1.574   1.265  11.977
  477MPD2    C2 7132   1.644   1.222  12.093
  477MPD2    C3 7133   1.748   1.140  12.086
  477MPD2    C4 7134   1.784   1.094  11.958
  477MPD2    C5 7135   1.710   1.137  11.848
  477MPD2     H 7136   1.604   1.261  12.186
  477MPD2    H1 7137   1.866   1.026  11.939
  477MPD2    H2 7138   1.543   1.250  11.777
  477MPD2    H3 7139   1.747   1.095  11.755
  477MPD2     N 7140   1.808   1.105  12.208
  477MPD2    H5 7141   1.770   1.139  12.296
  477MPD2    N1 7142   1.454   1.353  11.984
  477MPD2    H7 7143   1.397   1.361  11.900
  478TMC3    C1 7144   1.259   1.441  12.077
  478TMC3    C2 7145   1.210   1.544  12.150
  478TMC3    C3 7146   1.080   1.578  12.131
  478TMC3    C4 7147   1.185   1.368  11.990
  478TMC3    C5 7148   1.054   1.409  11.963
  478TMC3    C6 7149   1.002   1.521  12.024
  478TMC3     C 7150   1.397   1.402  12.101
  478TMC3     O 7151   1.445   1.412  12.215
  478TMC3     H 7152   1.270   1.582  12.232
  478TMC3    H1 7153   1.228   1.282  11.939
  478TMC3    H2 7154   0.898   1.551  12.015
  478TMC3    C7 7155   1.006   1.353  11.840
  478TMC3    C8 7156   1.027   1.670  12.228
  478TMC3    O1 7157   1.033   1.237  11.824
  478TMC3    O2 7158   1.092   1.689  12.333
  479MPD2     C 7159   0.418   3.201  15.527
  479MPD2    C1 7160   0.392   3.136  15.644
  479MPD2    C2 7161   0.480   3.131  15.748
  479MPD2    C3 7162   0.596   3.200  15.727
  479MPD2    C4 7163   0.617   3.277  15.612
  479MPD2    C5 7164   0.528   3.277  15.510
  479MPD2     H 7165   0.471   3.062  15.831
  479MPD2    H1 7166   0.715   3.319  15.591
  479MPD2    H2 7167   0.342   3.209  15.450
  479MPD2    H3 7168   0.537   3.340  15.423
  479MPD2     N 7169   0.702   3.194  15.822
  479MPD2    H5 7170   0.793   3.220  15.786
  479MPD2    N1 7171   0.269   3.070  15.641
  479MPD2    H7 7172   0.225   3.071  15.549
  480TMC3    C1 7173   0.463   3.150  16.220
  480TMC3    C2 7174   0.385   3.263  16.199
  480TMC3    C3 7175   0.428   3.340  16.097
  480TMC3    C4 7176   0.562   3.107  16.146
  480TMC3    C5 7177   0.591   3.183  16.035
  480TMC3    C6 7178   0.534   3.305  16.018
  480TMC3     C 7179   0.415   3.056  16.321
  480TMC3     O 7180   0.495   2.987  16.383
  480TMC3     H 7181   0.313   3.292  16.275
  480TMC3    H1 7182   0.611   3.015  16.177
  480TMC3    H2 7183   0.570   3.365  15.935
  480TMC3    C7 7184   0.702   3.142  15.948
  480TMC3    C8 7185   0.321   3.408  16.026
  480TMC3    O1 7186   0.804   3.107  16.007
  480TMC3    O2 7187   0.213   3.408  16.084
  481MPD2     C 7188   2.010   2.975  14.171
  481MPD2    C1 7189   1.927   2.884  14.233
  481MPD2    C2 7190   1.958   2.840  14.356
  481MPD2    C3 7191   2.078   2.865  14.419
  481MPD2    C4 7192   2.174   2.941  14.346
  481MPD2    C5 7193   2.133   2.996  14.233
  481MPD2     H 7194   1.888   2.771  14.403
  481MPD2    H1 7195   2.268   2.984  14.379
  481MPD2    H2 7196   1.986   3.020  14.076
  481MPD2    H3 7197   2.198   3.070  14.187
  481MPD2     N 7198   2.118   2.827  14.550
  481MPD2    H5 7199   2.213   2.837  14.583
  481MPD2    N1 7200   1.788   2.882  14.190
  481MPD2    H7 7201   1.756   2.944  14.116
  482TMC3    C1 7202   1.563   2.786  14.174
  482TMC3    C2 7203   1.499   2.673  14.148
  482TMC3    C3 7204   1.369   2.675  14.122
  482TMC3    C4 7205   1.505   2.904  14.139
  482TMC3    C5 7206   1.368   2.904  14.124
  482TMC3    C6 7207   1.297   2.791  14.117
  482TMC3     C 7208   1.699   2.781  14.231
  482TMC3     O 7209   1.716   2.682  14.299
  482TMC3     H 7210   1.552   2.579  14.151
  482TMC3    H1 7211   1.554   2.998  14.160
  482TMC3    H2 7212   1.193   2.791  14.086
  482TMC3    C7 7213   1.312   3.012  14.041
  482TMC3    C8 7214   1.319   2.556  14.053
  482TMC3    O1 7215   1.193   3.005  14.019
  482TMC3    O2 7216   1.400   2.469  14.024
  483TMC3    C1 7217   4.709   1.705  18.561
  483TMC3    C2 7218   4.734   1.834  18.583
  483TMC3    C3 7219   0.004   1.871  18.709
  483TMC3    C4 7220   4.729   1.603  18.650
  483TMC3    C5 7221   4.771   1.640  18.775
  483TMC3    C6 7222   0.024   1.773  18.800
  483TMC3     C 7223   4.628   1.678  18.440
  483TMC3     O 7224   4.590   1.775  18.376
  483TMC3     H 7225   4.721   1.908  18.505
  483TMC3    H1 7226   4.713   1.499  18.623
  483TMC3    H2 7227   0.071   1.789  18.896
  483TMC3    C7 7228   0.049   1.537  18.865
  483TMC3    C8 7229   0.078   1.999  18.715
  483TMC3    O1 7230   0.116   1.574  18.962
  483TMC3    O2 7231   0.095   2.054  18.605
  484MPD2     C 7232   2.451   0.097  12.780
  484MPD2    C1 7233   2.546   0.024  12.842
  484MPD2    C2 7234   2.682   0.063  12.843
  484MPD2    C3 7235   2.716   0.181  12.778
  484MPD2    C4 7236   2.620   0.255  12.703
  484MPD2    C5 7237   2.489   0.214  12.716
  484MPD2     H 7238   2.753   4.770  12.879
  484MPD2    H1 7239   2.635   0.359  12.677
  484MPD2    H2 7240   2.350   0.061  12.766
  484MPD2    H3 7241   2.417   0.278  12.667
  484MPD2     N 7242   2.848   0.225  12.768
  484MPD2    H5 7243   2.866   0.316  12.726
  484MPD2    N1 7244   2.502   4.681  12.905
  484MPD2    H7 7245   2.402   4.671  12.919
  485TMC3    C1 7246   3.095   0.229  12.787
  485TMC3    C2 7247   3.196   0.214  12.879
  485TMC3    C3 7248   3.315   0.283  12.860
  485TMC3    C4 7249   3.108   0.312  12.676
  485TMC3    C5 7250   3.219   0.383  12.653
  485TMC3    C6 7251   3.316   0.377  12.751
  485TMC3     C 7252   2.964   0.167  12.820
  485TMC3     O 7253   2.977   0.063  12.891
  485TMC3     H 7254   3.185   0.137  12.954
  485TMC3    H1 7255   3.035   0.292  12.599
  485TMC3    H2 7256   3.409   0.429  12.732
  485TMC3    C7 7257   3.282   0.322  12.538
  485TMC3    C8 7258   3.437   0.211  12.880
  485TMC3    O1 7259   3.275   0.205  12.532
  485TMC3    O2 7260   3.533   0.254  12.816
  486MPD2     C 7261   0.282   3.718  13.465
  486MPD2    C1 7262   0.201   3.640  13.386
  486MPD2    C2 7263   0.098   3.704  13.331
  486MPD2    C3 7264   0.078   3.844  13.347
  486MPD2    C4 7265   0.169   3.917  13.423
  486MPD2    C5 7266   0.273   3.853  13.478
  486MPD2     H 7267   0.034   3.643  13.268
  486MPD2    H1 7268   0.157   4.024  13.431
  486MPD2    H2 7269   0.366   3.667  13.511
  486MPD2    H3 7270   0.346   3.900  13.543
  486MPD2     N 7271   4.746   3.905  13.286
  486MPD2    H5 7272   4.690   3.847  13.225
  486MPD2    N1 7273   0.222   3.505  13.380
  486MPD2    H7 7274   0.298   3.470  13.438
  487TMC3    C1 7275   0.169   3.275  13.346
  487TMC3    C2 7276   0.124   3.176  13.255
  487TMC3    C3 7277   0.137   3.045  13.299
  487TMC3    C4 7278   0.225   3.245  13.466
  487TMC3    C5 7279   0.235   3.116  13.512
  487TMC3    C6 7280   0.210   3.021  13.414
  487TMC3     C 7281   0.151   3.410  13.308
  487TMC3     O 7282   0.079   3.430  13.206
  487TMC3     H 7283   0.069   3.199  13.165
  487TMC3    H1 7284   0.251   3.312  13.547
  487TMC3    H2 7285   0.213   2.920  13.452
  487TMC3    C7 7286   0.167   3.092  13.642
  487TMC3    C8 7287   0.024   2.954  13.293
  487TMC3    O1 7288   0.175   3.182  13.722
  487TMC3    O2 7289   0.024   2.858  13.370
  488MPD2     C 7290   0.263   0.303  16.691
  488MPD2    C1 7291   0.285   0.442  16.690
  488MPD2    C2 7292   0.255   0.510  16.806
  488MPD2    C3 7293   0.182   0.455  16.915
  488MPD2    C4 7294   0.163   0.317  16.912
  488MPD2    C5 7295   0.196   0.244  16.798
  488MPD2     H 7296   0.278   0.616  16.801
  488MPD2    H1 7297   0.101   0.278  16.992
  488MPD2    H2 7298   0.279   0.230  16.612
  488MPD2    H3 7299   0.180   0.137  16.803
  488MPD2     N 7300   0.131   0.540  17.017
  488MPD2    H5 7301   0.152   0.639  17.011
  488MPD2    N1 7302   0.339   0.513  16.577
  488MPD2    H7 7303   0.341   0.614  16.565
  489TMC3    C1 7304   0.009   0.629  17.200
  489TMC3    C2 7305   4.778   0.747  17.139
  489TMC3    C3 7306   4.752   0.853  17.219
  489TMC3    C4 7307   0.002   0.616  17.336
  489TMC3    C5 7308   4.749   0.731  17.413
  489TMC3    C6 7309   4.733   0.848  17.350
  489TMC3     C 7310   0.055   0.504  17.126
  489TMC3     O 7311   0.033   0.393  17.175
  489TMC3     H 7312   0.024   0.769  17.036
  489TMC3    H1 7313   0.006   0.515  17.376
  489TMC3    H2 7314   4.726   0.934  17.416
  489TMC3    C7 7315   4.761   0.734  17.556
  489TMC3    C8 7316   0.043   0.971  17.169
  489TMC3    O1 7317   4.701   0.826  17.612
  489TMC3    O2 7318   0.139   0.952  17.097
  490MPD2     C 7319   1.137   0.026  17.755
  490MPD2    C1 7320   1.130   4.760  17.884
  490MPD2    C2 7321   1.189   0.061  17.982
  490MPD2    C3 7322   1.247   0.183  17.955
  490MPD2    C4 7323   1.255   0.221  17.826
  490MPD2    C5 7324   1.199   0.149  17.728
  490MPD2     H 7325   1.184   0.012  18.079
  490MPD2    H1 7326   1.308   0.310  17.796
  490MPD2    H2 7327   1.101   4.757  17.665
  490MPD2    H3 7328   1.206   0.192  17.629
  490MPD2     N 7329   1.308   0.261  18.051
  490MPD2    H5 7330   1.349   0.348  18.018
  490MPD2    N1 7331   1.072   4.633  17.919
  490MPD2    H7 7332   1.080   4.605  18.016
  491TMC3    C1 7333   0.947   4.434  17.868
  491TMC3    C2 7334   0.929   4.394  18.001
  491TMC3    C3 7335   0.834   4.303  18.031
  491TMC3    C4 7336   0.885   4.364  17.768
  491TMC3    C5 7337   0.794   4.263  17.802
  491TMC3    C6 7338   0.761   4.235  17.928
  491TMC3     C 7339   1.017   4.548  17.822
  491TMC3     O 7340   1.012   4.565  17.701
  491TMC3     H 7341   0.976   4.450  18.081
  491TMC3    H1 7342   0.919   4.378  17.666
  491TMC3    H2 7343   0.681   4.164  17.944
  491TMC3    C7 7344   0.694   4.237  17.692
  491TMC3    C8 7345   0.812   4.266  18.168
  491TMC3    O1 7346   0.629   4.133  17.704
  491TMC3    O2 7347   0.833   4.350  18.254
  492MPD2     C 7348   1.365   0.118  12.012
  492MPD2    C1 7349   1.282   0.059  11.923
  492MPD2    C2 7350   1.196   4.741  11.960
  492MPD2    C3 7351   1.201   4.691  12.091
  492MPD2    C4 7352   1.289   4.737  12.176
  492MPD2    C5 7353   1.379   0.059  12.139
  492MPD2     H 7354   1.130   4.694  11.888
  492MPD2    H1 7355   1.283   4.711  12.281
  492MPD2    H2 7356   1.424   0.204  11.981
  492MPD2    H3 7357   1.455   0.099  12.204
  492MPD2     N 7358   1.119   4.583  12.135
  492MPD2    H5 7359   1.143   4.537  12.222
  492MPD2    N1 7360   1.295   0.102  11.787
  492MPD2    H7 7361   1.349   0.186  11.772
  493TMC3    C1 7362   1.265   0.099  11.552
  493TMC3    C2 7363   1.276   0.232  11.545
  493TMC3    C3 7364   1.277   0.291  11.418
  493TMC3    C4 7365   1.232   0.031  11.435
  493TMC3    C5 7366   1.221   0.097  11.309
  493TMC3    C6 7367   1.243   0.233  11.300
  493TMC3     C 7368   1.242   0.034  11.677
  493TMC3     O 7369   1.180   4.710  11.661
  493TMC3     H 7370   1.282   0.303  11.627
  493TMC3    H1 7371   1.233   4.703  11.437
  493TMC3    H2 7372   1.219   0.283  11.207
  493TMC3    C7 7373   1.094   0.064  11.249
  493TMC3    C8 7374   1.283   0.441  11.421
  493TMC3    O1 7375   1.061   0.129  11.156
  493TMC3    O2 7376   1.219   0.500  11.509
  494TMC3    C1 7377   1.495   1.617  18.413
  494TMC3    C2 7378   1.563   1.519  18.484
  494TMC3    C3 7379   1.666   1.445  18.421
  494TMC3    C4 7380   1.538   1.655  18.290
  494TMC3    C5 7381   1.640   1.588  18.236
  494TMC3    C6 7382   1.696   1.474  18.292
  494TMC3     C 7383   1.390   1.688  18.489
  494TMC3     O 7384   1.382   1.668  18.608
  494TMC3     H 7385   1.527   1.509  18.586
  494TMC3    H1 7386   1.502   1.746  18.243
  494TMC3    H2 7387   1.780   1.430  18.239
  494TMC3    C7 7388   1.691   1.622  18.102
  494TMC3    C8 7389   1.740   1.341  18.483
  494TMC3    O1 7390   1.735   1.535  18.023
  494TMC3    O2 7391   1.847   1.307  18.432
  495TMC3    C1 7392   0.554   3.456  15.079
  495TMC3    C2 7393   0.456   3.486  14.989
  495TMC3    C3 7394   0.336   3.530  15.033
  495TMC3    C4 7395   0.533   3.489  15.215
  495TMC3    C5 7396   0.407   3.529  15.252
  495TMC3    C6 7397   0.298   3.541  15.166
  495TMC3     C 7398   0.607   3.330  15.057
  495TMC3     O 7399   0.592   3.245  15.144
  495TMC3     H 7400   0.464   3.451  14.887
  495TMC3    H1 7401   0.610   3.454  15.284
  495TMC3    H2 7402   0.200   3.578  15.193
  495TMC3    C7 7403   0.383   3.548  15.391
  495TMC3    C8 7404   0.222   3.534  14.932
  495TMC3    O1 7405   0.484   3.584  15.452
  495TMC3    O2 7406   0.109   3.532  14.979
  496MPD2     C 7407   2.296   3.834  15.755
  496MPD2    C1 7408   2.308   3.697  15.762
  496MPD2    C2 7409   2.240   3.632  15.857
  496MPD2    C3 7410   2.138   3.692  15.923
  496MPD2    C4 7411   2.111   3.832  15.917
  496MPD2    C5 7412   2.187   3.895  15.820
  496MPD2     H 7413   2.264   3.528  15.876
  496MPD2    H1 7414   2.028   3.885  15.961
  496MPD2    H2 7415   2.360   3.890  15.687
  496MPD2    H3 7416   2.172   4.001  15.806
  496MPD2     N 7417   2.070   3.632  16.023
  496MPD2    H5 7418   2.046   3.692  16.102
  496MPD2    N1 7419   2.413   3.637  15.688
  496MPD2    H7 7420   2.474   3.704  15.643
  497TMC3    C1 7421   1.993   3.435  16.153
  497TMC3    C2 7422   1.941   3.314  16.133
  497TMC3    C3 7423   1.974   3.211  16.215
  497TMC3    C4 7424   2.070   3.462  16.266
  497TMC3    C5 7425   2.082   3.356  16.362
  497TMC3    C6 7426   2.033   3.233  16.337
  497TMC3     C 7427   2.047   3.496  16.028
  497TMC3     O 7428   2.053   3.418  15.936
  497TMC3     H 7429   1.891   3.293  16.039
  497TMC3    H1 7430   2.118   3.559  16.274
  497TMC3    H2 7431   2.055   3.148  16.401
  497TMC3    C7 7432   2.147   3.384  16.496
  497TMC3    C8 7433   2.022   3.094  16.152
  497TMC3    O1 7434   2.107   3.308  16.583
  497TMC3    O2 7435   2.122   3.047  16.200
  498MPD2     C 7436   3.004   4.556   9.829
  498MPD2    C1 7437   3.050   4.559   9.960
  498MPD2    C2 7438   3.004   4.473  10.062
  498MPD2    C3 7439   2.901   4.389  10.032
  498MPD2    C4 7440   2.854   4.383   9.908
  498MPD2    C5 7441   2.905   4.464   9.812
  498MPD2     H 7442   3.050   4.476  10.160
  498MPD2    H1 7443   2.781   4.311   9.872
  498MPD2    H2 7444   3.039   4.614   9.745
  498MPD2    H3 7445   2.860   4.459   9.713
  498MPD2     N 7446   2.849   4.312  10.140
  498MPD2    H5 7447   2.902   4.295  10.225
  498MPD2    N1 7448   3.155   4.648  10.001
  498MPD2    H7 7449   3.193   4.655  10.095
  499TMC3    C1 7450   3.327   0.031   9.956
  499TMC3    C2 7451   3.430   4.731  10.006
  499TMC3    C3 7452   3.547   0.016  10.017
  499TMC3    C4 7453   3.335   0.168   9.932
  499TMC3    C5 7454   3.459   0.226   9.956
  499TMC3    C6 7455   3.569   0.149   9.992
  499TMC3     C 7456   3.199   4.749   9.917
  499TMC3     O 7457   3.149   0.014   9.814
  499TMC3     H 7458   3.419   4.623  10.002
  499TMC3    H1 7459   3.244   0.219   9.903
  499TMC3    H2 7460   3.668   0.192  10.007
  499TMC3    C7 7461   3.473   0.368   9.928
  499TMC3    C8 7462   3.660   4.715  10.066
  499TMC3    O1 7463   3.584   0.413   9.934
  499TMC3    O2 7464   3.745   4.773  10.123
  500MPD2     C 7465   4.686   0.842  11.153
  500MPD2    C1 7466   4.740   0.874  11.031
  500MPD2    C2 7467   4.647   0.885  10.925
  500MPD2    C3 7468   4.511   0.867  10.945
  500MPD2    C4 7469   4.459   0.849  11.071
  500MPD2    C5 7470   4.551   0.819  11.172
  500MPD2     H 7471   4.685   0.886  10.823
  500MPD2    H1 7472   4.354   0.841  11.098
  500MPD2    H2 7473   4.735   0.828  11.249
  500MPD2    H3 7474   4.518   0.804  11.274
  500MPD2     N 7475   4.415   0.883  10.846
  500MPD2    H5 7476   4.319   0.870  10.877
  500MPD2    N1 7477   0.097   0.909  11.015
  500MPD2    H7 7478   0.126   0.944  10.924
  501TMC3    C1 7479   0.324   0.962  11.083
  501TMC3    C2 7480   0.356   0.966  10.947
  501TMC3    C3 7481   0.480   1.006  10.911
  501TMC3    C4 7482   0.396   1.023  11.180
  501TMC3    C5 7483   0.522   1.057  11.136
  501TMC3    C6 7484   0.564   1.048  11.006
  501TMC3     C 7485   0.191   0.917  11.116
  501TMC3     O 7486   0.167   0.912  11.236
  501TMC3     H 7487   0.287   0.933  10.870
  501TMC3    H1 7488   0.362   1.009  11.282
  501TMC3    H2 7489   0.666   1.079  10.987
  501TMC3    C7 7490   0.621   1.094  11.240
  501TMC3    C8 7491   0.526   0.976  10.780
  501TMC3    O1 7492   0.733   1.065  11.206
  501TMC3    O2 7493   0.499   0.861  10.737
  502TMC3    C1 7494   4.627   4.132  15.278
  502TMC3    C2 7495   4.582   4.229  15.195
  502TMC3    C3 7496   4.465   4.290  15.228
  502TMC3    C4 7497   4.551   4.077  15.373
  502TMC3    C5 7498   4.423   4.122  15.389
  502TMC3    C6 7499   4.376   4.231  15.318
  502TMC3     C 7500   4.750   4.183  15.336
  502TMC3     O 7501   0.047   4.253  15.266
  502TMC3     H 7502   4.654   4.273  15.127
  502TMC3    H1 7503   4.590   3.991  15.426
  502TMC3    H2 7504   4.278   4.276  15.330
  502TMC3    C7 7505   4.384   4.113  15.526
  502TMC3    C8 7506   4.484   4.435  15.256
  502TMC3    O1 7507   4.464   4.069  15.612
  502TMC3    O2 7508   4.563   4.503  15.191
  503MPD2     C 7509   2.219   0.439  17.165
  503MPD2    C1 7510   2.212   0.485  17.298
  503MPD2    C2 7511   2.250   0.408  17.401
  503MPD2    C3 7512   2.281   0.277  17.377
  503MPD2    C4 7513   2.286   0.227  17.249
  503MPD2    C5 7514   2.254   0.309  17.147
  503MPD2     H 7515   2.247   0.443  17.504
  503MPD2    H1 7516   2.309   0.124  17.224
  503MPD2    H2 7517   2.177   0.499  17.086
  503MPD2    H3 7518   2.243   0.277  17.044
  503MPD2     N 7519   2.327   0.202  17.492
  503MPD2    H5 7520   2.348   0.248  17.580
  503MPD2    N1 7521   2.161   0.611  17.331
  503MPD2    H7 7522   2.144   0.623  17.430
  504TMC3    C1 7523   2.431   0.014  17.600
  504TMC3    C2 7524   2.439   0.070  17.730
  504TMC3    C3 7525   2.515   0.011  17.823
  504TMC3    C4 7526   2.524   4.706  17.565
  504TMC3    C5 7527   2.628   4.674  17.652
  504TMC3    C6 7528   2.608   4.691  17.787
  504TMC3     C 7529   2.350   0.064  17.490
  504TMC3     O 7530   2.321   4.762  17.406
  504TMC3     H 7531   2.377   0.155  17.756
  504TMC3    H1 7532   2.534   4.668  17.464
  504TMC3    H2 7533   2.680   4.646  17.855
  504TMC3    C7 7534   2.722   4.577  17.597
  504TMC3    C8 7535   2.480   0.034  17.964
  504TMC3    O1 7536   2.730   4.577  17.476
  504TMC3    O2 7537   2.370   0.078  17.981
  505MPD2     C 7538   2.321   3.584  11.576
  505MPD2    C1 7539   2.362   3.606  11.444
  505MPD2    C2 7540   2.462   3.705  11.428
  505MPD2    C3 7541   2.512   3.783  11.537
  505MPD2    C4 7542   2.461   3.757  11.666
  505MPD2    C5 7543   2.362   3.663  11.675
  505MPD2     H 7544   2.511   3.719  11.332
  505MPD2    H1 7545   2.498   3.802  11.757
  505MPD2    H2 7546   2.238   3.523  11.608
  505MPD2    H3 7547   2.327   3.648  11.776
  505MPD2     N 7548   2.620   3.863  11.527
  505MPD2    H5 7549   2.667   3.894  11.611
  505MPD2    N1 7550   2.341   3.511  11.345
  505MPD2    H7 7551   2.267   3.445  11.369
  506TMC3    C1 7552   2.364   3.384  11.149
  506TMC3    C2 7553   2.378   3.386  11.014
  506TMC3    C3 7554   2.430   3.278  10.953
  506TMC3    C4 7555   2.398   3.275  11.227
  506TMC3    C5 7556   2.455   3.171  11.159
  506TMC3    C6 7557   2.469   3.170  11.026
  506TMC3     C 7558   2.380   3.511  11.217
  506TMC3     O 7559   2.408   3.612  11.147
  506TMC3     H 7560   2.339   3.469  10.956
  506TMC3    H1 7561   2.399   3.275  11.335
  506TMC3    H2 7562   2.526   3.087  10.986
  506TMC3    C7 7563   2.563   3.120  11.234
  506TMC3    C8 7564   2.434   3.272  10.806
  506TMC3    O1 7565   2.531   3.049  11.332
  506TMC3    O2 7566   2.437   3.163  10.757
  507TMC3    C1 7567   3.204   4.498  14.967
  507TMC3    C2 7568   3.141   4.447  14.855
  507TMC3    C3 7569   3.152   4.519  14.738
  507TMC3    C4 7570   3.286   4.607  14.964
  507TMC3    C5 7571   3.303   4.674  14.846
  507TMC3    C6 7572   3.248   4.621  14.726
  507TMC3     C 7573   3.121   4.483  15.086
  507TMC3     O 7574   3.177   4.486  15.196
  507TMC3     H 7575   3.071   4.364  14.862
  507TMC3    H1 7576   3.316   4.638  15.063
  507TMC3    H2 7577   3.241   4.691  14.644
  507TMC3    C7 7578   3.291   0.036  14.860
  507TMC3    C8 7579   3.017   4.567  14.712
  507TMC3    O1 7580   3.222   0.091  14.779
  507TMC3    O2 7581   2.929   4.535  14.783
  508MPD2     C 7582   4.030   2.062  15.789
  508MPD2    C1 7583   4.080   2.164  15.866
  508MPD2    C2 7584   4.158   2.260  15.805
  508MPD2    C3 7585   4.169   2.263  15.670
  508MPD2    C4 7586   4.126   2.156  15.591
  508MPD2    C5 7587   4.049   2.058  15.653
  508MPD2     H 7588   4.201   2.341  15.863
  508MPD2    H1 7589   4.141   2.144  15.484
  508MPD2    H2 7590   3.963   1.985  15.826
  508MPD2    H3 7591   4.012   1.972  15.598
  508MPD2     N 7592   4.223   2.375  15.602
  508MPD2    H5 7593   4.284   2.434  15.658
  508MPD2    N1 7594   4.048   2.152  15.997
  508MPD2    H7 7595   3.968   2.093  16.018
  509TMC3    C1 7596   4.125   2.753  15.493
  509TMC3    C2 7597   4.225   2.799  15.577
  509TMC3    C3 7598   4.332   2.714  15.593
  509TMC3    C4 7599   4.130   2.630  15.432
  509TMC3    C5 7600   4.239   2.550  15.459
  509TMC3    C6 7601   4.334   2.589  15.546
  509TMC3     C 7602   3.994   2.807  15.523
  509TMC3     O 7603   3.894   2.736  15.513
  509TMC3     H 7604   4.210   2.891  15.633
  509TMC3    H1 7605   4.044   2.595  15.375
  509TMC3    H2 7606   4.418   2.524  15.569
  509TMC3    C7 7607   4.203   2.406  15.472
  509TMC3    C8 7608   4.417   2.727  15.705
  509TMC3    O1 7609   4.111   2.374  15.398
  509TMC3    O2 7610   4.441   2.627  15.775
  510MPD2     C 7611   1.909   3.994  15.034
  510MPD2    C1 7612   1.972   3.878  15.084
  510MPD2    C2 7613   2.079   3.819  15.011
  510MPD2    C3 7614   2.134   3.893  14.905
  510MPD2    C4 7615   2.087   4.018  14.876
  510MPD2    C5 7616   1.971   4.066  14.939
  510MPD2     H 7617   2.128   3.724  15.029
  510MPD2    H1 7618   2.135   4.073  14.795
  510MPD2    H2 7619   1.823   4.035  15.086
  510MPD2    H3 7620   1.934   4.164  14.910
  510MPD2     N 7621   2.255   3.838  14.855
  510MPD2    H5 7622   2.285   3.749  14.893
  510MPD2    N1 7623   1.891   3.800  15.170
  510MPD2    H7 7624   1.807   3.845  15.205
  511TMC3    C1 7625   1.814   3.619  15.301
  511TMC3    C2 7626   1.728   3.696  15.370
  511TMC3    C3 7627   1.615   3.628  15.415
  511TMC3    C4 7628   1.782   3.496  15.254
  511TMC3    C5 7629   1.671   3.432  15.297
  511TMC3    C6 7630   1.578   3.503  15.381
  511TMC3     C 7631   1.920   3.674  15.217
  511TMC3     O 7632   2.003   3.595  15.176
  511TMC3     H 7633   1.739   3.801  15.395
  511TMC3    H1 7634   1.838   3.443  15.178
  511TMC3    H2 7635   1.481   3.456  15.391
  511TMC3    C7 7636   1.613   3.329  15.209
  511TMC3    C8 7637   1.523   3.700  15.502
  511TMC3    O1 7638   1.666   3.315  15.097
  511TMC3    O2 7639   1.545   3.823  15.514
  512TMC3    C1 7640   0.573   3.578  13.884
  512TMC3    C2 7641   0.672   3.516  13.957
  512TMC3    C3 7642   0.714   3.392  13.931
  512TMC3    C4 7643   0.528   3.515  13.767
  512TMC3    C5 7644   0.586   3.400  13.723
  512TMC3    C6 7645   0.670   3.337  13.813
  512TMC3     C 7646   0.561   3.719  13.883
  512TMC3     O 7647   0.672   3.770  13.895
  512TMC3     H 7648   0.704   3.569  14.046
  512TMC3    H1 7649   0.467   3.577  13.702
  512TMC3    H2 7650   0.735   3.255  13.784
  512TMC3    C7 7651   0.558   3.348  13.590
  512TMC3    C8 7652   0.815   3.325  14.001
  512TMC3    O1 7653   0.498   3.429  13.519
  512TMC3    O2 7654   0.831   3.203  13.996
  513MPD2     C 7655   2.369   2.740  13.432
  513MPD2    C1 7656   2.496   2.699  13.437
  513MPD2    C2 7657   2.581   2.753  13.535
  513MPD2    C3 7658   2.541   2.847  13.620
  513MPD2    C4 7659   2.412   2.894  13.618
  513MPD2    C5 7660   2.325   2.829  13.528
  513MPD2     H 7661   2.686   2.728  13.527
  513MPD2    H1 7662   2.365   2.963  13.687
  513MPD2    H2 7663   2.288   2.708  13.367
  513MPD2    H3 7664   2.223   2.864  13.522
  513MPD2     N 7665   2.640   2.912  13.699
  513MPD2    H5 7666   2.738   2.890  13.687
  513MPD2    N1 7667   2.544   2.613  13.338
  513MPD2    H7 7668   2.467   2.559  13.300
  514TMC3    C1 7669   2.774   2.668  13.289
  514TMC3    C2 7670   2.740   2.794  13.253
  514TMC3    C3 7671   2.840   2.880  13.205
  514TMC3    C4 7672   2.898   2.612  13.265
  514TMC3    C5 7673   2.992   2.703  13.215
  514TMC3    C6 7674   2.965   2.829  13.169
  514TMC3     C 7675   2.668   2.567  13.318
  514TMC3     O 7676   2.697   2.458  13.279
  514TMC3     H 7677   2.644   2.832  13.285
  514TMC3    H1 7678   2.917   2.507  13.281
  514TMC3    H2 7679   3.033   2.882  13.104
  514TMC3    C7 7680   3.118   2.653  13.155
  514TMC3    C8 7681   2.771   2.990  13.128
  514TMC3    O1 7682   3.102   2.556  13.076
  514TMC3    O2 7683   2.679   3.039  13.184
  515MPD2     C 7684   0.778   0.109  15.175
  515MPD2    C1 7685   0.890   0.100  15.094
  515MPD2    C2 7686   0.984   0.198  15.106
  515MPD2    C3 7687   0.975   0.306  15.195
  515MPD2    C4 7688   0.870   0.313  15.280
  515MPD2    C5 7689   0.770   0.218  15.263
  515MPD2     H 7690   1.070   0.188  15.040
  515MPD2    H1 7691   0.863   0.394  15.351
  515MPD2    H2 7692   0.688   0.048  15.171
  515MPD2    H3 7693   0.681   0.222  15.325
  515MPD2     N 7694   1.075   0.409  15.208
  515MPD2    H5 7695   1.039   0.475  15.277
  515MPD2    N1 7696   0.914   4.775  15.008
  515MPD2    H7 7697   0.958   0.015  14.919
  516TMC3    C1 7698   0.866   4.572  14.902
  516TMC3    C2 7699   0.813   4.632  14.785
  516TMC3    C3 7700   0.713   4.560  14.722
  516TMC3    C4 7701   0.820   4.446  14.934
  516TMC3    C5 7702   0.718   4.385  14.871
  516TMC3    C6 7703   0.659   4.445  14.766
  516TMC3     C 7704   0.855   4.654  15.019
  516TMC3     O 7705   0.813   4.607  15.123
  516TMC3     H 7706   0.848   4.730  14.754
  516TMC3    H1 7707   0.870   4.408  15.023
  516TMC3    H2 7708   0.582   4.394  14.709
  516TMC3    C7 7709   0.633   4.305  14.961
  516TMC3    C8 7710   0.636   4.631  14.615
  516TMC3    O1 7711   0.684   4.287  15.069
  516TMC3    O2 7712   0.514   4.603  14.611
  517MPD2     C 7713   0.377   1.922  17.905
  517MPD2    C1 7714   0.494   1.907  17.975
  517MPD2    C2 7715   0.542   2.002  18.063
  517MPD2    C3 7716   0.464   2.113  18.087
  517MPD2    C4 7717   0.353   2.132  18.013
  517MPD2    C5 7718   0.312   2.041  17.924
  517MPD2     H 7719   0.640   1.992  18.107
  517MPD2    H1 7720   0.299   2.225  18.027
  517MPD2    H2 7721   0.327   1.853  17.837
  517MPD2    H3 7722   0.224   2.058  17.863
  517MPD2     N 7723   0.498   2.207  18.183
  517MPD2    H5 7724   0.443   2.292  18.180
  517MPD2    N1 7725   0.584   1.798  17.951
  517MPD2    H7 7726   0.668   1.788  18.008
  518TMC3    C1 7727   0.657   1.602  17.842
  518TMC3    C2 7728   0.619   1.474  17.797
  518TMC3    C3 7729   0.715   1.380  17.784
  518TMC3    C4 7730   0.787   1.645  17.860
  518TMC3    C5 7731   0.881   1.552  17.820
  518TMC3    C6 7732   0.847   1.417  17.788
  518TMC3     C 7733   0.547   1.692  17.864
  518TMC3     O 7734   0.441   1.663  17.816
  518TMC3     H 7735   0.517   1.438  17.801
  518TMC3    H1 7736   0.808   1.747  17.892
  518TMC3    H2 7737   0.929   1.349  17.769
  518TMC3    C7 7738   1.017   1.584  17.847
  518TMC3    C8 7739   0.692   1.241  17.755
  518TMC3    O1 7740   1.039   1.689  17.907
  518TMC3    O2 7741   0.781   1.188  17.694
  519MPD2     C 7742   1.912   0.106  14.733
  519MPD2    C1 7743   1.931   0.104  14.596
  519MPD2    C2 7744   2.017   0.009  14.551
  519MPD2    C3 7745   2.078   4.693  14.624
  519MPD2    C4 7746   2.063   4.708  14.760
  519MPD2    C5 7747   1.988   0.027  14.815
  519MPD2     H 7748   2.018   0.007  14.443
  519MPD2    H1 7749   2.117   4.650  14.834
  519MPD2    H2 7750   1.866   0.194  14.776
  519MPD2    H3 7751   1.965   0.031  14.921
  519MPD2     N 7752   2.166   4.603  14.571
  519MPD2    H5 7753   2.227   4.547  14.630
  519MPD2    N1 7754   1.847   0.193  14.521
  519MPD2    H7 7755   1.777   0.251  14.566
  520TMC3    C1 7756   2.267   4.471  14.404
  520TMC3    C2 7757   2.260   4.445  14.263
  520TMC3    C3 7758   2.367   4.476  14.185
  520TMC3    C4 7759   2.385   4.517  14.452
  520TMC3    C5 7760   2.493   4.533  14.369
  520TMC3    C6 7761   2.483   4.522  14.233
  520TMC3     C 7762   2.164   4.564  14.438
  520TMC3     O 7763   2.089   4.602  14.347
  520TMC3     H 7764   2.165   4.399  14.241
  520TMC3    H1 7765   2.401   4.533  14.558
  520TMC3    H2 7766   2.572   4.536  14.173
  520TMC3    C7 7767   2.619   4.469  14.416
  520TMC3    C8 7768   2.343   4.508  14.049
  520TMC3    O1 7769   2.617   4.405  14.526
  520TMC3    O2 7770   2.436   4.551  13.983
  521MPD2     C 7771   2.928   3.060  17.439
  521MPD2    C1 7772   2.925   2.940  17.361
  521MPD2    C2 7773   3.019   2.924  17.266
  521MPD2    C3 7774   3.126   3.017  17.254
  521MPD2    C4 7775   3.131   3.126  17.333
  521MPD2    C5 7776   3.033   3.149  17.426
  521MPD2     H 7777   3.027   2.840  17.198
  521MPD2    H1 7778   3.207   3.202  17.321
  521MPD2    H2 7779   2.856   3.079  17.517
  521MPD2    H3 7780   3.033   3.246  17.474
  521MPD2     N 7781   3.212   2.987  17.152
  521MPD2    H5 7782   3.187   2.898  17.110
  521MPD2    N1 7783   2.811   2.850  17.383
  521MPD2    H7 7784   2.743   2.880  17.451
  522TMC3    C1 7785   3.390   3.006  16.994
  522TMC3    C2 7786   3.517   2.967  17.013
  522TMC3    C3 7787   3.561   2.852  16.957
  522TMC3    C4 7788   3.304   2.923  16.927
  522TMC3    C5 7789   3.357   2.814  16.869
  522TMC3    C6 7790   3.486   2.772  16.885
  522TMC3     C 7791   3.327   3.064  17.107
  522TMC3     O 7792   3.379   3.158  17.162
  522TMC3     H 7793   3.579   3.028  17.078
  522TMC3    H1 7794   3.200   2.951  16.912
  522TMC3    H2 7795   3.524   2.675  16.853
  522TMC3    C7 7796   3.263   2.704  16.840
  522TMC3    C8 7797   3.707   2.823  16.974
  522TMC3    O1 7798   3.264   2.607  16.909
  522TMC3    O2 7799   3.769   2.872  17.065
  523MPD2     C 7800   0.867   2.770  10.595
  523MPD2    C1 7801   0.768   2.686  10.542
  523MPD2    C2 7802   0.665   2.742  10.465
  523MPD2    C3 7803   0.662   2.881  10.438
  523MPD2    C4 7804   0.757   2.962  10.493
  523MPD2    C5 7805   0.859   2.906  10.567
  523MPD2     H 7806   0.592   2.672  10.425
  523MPD2    H1 7807   0.763   3.069  10.477
  523MPD2    H2 7808   0.942   2.729  10.661
  523MPD2    H3 7809   0.932   2.974  10.609
  523MPD2     N 7810   0.560   2.934  10.361
  523MPD2    H5 7811   0.553   3.035  10.351
  523MPD2    N1 7812   0.779   2.542  10.566
  523MPD2    H7 7813   0.850   2.523  10.637
  524TMC3    C1 7814   0.367   2.965  10.245
  524TMC3    C2 7815   0.351   2.945  10.108
  524TMC3    C3 7816   0.369   3.051  10.024
  524TMC3    C4 7817   0.384   3.098  10.290
  524TMC3    C5 7818   0.389   3.205  10.197
  524TMC3    C6 7819   0.383   3.181  10.063
  524TMC3     C 7820   0.457   2.866  10.300
  524TMC3     O 7821   0.440   2.751  10.271
  524TMC3     H 7822   0.354   2.841  10.077
  524TMC3    H1 7823   0.391   3.113  10.397
  524TMC3    H2 7824   0.403   3.255   9.986
  524TMC3    C7 7825   0.430   3.331  10.252
  524TMC3    C8 7826   0.359   3.016   9.883
  524TMC3    O1 7827   0.467   3.333  10.366
  524TMC3    O2 7828   0.357   2.897   9.857
  525MPD2     C 7829   3.432   4.154  14.943
  525MPD2    C1 7830   3.547   4.167  15.019
  525MPD2    C2 7831   3.640   4.267  14.989
  525MPD2    C3 7832   3.615   4.347  14.883
  525MPD2    C4 7833   3.504   4.327  14.800
  525MPD2    C5 7834   3.412   4.230  14.837
  525MPD2     H 7835   3.717   4.299  15.059
  525MPD2    H1 7836   3.486   4.404  14.726
  525MPD2    H2 7837   3.359   4.076  14.962
  525MPD2    H3 7838   3.321   4.215  14.780
  525MPD2     N 7839   3.686   4.464  14.850
  525MPD2    H5 7840   3.650   4.521  14.774
  525MPD2    N1 7841   3.575   4.084  15.130
  525MPD2    H7 7842   3.662   4.103  15.179
  526TMC3    C1 7843   3.556   3.924  15.288
  526TMC3    C2 7844   3.477   3.910  15.398
  526TMC3    C3 7845   3.544   3.889  15.518
  526TMC3    C4 7846   3.693   3.927  15.291
  526TMC3    C5 7847   3.751   3.900  15.418
  526TMC3    C6 7848   3.678   3.874  15.527
  526TMC3     C 7849   3.502   3.976  15.163
  526TMC3     O 7850   3.407   3.917  15.115
  526TMC3     H 7851   3.372   3.935  15.388
  526TMC3    H1 7852   3.752   3.951  15.204
  526TMC3    H2 7853   3.715   3.843  15.624
  526TMC3    C7 7854   3.892   3.878  15.434
  526TMC3    C8 7855   3.472   3.900  15.648
  526TMC3    O1 7856   3.937   3.885  15.548
  526TMC3    O2 7857   3.531   3.879  15.751
  527MPD2     C 7858   1.331   2.114  19.524
  527MPD2    C1 7859   1.296   2.212  19.438
  527MPD2    C2 7860   1.398   2.256  19.346
  527MPD2    C3 7861   1.519   2.196  19.352
  527MPD2    C4 7862   1.557   2.108  19.456
  527MPD2    C5 7863   1.456   2.061  19.532
  527MPD2     H 7864   1.381   2.330  19.268
  527MPD2    H1 7865   1.656   2.064  19.454
  527MPD2    H2 7866   1.248   2.066  19.575
  527MPD2    H3 7867   1.484   1.989  19.609
  527MPD2     N 7868   1.616   2.248  19.269
  527MPD2    H5 7869   1.584   2.310  19.196
  527MPD2    N1 7870   1.170   2.278  19.433
  527MPD2    H7 7871   1.156   2.351  19.363
  528TMC3    C1 7872   0.949   2.332  19.461
  528TMC3    C2 7873   0.996   2.457  19.439
  528TMC3    C3 7874   0.939   2.535  19.347
  528TMC3    C4 7875   0.852   2.284  19.378
  528TMC3    C5 7876   0.798   2.370  19.292
  528TMC3    C6 7877   0.837   2.496  19.276
  528TMC3     C 7878   1.054   2.240  19.495
  528TMC3     O 7879   1.038   2.148  19.571
  528TMC3     H 7880   1.085   2.498  19.484
  528TMC3    H1 7881   0.821   2.180  19.373
  528TMC3    H2 7882   0.803   2.544  19.185
  528TMC3    C7 7883   0.740   2.316  19.165
  528TMC3    C8 7884   1.032   2.620  19.283
  528TMC3    O1 7885   0.808   2.343  19.068
  528TMC3    O2 7886   1.153   2.599  19.296
  529MPD2     C 7887   3.802   1.279  19.063
  529MPD2    C1 7888   3.892   1.192  19.015
  529MPD2    C2 7889   3.915   1.186  18.882
  529MPD2    C3 7890   3.846   1.267  18.795
  529MPD2    C4 7891   3.747   1.349  18.846
  529MPD2    C5 7892   3.734   1.359  18.973
  529MPD2     H 7893   3.973   1.102  18.845
  529MPD2    H1 7894   3.699   1.417  18.777
  529MPD2    H2 7895   3.789   1.297  19.169
  529MPD2    H3 7896   3.666   1.433  19.014
  529MPD2     N 7897   3.854   1.248  18.654
  529MPD2    H5 7898   3.778   1.290  18.601
  529MPD2    N1 7899   3.978   1.114  19.097
  529MPD2    H7 7900   4.039   1.046  19.054
  530TMC3    C1 7901   4.088   1.044  19.293
  530TMC3    C2 7902   4.173   1.113  19.375
  530TMC3    C3 7903   4.282   1.043  19.421
  530TMC3    C4 7904   4.120   0.922  19.248
  530TMC3    C5 7905   4.241   0.868  19.277
  530TMC3    C6 7906   4.327   0.931  19.365
  530TMC3     C 7907   3.980   1.125  19.237
  530TMC3     O 7908   3.919   1.202  19.314
  530TMC3     H 7909   4.143   1.206  19.421
  530TMC3    H1 7910   4.048   0.870  19.185
  530TMC3    H2 7911   4.422   0.880  19.372
  530TMC3    C7 7912   4.264   0.733  19.254
  530TMC3    C8 7913   4.373   1.123  19.505
  530TMC3    O1 7914   4.374   0.695  19.217
  530TMC3    O2 7915   4.330   1.235  19.538
  531MPD2     C 7916   3.335   3.016  13.450
  531MPD2    C1 7917   3.219   2.953  13.468
  531MPD2    C2 7918   3.190   2.855  13.374
  531MPD2    C3 7919   3.264   2.826  13.266
  531MPD2    C4 7920   3.380   2.896  13.247
  531MPD2    C5 7921   3.411   2.997  13.339
  531MPD2     H 7922   3.105   2.792  13.399
  531MPD2    H1 7923   3.445   2.893  13.160
  531MPD2    H2 7924   3.356   3.095  13.521
  531MPD2    H3 7925   3.504   3.052  13.331
  531MPD2     N 7926   3.236   2.730  13.166
  531MPD2    H5 7927   3.314   2.709  13.104
  531MPD2    N1 7928   3.142   2.988  13.579
  531MPD2    H7 7929   3.187   3.043  13.651
  532TMC3    C1 7930   2.956   3.019  13.710
  532TMC3    C2 7931   2.820   3.045  13.698
  532TMC3    C3 7932   2.749   3.078  13.808
  532TMC3    C4 7933   3.020   3.015  13.833
  532TMC3    C5 7934   2.948   3.046  13.938
  532TMC3    C6 7935   2.813   3.085  13.936
  532TMC3     C 7936   3.012   2.955  13.593
  532TMC3     O 7937   2.931   2.902  13.513
  532TMC3     H 7938   2.778   3.062  13.600
  532TMC3    H1 7939   3.126   2.994  13.838
  532TMC3    H2 7940   2.758   3.119  14.023
  532TMC3    C7 7941   3.013   3.089  14.059
  532TMC3    C8 7942   2.624   3.008  13.797
  532TMC3    O1 7943   2.967   3.185  14.119
  532TMC3    O2 7944   2.526   3.042  13.860
  533TMC3    C1 7945   3.827   4.643  14.888
  533TMC3    C2 7946   3.959   4.689  14.916
  533TMC3    C3 7947   3.975   0.030  14.972
  533TMC3    C4 7948   3.728   4.724  14.917
  533TMC3    C5 7949   3.747   0.048  15.001
  533TMC3    C6 7950   3.871   0.102  15.024
  533TMC3     C 7951   3.804   4.505  14.913
  533TMC3     O 7952   3.878   4.450  14.995
  533TMC3     H 7953   4.046   4.627  14.895
  533TMC3    H1 7954   3.628   4.689  14.894
  533TMC3    H2 7955   3.887   0.194  15.079
  533TMC3    C7 7956   3.644   0.058  15.111
  533TMC3    C8 7957   4.103   0.104  14.974
  533TMC3    O1 7958   3.549   4.768  15.100
  533TMC3    O2 7959   4.117   0.190  15.055
  534MPD2     C 7960   1.717   1.198  19.880
  534MPD2    C1 7961   1.611   1.262  19.808
  534MPD2    C2 7962   1.531   1.181  19.734
  534MPD2    C3 7963   1.541   1.042  19.731
  534MPD2    C4 7964   1.654   0.985  19.796
  534MPD2    C5 7965   1.732   1.067  19.866
  534MPD2     H 7966   1.447   1.229  19.685
  534MPD2    H1 7967   1.674   0.879  19.803
  534MPD2    H2 7968   1.793   1.254  19.933
  534MPD2    H3 7969   1.822   1.022  19.907
  534MPD2     N 7970   1.439   0.961  19.684
  534MPD2    H5 7971   1.469   0.870  19.651
  534MPD2    N1 7972   1.596   1.400  19.803
  534MPD2    H7 7973   1.507   1.430  19.764
  535TMC3    C1 7974   1.225   0.884  19.601
  535TMC3    C2 7975   1.086   0.893  19.609
  535TMC3    C3 7976   1.006   0.825  19.524
  535TMC3    C4 7977   1.275   0.814  19.498
  535TMC3    C5 7978   1.197   0.745  19.417
  535TMC3    C6 7979   1.063   0.751  19.415
  535TMC3     C 7980   1.304   0.990  19.655
  535TMC3     O 7981   1.249   1.099  19.675
  535TMC3     H 7982   1.042   0.959  19.683
  535TMC3    H1 7983   1.373   0.844  19.463
  535TMC3    H2 7984   1.008   0.709  19.332
  535TMC3    C7 7985   1.264   0.732  19.285
  535TMC3    C8 7986   0.856   0.831  19.530
  535TMC3    O1 7987   1.338   0.636  19.265
  535TMC3    O2 7988   0.795   0.770  19.446
  536MPD2     C 7989   0.594   4.291  16.647
  536MPD2    C1 7990   0.490   4.203  16.662
  536MPD2    C2 7991   0.382   4.217  16.576
  536MPD2    C3 7992   0.366   4.320  16.489
  536MPD2    C4 7993   0.476   4.406  16.475
  536MPD2    C5 7994   0.588   4.391  16.552
  536MPD2     H 7995   0.296   4.151  16.580
  536MPD2    H1 7996   0.468   4.484  16.400
  536MPD2    H2 7997   0.677   4.285  16.717
  536MPD2    H3 7998   0.663   4.470  16.548
  536MPD2     N 7999   0.253   4.340  16.411
  536MPD2    H5 8000   0.260   4.422  16.352
  536MPD2    N1 8001   0.504   4.097  16.753
  536MPD2    H7 8002   0.580   4.108  16.820
  537TMC3    C1 8003   0.429   3.914  16.897
  537TMC3    C2 8004   0.499   3.968  17.000
  537TMC3    C3 8005   0.489   3.902  17.114
  537TMC3    C4 8006   0.361   3.796  16.912
  537TMC3    C5 8007   0.357   3.730  17.027
  537TMC3    C6 8008   0.421   3.786  17.138
  537TMC3     C 8009   0.415   3.993  16.774
  537TMC3     O 8010   0.312   3.965  16.713
  537TMC3     H 8011   0.554   4.061  16.996
  537TMC3    H1 8012   0.309   3.764  16.823
  537TMC3    H2 8013   0.412   3.744  17.238
  537TMC3    C7 8014   0.237   3.648  17.042
  537TMC3    C8 8015   0.500   3.982  17.242
  537TMC3    O1 8016   0.147   3.677  16.966
  537TMC3    O2 8017   0.520   3.927  17.348
  538TMC3    C1 8018   1.291   2.074  11.312
  538TMC3    C2 8019   1.424   2.057  11.287
  538TMC3    C3 8020   1.487   2.114  11.180
  538TMC3    C4 8021   1.219   2.154  11.230
  538TMC3    C5 8022   1.284   2.204  11.107
  538TMC3    C6 8023   1.423   2.198  11.096
  538TMC3     C 8024   1.230   2.066  11.441
  538TMC3     O 8025   1.111   2.091  11.455
  538TMC3     H 8026   1.482   2.007  11.364
  538TMC3    H1 8027   1.113   2.167  11.247
  538TMC3    H2 8028   1.480   2.238  11.013
  538TMC3    C7 8029   1.214   2.327  11.062
  538TMC3    C8 8030   1.609   2.042  11.142
  538TMC3    O1 8031   1.102   2.343  11.111
  538TMC3    O2 8032   1.604   1.921  11.139
  539MPD2     C 8033   0.896   1.914  12.339
  539MPD2    C1 8034   0.894   1.879  12.207
  539MPD2    C2 8035   0.856   1.968  12.116
  539MPD2    C3 8036   0.815   2.096  12.148
  539MPD2    C4 8037   0.799   2.124  12.275
  539MPD2    C5 8038   0.847   2.039  12.370
  539MPD2     H 8039   0.876   1.940  12.013
  539MPD2    H1 8040   0.763   2.222  12.304
  539MPD2    H2 8041   0.944   1.854  12.415
  539MPD2    H3 8042   0.860   2.077  12.471
  539MPD2     N 8043   0.785   2.196  12.052
  539MPD2    H5 8044   0.742   2.279  12.091
  539MPD2    N1 8045   0.943   1.758  12.159
  539MPD2    H7 8046   0.917   1.737  12.063
  540TMC3    C1 8047   0.814   2.332  11.863
  540TMC3    C2 8048   0.825   2.346  11.730
  540TMC3    C3 8049   0.824   2.471  11.673
  540TMC3    C4 8050   0.803   2.445  11.939
  540TMC3    C5 8051   0.803   2.570  11.880
  540TMC3    C6 8052   0.808   2.587  11.742
  540TMC3     C 8053   0.820   2.200  11.918
  540TMC3     O 8054   0.867   2.107  11.855
  540TMC3     H 8055   0.831   2.262  11.662
  540TMC3    H1 8056   0.799   2.446  12.047
  540TMC3    H2 8057   0.812   2.683  11.692
  540TMC3    C7 8058   0.706   2.651  11.949
  540TMC3    C8 8059   0.817   2.474  11.526
  540TMC3    O1 8060   0.614   2.598  12.013
  540TMC3    O2 8061   0.865   2.565  11.463
  541MPD2     C 8062   4.677   3.406  13.743
  541MPD2    C1 8063   4.548   3.358  13.730
  541MPD2    C2 8064   4.472   3.386  13.620
  541MPD2    C3 8065   4.522   3.459  13.517
  541MPD2    C4 8066   4.652   3.509  13.520
  541MPD2    C5 8067   4.730   3.479  13.638
  541MPD2     H 8068   4.373   3.343  13.628
  541MPD2    H1 8069   4.700   3.546  13.430
  541MPD2    H2 8070   4.735   3.392  13.833
  541MPD2    H3 8071   0.054   3.508  13.644
  541MPD2     N 8072   4.450   3.479  13.394
  541MPD2    H5 8073   4.484   3.535  13.316
  541MPD2    N1 8074   4.497   3.273  13.841
  541MPD2    H7 8075   4.555   3.246  13.919
  542TMC3    C1 8076   4.276   3.505  13.258
  542TMC3    C2 8077   4.321   3.455  13.136
  542TMC3    C3 8078   4.267   3.513  13.022
  542TMC3    C4 8079   4.190   3.611  13.269
  542TMC3    C5 8080   4.162   3.669  13.149
  542TMC3    C6 8081   4.198   3.627  13.027
  542TMC3     C 8082   4.317   3.443  13.377
  542TMC3     O 8083   4.234   3.399  13.456
  542TMC3     H 8084   4.366   3.357  13.135
  542TMC3    H1 8085   4.149   3.654  13.360
  542TMC3    H2 8086   4.154   3.671  12.938
  542TMC3    C7 8087   4.091   3.796  13.159
  542TMC3    C8 8088   4.297   3.455  12.891
  542TMC3    O1 8089   4.034   3.823  13.266
  542TMC3    O2 8090   4.225   3.488  12.796
  543TMC3    C1 8091   3.919   4.661  17.830
  543TMC3    C2 8092   3.918   4.526  17.849
  543TMC3    C3 8093   3.878   4.479  17.969
  543TMC3    C4 8094   3.863   4.749  17.924
  543TMC3    C5 8095   3.822   4.692  18.043
  543TMC3    C6 8096   3.837   4.561  18.071
  543TMC3     C 8097   3.970   4.701  17.705
  543TMC3     O 8098   4.066   4.641  17.662
  543TMC3     H 8099   3.964   4.465  17.773
  543TMC3    H1 8100   3.864   0.077  17.915
  543TMC3    H2 8101   3.788   4.520  18.159
  543TMC3    C7 8102   3.755   4.776  18.143
  543TMC3    C8 8103   3.831   4.340  17.958
  543TMC3    O1 8104   3.682   4.714  18.218
  543TMC3    O2 8105   3.891   4.271  17.877
  544MPD2     C 8106   3.554   3.915  18.080
  544MPD2    C1 8107   3.648   3.942  17.974
  544MPD2    C2 8108   3.702   4.070  17.965
  544MPD2    C3 8109   3.672   4.167  18.054
  544MPD2    C4 8110   3.568   4.143  18.140
  544MPD2    C5 8111   3.514   4.019  18.160
  544MPD2     H 8112   3.767   4.090  17.881
  544MPD2    H1 8113   3.549   4.220  18.214
  544MPD2    H2 8114   3.512   3.816  18.095
  544MPD2    H3 8115   3.428   4.016  18.226
  544MPD2     N 8116   3.730   4.298  18.044
  544MPD2    H5 8117   3.684   4.362  18.108
  544MPD2    N1 8118   3.653   3.841  17.874
  544MPD2    H7 8119   3.610   3.753  17.900
  545TMC3    C1 8120   3.713   3.745  17.673
  545TMC3    C2 8121   3.771   3.768  17.547
  545TMC3    C3 8122   3.765   3.666  17.452
  545TMC3    C4 8123   3.667   3.624  17.713
  545TMC3    C5 8124   3.680   3.524  17.618
  545TMC3    C6 8125   3.721   3.542  17.487
  545TMC3     C 8126   3.739   3.850  17.770
  545TMC3     O 8127   3.817   3.941  17.738
  545TMC3     H 8128   3.815   3.864  17.523
  545TMC3    H1 8129   3.630   3.602  17.812
  545TMC3    H2 8130   3.696   3.466  17.414
  545TMC3    C7 8131   3.646   3.382  17.664
  545TMC3    C8 8132   3.821   3.680  17.315
  545TMC3    O1 8133   3.571   3.369  17.763
  545TMC3    O2 8134   3.865   3.572  17.271
  546MPD2     C 8135   0.665   4.562  18.048
  546MPD2    C1 8136   0.604   4.602  17.931
  546MPD2    C2 8137   0.642   4.724  17.862
  546MPD2    C3 8138   0.753   0.004  17.917
  546MPD2    C4 8139   0.814   4.747  18.034
  546MPD2    C5 8140   0.766   4.641  18.107
  546MPD2     H 8141   0.580   4.768  17.785
  546MPD2    H1 8142   0.893   0.029  18.073
  546MPD2    H2 8143   0.637   4.471  18.099
  546MPD2    H3 8144   0.807   4.613  18.203
  546MPD2     N 8145   0.808   0.110  17.844
  546MPD2    H5 8146   0.879   0.174  17.879
  546MPD2    N1 8147   0.499   4.516  17.881
  546MPD2    H7 8148   0.476   4.443  17.948
  547TMC3    C1 8149   0.340   4.421  17.749
  547TMC3    C2 8150   0.287   4.410  17.627
  547TMC3    C3 8151   0.210   4.303  17.600
  547TMC3    C4 8152   0.328   4.319  17.840
  547TMC3    C5 8153   0.257   4.208  17.807
  547TMC3    C6 8154   0.187   4.203  17.688
  547TMC3     C 8155   0.431   4.536  17.769
  547TMC3     O 8156   0.433   4.630  17.689
  547TMC3     H 8157   0.310   4.490  17.557
  547TMC3    H1 8158   0.383   4.307  17.933
  547TMC3    H2 8159   0.135   4.113  17.657
  547TMC3    C7 8160   0.224   4.114  17.915
  547TMC3    C8 8161   0.134   4.318  17.481
  547TMC3    O1 8162   0.194   4.159  18.024
  547TMC3    O2 8163   0.133   4.427  17.420
  548MPD2     C 8164   4.729   0.602  12.955
  548MPD2    C1 8165   4.699   0.486  13.030
  548MPD2    C2 8166   0.004   0.374  13.016
  548MPD2    C3 8167   0.092   0.370  12.918
  548MPD2    C4 8168   0.125   0.486  12.853
  548MPD2    C5 8169   0.052   0.606  12.866
  548MPD2     H 8170   4.775   0.288  13.081
  548MPD2    H1 8171   0.206   0.487  12.781
  548MPD2    H2 8172   4.678   0.696  12.973
  548MPD2    H3 8173   0.083   0.692  12.807
  548MPD2     N 8174   0.170   0.250  12.901
  548MPD2    H5 8175   0.184   0.178  12.971
  548MPD2    N1 8176   4.583   0.492  13.106
  548MPD2    H7 8177   4.535   0.579  13.126
  549TMC3    C1 8178   4.398   0.396  13.233
  549TMC3    C2 8179   4.324   0.505  13.192
  549TMC3    C3 8180   4.183   0.499  13.209
  549TMC3    C4 8181   4.342   0.290  13.288
  549TMC3    C5 8182   4.205   0.289  13.306
  549TMC3    C6 8183   4.121   0.394  13.272
  549TMC3     C 8184   4.531   0.384  13.176
  549TMC3     O 8185   4.586   0.272  13.189
  549TMC3     H 8186   4.358   0.583  13.124
  549TMC3    H1 8187   4.394   0.213  13.345
  549TMC3    H2 8188   4.016   0.394  13.297
  549TMC3    C7 8189   4.142   0.168  13.336
  549TMC3    C8 8190   4.094   0.576  13.127
  549TMC3    O1 8191   4.028   0.182  13.384
  549TMC3    O2 8192   3.989   0.533  13.098
  550TMC3    C1 8193   3.668   3.615  12.732
  550TMC3    C2 8194   3.595   3.608  12.848
  550TMC3    C3 8195   3.486   3.694  12.852
  550TMC3    C4 8196   3.655   3.718  12.643
  550TMC3    C5 8197   3.535   3.785  12.648
  550TMC3    C6 8198   3.452   3.785  12.757
  550TMC3     C 8199   3.705   3.494  12.672
  550TMC3     O 8200   3.730   3.401  12.748
  550TMC3     H 8201   3.607   3.522  12.914
  550TMC3    H1 8202   3.720   3.729  12.557
  550TMC3    H2 8203   3.360   3.843  12.757
  550TMC3    C7 8204   3.475   3.778  12.513
  550TMC3    C8 8205   3.387   3.667  12.956
  550TMC3    O1 8206   3.528   3.714  12.431
  550TMC3    O2 8207   3.272   3.695  12.925
  551TMC3    C1 8208   1.160   0.854  13.701
  551TMC3    C2 8209   1.266   0.819  13.621
  551TMC3    C3 8210   1.392   0.861  13.660
  551TMC3    C4 8211   1.180   0.932  13.807
  551TMC3    C5 8212   1.300   0.971  13.838
  551TMC3    C6 8213   1.416   0.925  13.782
  551TMC3     C 8214   1.038   0.844  13.636
  551TMC3     O 8215   1.022   0.755  13.556
  551TMC3     H 8216   1.249   0.794  13.517
  551TMC3    H1 8217   1.093   0.961  13.865
  551TMC3    H2 8218   1.511   0.968  13.811
  551TMC3    C7 8219   1.316   1.035  13.966
  551TMC3    C8 8220   1.472   0.889  13.543
  551TMC3    O1 8221   1.383   0.974  14.046
  551TMC3    O2 8222   1.477   0.800  13.462
  552MPD2     C 8223   3.043   2.897  14.413
  552MPD2    C1 8224   3.008   2.768  14.460
  552MPD2    C2 8225   3.096   2.698  14.542
  552MPD2    C3 8226   3.209   2.767  14.587
  552MPD2    C4 8227   3.245   2.880  14.532
  552MPD2    C5 8228   3.163   2.951  14.451
  552MPD2     H 8229   3.070   2.605  14.592
  552MPD2    H1 8230   3.346   2.918  14.545
  552MPD2    H2 8231   2.979   2.938  14.335
  552MPD2    H3 8232   3.207   3.044  14.417
  552MPD2     N 8233   3.302   2.721  14.684
  552MPD2    H5 8234   3.382   2.783  14.687
  552MPD2    N1 8235   2.889   2.701  14.416
  552MPD2    H7 8236   2.869   2.607  14.447
  553TMC3    C1 8237   2.699   2.674  14.279
  553TMC3    C2 8238   2.679   2.718  14.153
  553TMC3    C3 8239   2.692   2.637  14.042
  553TMC3    C4 8240   2.727   2.541  14.293
  553TMC3    C5 8241   2.742   2.465  14.184
  553TMC3    C6 8242   2.717   2.502  14.054
  553TMC3     C 8243   2.789   2.765  14.344
  553TMC3     O 8244   2.755   2.884  14.332
  553TMC3     H 8245   2.671   2.825  14.135
  553TMC3    H1 8246   2.730   2.487  14.387
  553TMC3    H2 8247   2.762   2.438  13.978
  553TMC3    C7 8248   2.795   2.332  14.192
  553TMC3    C8 8249   2.754   2.702  13.930
  553TMC3    O1 8250   2.715   2.243  14.155
  553TMC3    O2 8251   2.836   2.788  13.966
  554TMC3    C1 8252   4.670   2.276  11.893
  554TMC3    C2 8253   4.609   2.203  11.795
  554TMC3    C3 8254   4.673   2.188  11.675
  554TMC3    C4 8255   0.024   2.322  11.872
  554TMC3    C5 8256   0.089   2.301  11.757
  554TMC3    C6 8257   0.032   2.220  11.661
  554TMC3     C 8258   4.618   2.248  12.025
  554TMC3     O 8259   4.499   2.223  12.047
  554TMC3     H 8260   4.503   2.182  11.797
  554TMC3    H1 8261   0.067   2.393  11.942
  554TMC3    H2 8262   0.085   2.204  11.568
  554TMC3    C7 8263   0.212   2.354  11.718
  554TMC3    C8 8264   4.605   2.172  11.555
  554TMC3    O1 8265   0.274   2.303  11.624
  554TMC3    O2 8266   4.673   2.130  11.460
  555TMC3    C1 8267   3.887   1.447  15.287
  555TMC3    C2 8268   3.877   1.560  15.368
  555TMC3    C3 8269   3.924   1.544  15.496
  555TMC3    C4 8270   3.947   1.335  15.323
  555TMC3    C5 8271   4.007   1.337  15.444
  555TMC3    C6 8272   3.994   1.438  15.537
  555TMC3     C 8273   3.906   1.480  15.144
  555TMC3     O 8274   4.005   1.436  15.090
  555TMC3     H 8275   3.832   1.652  15.332
  555TMC3    H1 8276   3.965   1.257  15.250
  555TMC3    H2 8277   4.021   1.411  15.638
  555TMC3    C7 8278   4.053   1.210  15.498
  555TMC3    C8 8279   3.897   1.649  15.586
  555TMC3    O1 8280   3.972   1.117  15.499
  555TMC3    O2 8281   3.811   1.733  15.570
  556MPD2     C 8282   2.082   3.208  11.165
  556MPD2    C1 8283   2.107   3.081  11.221
  556MPD2    C2 8284   2.100   2.970  11.133
  556MPD2    C3 8285   2.087   2.988  10.998
  556MPD2    C4 8286   2.067   3.113  10.950
  556MPD2    C5 8287   2.058   3.223  11.028
  556MPD2     H 8288   2.117   2.875  11.182
  556MPD2    H1 8289   2.060   3.128  10.843
  556MPD2    H2 8290   2.066   3.300  11.220
  556MPD2    H3 8291   2.047   3.325  10.992
  556MPD2     N 8292   2.089   2.866  10.917
  556MPD2    H5 8293   2.101   2.777  10.964
  556MPD2    N1 8294   2.128   3.064  11.358
  556MPD2    H7 8295   2.129   2.972  11.400
  557TMC3    C1 8296   2.095   2.730  10.737
  557TMC3    C2 8297   2.058   2.718  10.606
  557TMC3    C3 8298   2.039   2.589  10.549
  557TMC3    C4 8299   2.133   2.617  10.803
  557TMC3    C5 8300   2.114   2.494  10.752
  557TMC3    C6 8301   2.068   2.478  10.622
  557TMC3     C 8302   2.118   2.867  10.786
  557TMC3     O 8303   2.115   2.959  10.707
  557TMC3     H 8304   2.024   2.803  10.548
  557TMC3    H1 8305   2.192   2.618  10.894
  557TMC3    H2 8306   2.045   2.380  10.582
  557TMC3    C7 8307   2.079   2.394  10.853
  557TMC3    C8 8308   1.984   2.582  10.411
  557TMC3    O1 8309   2.041   2.432  10.963
  557TMC3    O2 8310   1.971   2.691  10.365
  558TMC3    C1 8311   4.305   0.939  10.636
  558TMC3    C2 8312   4.191   0.893  10.687
  558TMC3    C3 8313   4.079   0.919  10.609
  558TMC3    C4 8314   4.312   1.007  10.521
  558TMC3    C5 8315   4.204   1.024  10.445
  558TMC3    C6 8316   4.082   0.986  10.486
  558TMC3     C 8317   4.431   0.920  10.710
  558TMC3     O 8318   4.536   0.961  10.663
  558TMC3     H 8319   4.191   0.819  10.766
  558TMC3    H1 8320   4.412   1.035  10.489
  558TMC3    H2 8321   3.997   0.993  10.419
  558TMC3    C7 8322   4.227   1.115  10.341
  558TMC3    C8 8323   3.946   0.900  10.666
  558TMC3    O1 8324   4.322   1.191  10.346
  558TMC3    O2 8325   3.849   0.893  10.593
  559MPD2     C 8326   4.249   1.930  11.243
  559MPD2    C1 8327   4.166   1.844  11.318
  559MPD2    C2 8328   4.213   1.763  11.421
  559MPD2    C3 8329   4.349   1.770  11.446
  559MPD2    C4 8330   4.430   1.850  11.373
  559MPD2    C5 8331   4.382   1.925  11.265
  559MPD2     H 8332   4.155   1.691  11.477
  559MPD2    H1 8333   4.537   1.860  11.390
  559MPD2    H2 8334   4.204   1.991  11.165
  559MPD2    H3 8335   4.439   1.974  11.187
  559MPD2     N 8336   4.392   1.699  11.561
  559MPD2    H5 8337   4.337   1.621  11.597
  559MPD2    N1 8338   4.033   1.851  11.276
  559MPD2    H7 8339   4.009   1.932  11.219
  560TMC3    C1 8340   4.552   1.604  11.716
  560TMC3    C2 8341   4.471   1.497  11.747
  560TMC3    C3 8342   4.507   1.403  11.842
  560TMC3    C4 8343   4.676   1.610  11.766
  560TMC3    C5 8344   4.708   1.514  11.863
  560TMC3    C6 8345   4.626   1.419  11.906
  560TMC3     C 8346   4.525   1.688  11.597
  560TMC3     O 8347   4.624   1.742  11.552
  560TMC3     H 8348   4.377   1.484  11.694
  560TMC3    H1 8349   4.752   1.679  11.733
  560TMC3    H2 8350   4.651   1.343  11.979
  560TMC3    C7 8351   0.062   1.520  11.921
  560TMC3    C8 8352   4.441   1.276  11.826
  560TMC3    O1 8353   0.072   1.435  12.013
  560TMC3    O2 8354   4.326   1.285  11.781
  561TMC3    C1 8355   2.448   0.851  11.331
  561TMC3    C2 8356   2.374   0.762  11.406
  561TMC3    C3 8357   2.332   0.805  11.529
  561TMC3    C4 8358   2.471   0.984  11.363
  561TMC3    C5 8359   2.407   1.026  11.482
  561TMC3    C6 8360   2.343   0.933  11.561
  561TMC3     C 8361   2.513   0.809  11.211
  561TMC3     O 8362   2.453   0.719  11.143
  561TMC3     H 8363   2.378   0.656  11.383
  561TMC3    H1 8364   2.535   1.048  11.302
  561TMC3    H2 8365   2.306   0.975  11.654
  561TMC3    C7 8366   2.420   1.162  11.533
  561TMC3    C8 8367   2.280   0.707  11.622
  561TMC3    O1 8368   2.389   1.183  11.652
  561TMC3    O2 8369   2.257   0.594  11.582
  562TMC3    C1 8370   3.851   2.104  16.851
  562TMC3    C2 8371   3.778   2.214  16.873
  562TMC3    C3 8372   3.651   2.205  16.823
  562TMC3    C4 8373   3.798   1.986  16.809
  562TMC3    C5 8374   3.664   1.968  16.795
  562TMC3    C6 8375   3.590   2.089  16.784
  562TMC3     C 8376   3.991   2.114  16.871
  562TMC3     O 8377   4.066   2.031  16.824
  562TMC3     H 8378   3.831   2.307  16.886
  562TMC3    H1 8379   3.866   1.904  16.789
  562TMC3    H2 8380   3.483   2.076  16.771
  562TMC3    C7 8381   3.602   1.852  16.745
  562TMC3    C8 8382   3.594   2.329  16.772
  562TMC3    O1 8383   3.490   1.860  16.692
  562TMC3    O2 8384   3.606   2.430  16.841
  563MPD2     C 8385   1.143   3.120  15.829
  563MPD2    C1 8386   1.211   3.141  15.950
  563MPD2    C2 8387   1.343   3.084  15.960
  563MPD2    C3 8388   1.388   2.999  15.866
  563MPD2    C4 8389   1.310   2.970  15.757
  563MPD2    C5 8390   1.194   3.040  15.735
  563MPD2     H 8391   1.404   3.089  16.050
  563MPD2    H1 8392   1.353   2.894  15.693
  563MPD2    H2 8393   1.044   3.164  15.824
  563MPD2    H3 8394   1.136   3.009  15.649
  563MPD2     N 8395   1.492   2.916  15.915
  563MPD2    H5 8396   1.504   2.941  16.013
  563MPD2    N1 8397   1.149   3.204  16.060
  563MPD2    H7 8398   1.055   3.234  16.038
  564TMC3    C1 8399   1.114   3.216  16.291
  564TMC3    C2 8400   0.991   3.158  16.265
  564TMC3    C3 8401   0.940   3.074  16.362
  564TMC3    C4 8402   1.175   3.190  16.415
  564TMC3    C5 8403   1.131   3.092  16.504
  564TMC3    C6 8404   1.009   3.043  16.473
  564TMC3     C 8405   1.206   3.213  16.186
  564TMC3     O 8406   1.320   3.190  16.225
  564TMC3     H 8407   0.923   3.200  16.192
  564TMC3    H1 8408   1.274   3.228  16.438
  564TMC3    H2 8409   0.982   2.963  16.541
  564TMC3    C7 8410   1.244   3.000  16.535
  564TMC3    C8 8411   0.892   2.949  16.304
  564TMC3    O1 8412   1.355   3.049  16.554
  564TMC3    O2 8413   0.845   2.866  16.382
  565TMC3    C1 8414   1.826   4.607  10.632
  565TMC3    C2 8415   1.820   4.528  10.748
  565TMC3    C3 8416   1.768   4.405  10.743
  565TMC3    C4 8417   1.788   4.555  10.514
  565TMC3    C5 8418   1.750   4.425  10.510
  565TMC3    C6 8419   1.724   4.355  10.625
  565TMC3     C 8420   1.887   4.740  10.630
  565TMC3     O 8421   1.925   4.777  10.523
  565TMC3     H 8422   1.860   4.573  10.838
  565TMC3    H1 8423   1.810   4.608  10.422
  565TMC3    H2 8424   1.720   4.247  10.623
  565TMC3    C7 8425   1.666   4.383  10.397
  565TMC3    C8 8426   1.782   4.323  10.861
  565TMC3    O1 8427   1.667   4.459  10.301
  565TMC3    O2 8428   1.879   4.346  10.939
  566MPD2     C 8429   3.707   1.261  14.881
  566MPD2    C1 8430   3.715   1.158  14.785
  566MPD2    C2 8431   3.597   1.098  14.742
  566MPD2    C3 8432   3.473   1.140  14.787
  566MPD2    C4 8433   3.467   1.238  14.879
  566MPD2    C5 8434   3.587   1.298  14.923
  566MPD2     H 8435   3.601   1.024  14.663
  566MPD2    H1 8436   3.374   1.286  14.907
  566MPD2    H2 8437   3.784   1.329  14.916
  566MPD2    H3 8438   3.582   1.381  14.993
  566MPD2     N 8439   3.359   1.091  14.732
  566MPD2    H5 8440   3.275   1.144  14.754
  566MPD2    N1 8441   3.841   1.140  14.725
  566MPD2    H7 8442   3.913   1.207  14.750
  567TMC3    C1 8443   4.001   1.045  14.578
  567TMC3    C2 8444   4.022   1.173  14.537
  567TMC3    C3 8445   4.149   1.225  14.537
  567TMC3    C4 8446   4.098   0.974  14.633
  567TMC3    C5 8447   4.226   1.029  14.642
  567TMC3    C6 8448   4.251   1.150  14.591
  567TMC3     C 8449   3.869   1.030  14.641
  567TMC3     O 8450   3.825   0.920  14.640
  567TMC3     H 8451   3.940   1.229  14.492
  567TMC3    H1 8452   4.068   0.877  14.671
  567TMC3    H2 8453   4.353   1.187  14.601
  567TMC3    C7 8454   4.284   1.010  14.775
  567TMC3    C8 8455   4.176   1.326  14.442
  567TMC3    O1 8456   4.404   1.035  14.793
  567TMC3    O2 8457   4.278   1.313  14.373
  568MPD2     C 8458   0.824   1.487  16.546
  568MPD2    C1 8459   0.858   1.571  16.648
  568MPD2    C2 8460   0.856   1.710  16.635
  568MPD2    C3 8461   0.834   1.758  16.507
  568MPD2    C4 8462   0.799   1.675  16.408
  568MPD2    C5 8463   0.787   1.539  16.423
  568MPD2     H 8464   0.872   1.778  16.717
  568MPD2    H1 8465   0.792   1.713  16.307
  568MPD2    H2 8466   0.815   1.379  16.550
  568MPD2    H3 8467   0.768   1.489  16.329
  568MPD2     N 8468   0.850   1.899  16.497
  568MPD2    H5 8469   0.895   1.952  16.570
  568MPD2    N1 8470   0.908   1.517  16.767
  568MPD2    H7 8471   0.924   1.417  16.771
  569TMC3    C1 8472   0.906   2.095  16.393
  569TMC3    C2 8473   0.919   2.163  16.507
  569TMC3    C3 8474   1.009   2.262  16.517
  569TMC3    C4 8475   0.976   2.128  16.280
  569TMC3    C5 8476   1.054   2.238  16.287
  569TMC3    C6 8477   1.083   2.300  16.406
  569TMC3     C 8478   0.832   1.971  16.386
  569TMC3     O 8479   0.803   1.936  16.270
  569TMC3     H 8480   0.862   2.142  16.597
  569TMC3    H1 8481   0.956   2.085  16.182
  569TMC3    H2 8482   1.131   2.397  16.400
  569TMC3    C7 8483   1.044   2.322  16.169
  569TMC3    C8 8484   0.976   2.366  16.614
  569TMC3    O1 8485   1.082   2.270  16.063
  569TMC3    O2 8486   0.868   2.373  16.667
  570TMC3    C1 8487   0.435   0.555  16.366
  570TMC3    C2 8488   0.549   0.532  16.292
  570TMC3    C3 8489   0.595   0.632  16.218
  570TMC3    C4 8490   0.361   0.671  16.356
  570TMC3    C5 8491   0.415   0.770  16.276
  570TMC3    C6 8492   0.529   0.752  16.206
  570TMC3     C 8493   0.387   0.456  16.466
  570TMC3     O 8494   0.428   0.340  16.453
  570TMC3     H 8495   0.610   0.447  16.319
  570TMC3    H1 8496   0.273   0.680  16.418
  570TMC3    H2 8497   0.570   0.837  16.153
  570TMC3    C7 8498   0.415   0.907  16.325
  570TMC3    C8 8499   0.732   0.634  16.185
  570TMC3    O1 8500   0.527   0.943  16.358
  570TMC3    O2 8501   0.787   0.744  16.183
  571MPD2     C 8502   2.965   2.478  17.513
  571MPD2    C1 8503   2.904   2.542  17.616
  571MPD2    C2 8504   2.949   2.665  17.660
  571MPD2    C3 8505   3.068   2.712  17.610
  571MPD2    C4 8506   3.122   2.646  17.505
  571MPD2    C5 8507   3.070   2.528  17.464
  571MPD2     H 8508   2.889   2.713  17.737
  571MPD2    H1 8509   3.215   2.680  17.461
  571MPD2    H2 8510   2.933   2.386  17.466
  571MPD2    H3 8511   3.121   2.487  17.378
  571MPD2     N 8512   3.132   2.832  17.661
  571MPD2    H5 8513   3.227   2.848  17.628
  571MPD2    N1 8514   2.786   2.479  17.668
  571MPD2    H7 8515   2.766   2.388  17.628
  572TMC3    C1 8516   3.168   2.999  17.828
  572TMC3    C2 8517   3.282   2.934  17.877
  572TMC3    C3 8518   3.337   2.987  17.985
  572TMC3    C4 8519   3.114   3.108  17.887
  572TMC3    C5 8520   3.181   3.168  17.993
  572TMC3    C6 8521   3.301   3.112  18.032
  572TMC3     C 8522   3.075   2.919  17.758
  572TMC3     O 8523   2.960   2.932  17.801
  572TMC3     H 8524   3.302   2.832  17.846
  572TMC3    H1 8525   3.041   3.166  17.831
  572TMC3    H2 8526   3.354   3.166  18.109
  572TMC3    C7 8527   3.131   3.300  18.033
  572TMC3    C8 8528   3.427   2.914  18.053
  572TMC3    O1 8529   3.033   3.342  17.975
  572TMC3    O2 8530   3.470   2.813  17.996
  573MPD2     C 8531   4.037   2.723  18.493
  573MPD2    C1 8532   4.146   2.806  18.462
  573MPD2    C2 8533   4.181   2.817  18.326
  573MPD2    C3 8534   4.104   2.755  18.224
  573MPD2    C4 8535   4.004   2.679  18.264
  573MPD2    C5 8536   3.962   2.661  18.396
  573MPD2     H 8537   4.258   2.887  18.294
  573MPD2    H1 8538   3.950   2.627  18.186
  573MPD2    H2 8539   4.000   2.693  18.590
  573MPD2    H3 8540   3.896   2.582  18.428
  573MPD2     N 8541   4.125   2.775  18.086
  573MPD2    H5 8542   4.078   2.712  18.022
  573MPD2    N1 8543   4.219   2.859  18.564
  573MPD2    H7 8544   4.172   2.853  18.654
  574TMC3    C1 8545   4.269   2.796  17.888
  574TMC3    C2 8546   4.170   2.725  17.827
  574TMC3    C3 8547   4.146   2.753  17.695
  574TMC3    C4 8548   4.343   2.887  17.826
  574TMC3    C5 8549   4.330   2.897  17.687
  574TMC3    C6 8550   4.229   2.829  17.623
  574TMC3     C 8551   4.241   2.826  18.027
  574TMC3     O 8552   4.326   2.891  18.081
  574TMC3     H 8553   4.103   2.666  17.889
  574TMC3    H1 8554   4.424   2.941  17.873
  574TMC3    H2 8555   4.204   2.853  17.520
  574TMC3    C7 8556   4.392   3.002  17.611
  574TMC3    C8 8557   4.004   2.765  17.674
  574TMC3    O1 8558   4.371   3.013  17.492
  574TMC3    O2 8559   3.948   2.670  17.719
  575TMC3    C1 8560   2.176   4.032  11.597
  575TMC3    C2 8561   2.142   3.908  11.649
  575TMC3    C3 8562   2.038   3.840  11.591
  575TMC3    C4 8563   2.117   4.088  11.486
  575TMC3    C5 8564   2.021   4.012  11.431
  575TMC3    C6 8565   1.973   3.893  11.481
  575TMC3     C 8566   2.250   4.124  11.674
  575TMC3     O 8567   2.352   4.086  11.728
  575TMC3     H 8568   2.185   3.877  11.744
  575TMC3    H1 8569   2.145   4.185  11.448
  575TMC3    H2 8570   1.900   3.833  11.428
  575TMC3    C7 8571   1.961   4.061  11.307
  575TMC3    C8 8572   2.001   3.709  11.636
  575TMC3    O1 8573   1.980   4.176  11.278
  575TMC3    O2 8574   2.023   3.690  11.750
  576MPD2     C 8575   1.646   0.750  12.843
  576MPD2    C1 8576   1.674   0.874  12.781
  576MPD2    C2 8577   1.610   0.990  12.819
  576MPD2    C3 8578   1.524   0.995  12.928
  576MPD2    C4 8579   1.502   0.868  12.993
  576MPD2    C5 8580   1.558   0.755  12.947
  576MPD2     H 8581   1.628   1.087  12.773
  576MPD2    H1 8582   1.442   0.858  13.082
  576MPD2    H2 8583   1.699   0.662  12.810
  576MPD2    H3 8584   1.532   0.664  13.000
  576MPD2     N 8585   1.471   1.116  12.978
  576MPD2    H5 8586   1.504   1.196  12.924
  576MPD2    N1 8587   1.762   0.890  12.671
  576MPD2    H7 8588   1.771   0.986  12.640
  577TMC3    C1 8589   1.943   0.853  12.530
  577TMC3    C2 8590   2.078   0.819  12.529
  577TMC3    C3 8591   2.159   0.862  12.426
  577TMC3    C4 8592   1.894   0.943  12.443
  577TMC3    C5 8593   1.981   1.003  12.359
  577TMC3    C6 8594   2.116   0.969  12.353
  577TMC3     C 8595   1.849   0.803  12.630
  577TMC3     O 8596   1.879   0.691  12.672
  577TMC3     H 8597   2.103   0.737  12.595
  577TMC3    H1 8598   1.790   0.958  12.418
  577TMC3    H2 8599   2.179   1.005  12.272
  577TMC3    C7 8600   1.924   1.022  12.222
  577TMC3    C8 8601   2.209   0.748  12.349
  577TMC3    O1 8602   1.996   0.973  12.134
  577TMC3    O2 8603   2.227   0.640  12.405
  578MPD2     C 8604   4.242   1.187  18.883
  578MPD2    C1 8605   4.301   1.064  18.849
  578MPD2    C2 8606   4.383   1.003  18.946
  578MPD2    C3 8607   4.433   1.075  19.051
  578MPD2    C4 8608   4.375   1.197  19.078
  578MPD2    C5 8609   4.281   1.256  18.998
  578MPD2     H 8610   4.420   0.902  18.933
  578MPD2    H1 8611   4.394   1.244  19.174
  578MPD2    H2 8612   4.172   1.233  18.814
  578MPD2    H3 8613   4.230   1.351  19.007
  578MPD2     N 8614   4.532   1.025  19.137
  578MPD2    H5 8615   4.561   0.931  19.114
  578MPD2    N1 8616   4.283   1.011  18.716
  578MPD2    H7 8617   4.226   1.056  18.645
  579TMC3    C1 8618   4.689   0.988  19.297
  579TMC3    C2 8619   0.015   1.036  19.363
  579TMC3    C3 8620   0.112   0.952  19.412
  579TMC3    C4 8621   4.669   0.849  19.276
  579TMC3    C5 8622   4.770   0.770  19.326
  579TMC3    C6 8623   0.092   0.817  19.398
  579TMC3     C 8624   4.600   1.083  19.240
  579TMC3     O 8625   4.603   1.201  19.277
  579TMC3     H 8626   0.029   1.143  19.370
  579TMC3    H1 8627   4.589   0.798  19.224
  579TMC3    H2 8628   0.158   0.743  19.442
  579TMC3    C7 8629   4.735   0.629  19.354
  579TMC3    C8 8630   0.221   1.012  19.484
  579TMC3    O1 8631   4.744   0.587  19.470
  579TMC3    O2 8632   0.197   1.127  19.516
  580TMC3    C1 8633   4.242   0.047  12.586
  580TMC3    C2 8634   4.354   0.060  12.515
  580TMC3    C3 8635   4.386   4.752  12.413
  580TMC3    C4 8636   4.162   4.710  12.560
  580TMC3    C5 8637   4.203   4.613  12.471
  580TMC3    C6 8638   4.309   4.639  12.389
  580TMC3     C 8639   4.177   0.176  12.601
  580TMC3     O 8640   4.247   0.277  12.579
  580TMC3     H 8641   4.411   0.151  12.531
  580TMC3    H1 8642   4.075   4.692  12.622
  580TMC3    H2 8643   4.352   4.566  12.321
  580TMC3    C7 8644   4.187   4.483  12.510
  580TMC3    C8 8645   4.491   4.778  12.321
  580TMC3    O1 8646   4.123   4.463  12.612
  580TMC3    O2 8647   4.464   4.778  12.203
  581MPD2     C 8648   2.325   4.283  14.792
  581MPD2    C1 8649   2.313   4.284  14.928
  581MPD2    C2 8650   2.197   4.340  14.981
  581MPD2    C3 8651   2.091   4.388  14.908
  581MPD2    C4 8652   2.104   4.377  14.771
  581MPD2    C5 8653   2.220   4.328  14.716
  581MPD2     H 8654   2.177   4.346  15.087
  581MPD2    H1 8655   2.025   4.412  14.705
  581MPD2    H2 8656   2.418   4.241  14.756
  581MPD2    H3 8657   2.222   4.320  14.608
  581MPD2     N 8658   1.971   4.427  14.973
  581MPD2    H5 8659   1.975   4.443  15.073
  581MPD2    N1 8660   2.412   4.210  15.006
  581MPD2    H7 8661   2.487   4.159  14.961
  582TMC3    C1 8662   2.489   4.094  15.192
  582TMC3    C2 8663   2.554   4.110  15.313
  582TMC3    C3 8664   2.594   4.005  15.385
  582TMC3    C4 8665   2.435   3.976  15.170
  582TMC3    C5 8666   2.463   3.866  15.248
  582TMC3    C6 8667   2.544   3.881  15.352
  582TMC3     C 8668   2.403   4.199  15.145
  582TMC3     O 8669   2.328   4.249  15.229
  582TMC3     H 8670   2.588   4.208  15.343
  582TMC3    H1 8671   2.378   3.967  15.078
  582TMC3    H2 8672   2.554   3.796  15.419
  582TMC3    C7 8673   2.341   3.811  15.292
  582TMC3    C8 8674   2.607   4.034  15.531
  582TMC3    O1 8675   2.346   3.710  15.356
  582TMC3    O2 8676   2.549   4.133  15.565
  583MPD2     C 8677   2.293   1.086  16.924
  583MPD2    C1 8678   2.283   1.209  16.856
  583MPD2    C2 8679   2.227   1.321  16.924
  583MPD2    C3 8680   2.187   1.312  17.057
  583MPD2    C4 8681   2.183   1.187  17.116
  583MPD2    C5 8682   2.244   1.078  17.054
  583MPD2     H 8683   2.214   1.411  16.865
  583MPD2    H1 8684   2.154   1.168  17.219
  583MPD2    H2 8685   2.348   1.005  16.877
  583MPD2    H3 8686   2.257   0.984  17.107
  583MPD2     N 8687   2.129   1.429  17.120
  583MPD2    H5 8688   2.107   1.505  17.056
  583MPD2    N1 8689   2.344   1.233  16.729
  583MPD2    H7 8690   2.314   1.314  16.675
  584TMC3    C1 8691   2.043   1.579  17.277
  584TMC3    C2 8692   2.024   1.679  17.186
  584TMC3    C3 8693   1.969   1.793  17.232
  584TMC3    C4 8694   2.001   1.596  17.411
  584TMC3    C5 8695   1.945   1.712  17.452
  584TMC3    C6 8696   1.938   1.816  17.362
  584TMC3     C 8697   2.094   1.443  17.244
  584TMC3     O 8698   2.085   1.364  17.336
  584TMC3     H 8699   2.048   1.670  17.081
  584TMC3    H1 8700   2.014   1.517  17.484
  584TMC3    H2 8701   1.889   1.910  17.386
  584TMC3    C7 8702   1.894   1.714  17.583
  584TMC3    C8 8703   1.970   1.906  17.138
  584TMC3    O1 8704   1.892   1.607  17.644
  584TMC3    O2 8705   1.950   1.879  17.020
  585MPD2     C 8706   1.695   0.324  19.004
  585MPD2    C1 8707   1.791   0.367  18.911
  585MPD2    C2 8708   1.767   0.340  18.776
  585MPD2    C3 8709   1.650   0.278  18.735
  585MPD2    C4 8710   1.558   0.238  18.830
  585MPD2    C5 8711   1.586   0.253  18.962
  585MPD2     H 8712   1.841   0.359  18.699
  585MPD2    H1 8713   1.472   0.177  18.804
  585MPD2    H2 8714   1.702   0.348  19.109
  585MPD2    H3 8715   1.508   0.216  19.028
  585MPD2     N 8716   1.616   0.259  18.601
  585MPD2    H5 8717   1.527   0.219  18.575
  585MPD2    N1 8718   1.905   0.442  18.959
  585MPD2    H7 8719   1.920   0.439  19.059
  586TMC3    C1 8720   1.629   0.280  18.371
  586TMC3    C2 8721   1.710   0.298  18.259
  586TMC3    C3 8722   1.663   0.341  18.144
  586TMC3    C4 8723   1.495   0.274  18.361
  586TMC3    C5 8724   1.443   0.316  18.232
  586TMC3    C6 8725   1.527   0.363  18.138
  586TMC3     C 8726   1.696   0.293  18.499
  586TMC3     O 8727   1.821   0.321  18.493
  586TMC3     H 8728   1.813   0.263  18.255
  586TMC3    H1 8729   1.428   0.244  18.441
  586TMC3    H2 8730   1.488   0.413  18.050
  586TMC3    C7 8731   1.342   0.223  18.177
  586TMC3    C8 8732   1.680   0.236  18.041
  586TMC3    O1 8733   1.308   0.126  18.239
  586TMC3    O2 8734   1.732   0.135  18.082
  587TMC3    C1 8735   3.915   3.728  16.418
  587TMC3    C2 8736   3.912   3.856  16.458
  587TMC3    C3 8737   4.030   3.906  16.508
  587TMC3    C4 8738   4.027   3.646  16.425
  587TMC3    C5 8739   4.138   3.700  16.490
  587TMC3    C6 8740   4.143   3.831  16.527
  587TMC3     C 8741   3.787   3.673  16.368
  587TMC3     O 8742   3.795   3.583  16.289
  587TMC3     H 8743   3.833   3.924  16.427
  587TMC3    H1 8744   4.028   3.541  16.398
  587TMC3    H2 8745   4.218   3.879  16.589
  587TMC3    C7 8746   4.245   3.616  16.525
  587TMC3    C8 8747   4.017   4.043  16.559
  587TMC3    O1 8748   4.228   3.496  16.512
  587TMC3    O2 8749   4.116   4.112  16.550
  588TMC3    C1 8750   1.006   1.784  10.166
  588TMC3    C2 8751   1.013   1.646  10.201
  588TMC3    C3 8752   1.138   1.601  10.236
  588TMC3    C4 8753   1.117   1.861  10.155
  588TMC3    C5 8754   1.243   1.805  10.178
  588TMC3    C6 8755   1.253   1.674  10.221
  588TMC3     C 8756   0.885   1.824  10.094
  588TMC3     O 8757   0.798   1.740  10.060
  588TMC3     H 8758   0.927   1.580  10.203
  588TMC3    H1 8759   1.097   1.967  10.168
  588TMC3    H2 8760   1.348   1.629  10.247
  588TMC3    C7 8761   1.364   1.882  10.143
  588TMC3    C8 8762   1.149   1.460  10.262
  588TMC3    O1 8763   1.466   1.855  10.201
  588TMC3    O2 8764   1.050   1.397  10.229
  589TMC3    C1 8765   0.418   3.627  19.188
  589TMC3    C2 8766   0.512   3.669  19.276
  589TMC3    C3 8767   0.643   3.647  19.243
  589TMC3    C4 8768   0.451   3.568  19.067
  589TMC3    C5 8769   0.583   3.543  19.037
  589TMC3    C6 8770   0.676   3.580  19.123
  589TMC3     C 8771   0.285   3.616  19.234
  589TMC3     O 8772   0.198   3.605  19.147
  589TMC3     H 8773   0.488   3.737  19.357
  589TMC3    H1 8774   0.366   3.528  19.012
  589TMC3    H2 8775   0.777   3.544  19.105
  589TMC3    C7 8776   0.615   3.430  18.950
  589TMC3    C8 8777   0.736   3.644  19.352
  589TMC3    O1 8778   0.516   3.370  18.913
  589TMC3    O2 8779   0.680   3.654  19.462
  590MPD2     C 8780   4.380   1.910  16.782
  590MPD2    C1 8781   4.384   1.983  16.664
  590MPD2    C2 8782   4.510   2.029  16.623
  590MPD2    C3 8783   4.627   2.000  16.691
  590MPD2    C4 8784   4.618   1.923  16.812
  590MPD2    C5 8785   4.493   1.881  16.853
  590MPD2     H 8786   4.529   2.085  16.532
  590MPD2    H1 8787   4.705   1.916  16.876
  590MPD2    H2 8788   4.288   1.885  16.834
  590MPD2    H3 8789   4.488   1.830  16.949
  590MPD2     N 8790   4.744   2.070  16.657
  590MPD2    H5 8791   4.747   2.139  16.582
  590MPD2    N1 8792   4.269   2.006  16.598
  590MPD2    H7 8793   4.179   2.002  16.645
  591TMC3    C1 8794   0.174   2.154  16.658
  591TMC3    C2 8795   0.254   2.117  16.562
  591TMC3    C3 8796   0.302   2.211  16.472
  591TMC3    C4 8797   0.126   2.282  16.665
  591TMC3    C5 8798   0.181   2.377  16.588
  591TMC3    C6 8799   0.266   2.345  16.489
  591TMC3     C 8800   0.088   2.052  16.711
  591TMC3     O 8801   0.140   1.973  16.790
  591TMC3     H 8802   0.270   2.012  16.538
  591TMC3    H1 8803   0.049   2.301  16.739
  591TMC3    H2 8804   0.304   2.422  16.423
  591TMC3    C7 8805   0.122   2.513  16.597
  591TMC3    C8 8806   0.401   2.171  16.372
  591TMC3    O1 8807   0.017   2.530  16.658
  591TMC3    O2 8808   0.439   2.060  16.374
  592MPD2     C 8809   0.400   4.379  11.938
  592MPD2    C1 8810   0.439   4.371  12.068
  592MPD2    C2 8811   0.381   4.267  12.150
  592MPD2    C3 8812   0.285   4.187  12.102
  592MPD2    C4 8813   0.259   4.188  11.963
  592MPD2    C5 8814   0.319   4.286  11.886
  592MPD2     H 8815   0.419   4.245  12.249
  592MPD2    H1 8816   0.182   4.128  11.915
  592MPD2    H2 8817   0.430   4.463  11.877
  592MPD2    H3 8818   0.305   4.290  11.779
  592MPD2     N 8819   0.220   4.094  12.184
  592MPD2    H5 8820   0.225   4.108  12.284
  592MPD2    N1 8821   0.529   4.473  12.105
  592MPD2    H7 8822   0.554   4.541  12.033
  593TMC3    C1 8823   0.639   4.622  12.257
  593TMC3    C2 8824   0.622   4.672  12.385
  593TMC3    C3 8825   0.705   4.776  12.421
  593TMC3    C4 8826   0.722   4.674  12.161
  593TMC3    C5 8827   0.793   0.005  12.194
  593TMC3    C6 8828   0.788   0.048  12.326
  593TMC3     C 8829   0.564   4.496  12.234
  593TMC3     O 8830   0.517   4.440  12.334
  593TMC3     H 8831   0.544   4.640  12.454
  593TMC3    H1 8832   0.743   4.617  12.072
  593TMC3    H2 8833   0.852   0.133  12.350
  593TMC3    C7 8834   0.865   0.089  12.097
  593TMC3    C8 8835   0.671   0.053  12.549
  593TMC3    O1 8836   0.940   0.173  12.148
  593TMC3    O2 8837   0.560   0.042  12.598
  594MPD2     C 8838   3.807   2.874  14.490
  594MPD2    C1 8839   3.842   2.859  14.624
  594MPD2    C2 8840   3.922   2.956  14.680
  594MPD2    C3 8841   3.996   3.044  14.604
  594MPD2    C4 8842   3.963   3.045  14.470
  594MPD2    C5 8843   3.876   2.962  14.412
  594MPD2     H 8844   3.928   2.963  14.788
  594MPD2    H1 8845   4.012   3.115  14.403
  594MPD2    H2 8846   3.748   2.805  14.432
  594MPD2    H3 8847   3.846   2.963  14.308
  594MPD2     N 8848   4.084   3.137  14.662
  594MPD2    H5 8849   4.062   3.159  14.759
  594MPD2    N1 8850   3.762   2.763  14.694
  594MPD2    H7 8851   3.701   2.703  14.639
  595TMC3    C1 8852   4.388   3.502  14.670
  595TMC3    C2 8853   4.348   3.385  14.617
  595TMC3    C3 8854   4.236   3.326  14.669
  595TMC3    C4 8855   4.322   3.566  14.779
  595TMC3    C5 8856   4.215   3.498  14.829
  595TMC3    C6 8857   4.170   3.377  14.775
  595TMC3     C 8858   4.528   3.531  14.684
  595TMC3     O 8859   4.568   3.606  14.772
  595TMC3     H 8860   4.404   3.342  14.535
  595TMC3    H1 8861   4.334   3.671  14.805
  595TMC3    H2 8862   4.080   3.332  14.814
  595TMC3    C7 8863   4.169   3.535  14.963
  595TMC3    C8 8864   4.178   3.211  14.599
  595TMC3    O1 8865   4.067   3.484  15.005
  595TMC3    O2 8866   4.224   3.189  14.482
  596MPD2     C 8867   2.957   1.186  17.188
  596MPD2    C1 8868   2.968   1.294  17.096
  596MPD2    C2 8869   3.046   1.281  16.986
  596MPD2    C3 8870   3.106   1.163  16.956
  596MPD2    C4 8871   3.096   1.057  17.041
  596MPD2    C5 8872   3.026   1.069  17.165
  596MPD2     H 8873   3.066   1.372  16.931
  596MPD2    H1 8874   3.139   0.959  17.022
  596MPD2    H2 8875   2.908   1.197  17.284
  596MPD2    H3 8876   3.022   0.987  17.236
  596MPD2     N 8877   3.181   1.144  16.832
  596MPD2    H5 8878   3.214   1.050  16.811
  596MPD2    N1 8879   2.929   1.425  17.129
  596MPD2    H7 8880   2.954   1.504  17.070
  597TMC3    C1 8881   2.790   1.589  17.216
  597TMC3    C2 8882   2.860   1.682  17.141
  597TMC3    C3 8883   2.800   1.805  17.126
  597TMC3    C4 8884   2.664   1.610  17.269
  597TMC3    C5 8885   2.613   1.732  17.262
  597TMC3    C6 8886   2.678   1.832  17.185
  597TMC3     C 8887   2.854   1.463  17.238
  597TMC3     O 8888   2.811   1.393  17.332
  597TMC3     H 8889   2.961   1.658  17.111
  597TMC3    H1 8890   2.619   1.527  17.323
  597TMC3    H2 8891   2.656   1.938  17.193
  597TMC3    C7 8892   2.497   1.769  17.347
  597TMC3    C8 8893   2.873   1.925  17.088
  597TMC3    O1 8894   2.446   1.682  17.410
  597TMC3    O2 8895   2.855   2.027  17.154
  598TMC3    C1 8896   1.100   2.580  15.558
  598TMC3    C2 8897   0.988   2.509  15.528
  598TMC3    C3 8898   0.933   2.518  15.406
  598TMC3    C4 8899   1.142   2.684  15.482
  598TMC3    C5 8900   1.089   2.689  15.351
  598TMC3    C6 8901   0.982   2.604  15.316
  598TMC3     C 8902   1.196   2.503  15.629
  598TMC3     O 8903   1.150   2.413  15.707
  598TMC3     H 8904   0.947   2.443  15.604
  598TMC3    H1 8905   1.218   2.757  15.506
  598TMC3    H2 8906   0.941   2.616  15.217
  598TMC3    C7 8907   1.126   2.784  15.254
  598TMC3    C8 8908   0.810   2.449  15.378
  598TMC3    O1 8909   1.069   2.790  15.144
  598TMC3    O2 8910   0.802   2.413  15.260
  599MPD2     C 8911   1.545   0.351  16.114
  599MPD2    C1 8912   1.486   0.224  16.114
  599MPD2    C2 8913   1.368   0.213  16.182
  599MPD2    C3 8914   1.305   0.317  16.238
  599MPD2    C4 8915   1.364   0.439  16.234
  599MPD2    C5 8916   1.490   0.460  16.174
  599MPD2     H 8917   1.327   0.113  16.191
  599MPD2    H1 8918   1.324   0.534  16.268
  599MPD2    H2 8919   1.637   0.367  16.060
  599MPD2    H3 8920   1.534   0.558  16.185
  599MPD2     N 8921   1.182   0.311  16.310
  599MPD2    H5 8922   1.152   0.389  16.368
  599MPD2    N1 8923   1.564   0.117  16.062
  599MPD2    H7 8924   1.661   0.142  16.046
  600TMC3    C1 8925   0.972   0.246  16.396
  600TMC3    C2 8926   0.895   0.141  16.442
  600TMC3    C3 8927   0.784   0.174  16.512
  600TMC3    C4 8928   0.941   0.373  16.429
  600TMC3    C5 8929   0.822   0.405  16.495
  600TMC3    C6 8930   0.743   0.300  16.544
  600TMC3     C 8931   1.093   0.208  16.325
  600TMC3     O 8932   1.103   0.095  16.282
  600TMC3     H 8933   0.917   0.039  16.414
  600TMC3    H1 8934   0.979   0.459  16.376
  600TMC3    H2 8935   0.652   0.322  16.599
  600TMC3    C7 8936   0.823   0.528  16.567
  600TMC3    C8 8937   0.716   0.060  16.571
  600TMC3    O1 8938   0.720   0.577  16.596
  600TMC3    O2 8939   0.774   4.744  16.613
  601MPD2     C 8940   3.206   3.789  18.190
  601MPD2    C1 8941   3.113   3.731  18.104
  601MPD2    C2 8942   3.120   3.592  18.074
  601MPD2    C3 8943   3.213   3.511  18.134
  601MPD2    C4 8944   3.304   3.566  18.218
  601MPD2    C5 8945   3.302   3.700  18.246
  601MPD2     H 8946   3.052   3.554  17.998
  601MPD2    H1 8947   3.373   3.501  18.271
  601MPD2    H2 8948   3.205   3.893  18.219
  601MPD2    H3 8949   3.382   3.733  18.311
  601MPD2     N 8950   3.226   3.372  18.109
  601MPD2    H5 8951   3.299   3.319  18.156
  601MPD2    N1 8952   3.000   3.805  18.054
  601MPD2    H7 8953   2.938   3.746  18.001
  602TMC3    C1 8954   2.837   3.977  18.040
  602TMC3    C2 8955   2.815   4.113  18.038
  602TMC3    C3 8956   2.693   4.149  17.985
  602TMC3    C4 8957   2.745   3.884  17.998
  602TMC3    C5 8958   2.617   3.931  17.958
  602TMC3    C6 8959   2.594   4.063  17.946
  602TMC3     C 8960   2.975   3.944  18.071
  602TMC3     O 8961   3.051   4.030  18.105
  602TMC3     H 8962   2.888   4.193  18.048
  602TMC3    H1 8963   2.761   3.777  17.998
  602TMC3    H2 8964   2.495   4.104  17.932
  602TMC3    C7 8965   2.540   3.834  17.879
  602TMC3    C8 8966   2.653   4.289  17.982
  602TMC3    O1 8967   2.559   3.711  17.900
  602TMC3    O2 8968   2.666   4.362  18.079
  603TMC3    C1 8969   1.553   3.653  11.483
  603TMC3    C2 8970   1.567   3.613  11.611
  603TMC3    C3 8971   1.618   3.701  11.703
  603TMC3    C4 8972   1.573   3.787  11.446
  603TMC3    C5 8973   1.602   3.871  11.545
  603TMC3    C6 8974   1.635   3.834  11.672
  603TMC3     C 8975   1.499   3.567  11.384
  603TMC3     O 8976   1.478   3.619  11.274
  603TMC3     H 8977   1.543   3.513  11.645
  603TMC3    H1 8978   1.557   3.814  11.342
  603TMC3    H2 8979   1.640   3.917  11.742
  603TMC3    C7 8980   1.597   4.012  11.515
  603TMC3    C8 8981   1.640   3.663  11.843
  603TMC3    O1 8982   1.687   4.083  11.564
  603TMC3    O2 8983   1.621   3.545  11.866
  604MPD2     C 8984   2.348   2.484  16.539
  604MPD2    C1 8985   2.238   2.406  16.494
  604MPD2    C2 8986   2.246   2.337  16.379
  604MPD2    C3 8987   2.361   2.355  16.299
  604MPD2    C4 8988   2.458   2.439  16.340
  604MPD2    C5 8989   2.451   2.505  16.460
  604MPD2     H 8990   2.168   2.269  16.348
  604MPD2    H1 8991   2.546   2.469  16.283
  604MPD2    H2 8992   2.351   2.532  16.636
  604MPD2    H3 8993   2.530   2.572  16.491
  604MPD2     N 8994   2.358   2.302  16.167
  604MPD2    H5 8995   2.269   2.268  16.131
  604MPD2    N1 8996   2.124   2.414  16.580
  604MPD2    H7 8997   2.135   2.473  16.662
  605TMC3    C1 8998   1.917   2.378  16.675
  605TMC3    C2 8999   1.984   2.412  16.792
  605TMC3    C3 9000   1.942   2.511  16.870
  605TMC3    C4 9001   1.807   2.444  16.629
  605TMC3    C5 9002   1.763   2.544  16.707
  605TMC3    C6 9003   1.833   2.579  16.822
  605TMC3     C 9004   2.007   2.347  16.568
  605TMC3     O 9005   1.966   2.283  16.472
  605TMC3     H 9006   2.072   2.357  16.822
  605TMC3    H1 9007   1.763   2.421  16.533
  605TMC3    H2 9008   1.801   2.668  16.875
  605TMC3    C7 9009   1.649   2.611  16.672
  605TMC3    C8 9010   2.050   2.602  16.890
  605TMC3    O1 9011   1.593   2.670  16.762
  605TMC3    O2 9012   2.156   2.559  16.854
  606TMC3    C1 9013   3.127   1.367  17.591
  606TMC3    C2 9014   3.133   1.377  17.724
  606TMC3    C3 9015   3.117   1.255  17.789
  606TMC3    C4 9016   3.096   1.252  17.520
  606TMC3    C5 9017   3.080   1.137  17.586
  606TMC3    C6 9018   3.091   1.133  17.723
  606TMC3     C 9019   3.155   1.486  17.517
  606TMC3     O 9020   3.152   1.588  17.583
  606TMC3     H 9021   3.163   1.464  17.782
  606TMC3    H1 9022   3.106   1.239  17.413
  606TMC3    H2 9023   3.083   1.039  17.777
  606TMC3    C7 9024   3.133   1.012  17.531
  606TMC3    C8 9025   3.204   1.233  17.905
  606TMC3    O1 9026   3.229   1.019  17.452
  606TMC3    O2 9027   3.306   1.302  17.903
  607MPD2     C 9028   0.532   3.904  12.115
  607MPD2    C1 9029   0.580   3.963  12.232
  607MPD2    C2 9030   0.537   3.910  12.352
  607MPD2    C3 9031   0.440   3.814  12.360
  607MPD2    C4 9032   0.378   3.760  12.245
  607MPD2    C5 9033   0.436   3.802  12.129
  607MPD2     H 9034   0.573   3.962  12.440
  607MPD2    H1 9035   0.307   3.679  12.255
  607MPD2    H2 9036   0.556   3.936  12.014
  607MPD2    H3 9037   0.398   3.755  12.039
  607MPD2     N 9038   0.408   3.771  12.488
  607MPD2    H5 9039   0.466   3.806  12.564
  607MPD2    N1 9040   0.684   4.063  12.235
  607MPD2    H7 9041   0.704   4.098  12.328
  608TMC3    C1 9042   0.864   4.200  12.188
  608TMC3    C2 9043   0.888   4.204  12.318
  608TMC3    C3 9044   0.941   4.317  12.379
  608TMC3    C4 9045   0.903   4.299  12.102
  608TMC3    C5 9046   0.961   4.412  12.157
  608TMC3    C6 9047   0.969   4.424  12.289
  608TMC3     C 9048   0.755   4.121  12.133
  608TMC3     O 9049   0.741   4.106  12.013
  608TMC3     H 9050   0.870   4.113  12.374
  608TMC3    H1 9051   0.897   4.273  11.997
  608TMC3    H2 9052   1.004   4.519  12.326
  608TMC3    C7 9053   1.021   4.512  12.064
  608TMC3    C8 9054   0.880   4.363  12.504
  608TMC3    O1 9055   0.988   4.515  11.945
  608TMC3    O2 9056   0.867   4.484  12.517
  609TMC3    C1 9057   3.839   3.484   9.345
  609TMC3    C2 9058   3.753   3.468   9.240
  609TMC3    C3 9059   3.799   3.411   9.129
  609TMC3    C4 9060   3.962   3.439   9.337
  609TMC3    C5 9061   4.005   3.372   9.222
  609TMC3    C6 9062   3.923   3.365   9.117
  609TMC3     C 9063   3.792   3.542   9.466
  609TMC3     O 9064   3.666   3.556   9.484
  609TMC3     H 9065   3.659   3.522   9.241
  609TMC3    H1 9066   4.033   3.438   9.419
  609TMC3    H2 9067   3.958   3.334   9.019
  609TMC3    C7 9068   4.137   3.322   9.222
  609TMC3    C8 9069   3.691   3.364   9.035
  609TMC3    O1 9070   4.200   3.349   9.318
  609TMC3    O2 9071   3.575   3.388   9.068
  610TMC3    C1 9072   0.933   3.820  12.939
  610TMC3    C2 9073   0.958   3.898  12.821
  610TMC3    C3 9074   1.061   3.854  12.740
  610TMC3    C4 9075   1.002   3.707  12.959
  610TMC3    C5 9076   1.098   3.667  12.872
  610TMC3    C6 9077   1.129   3.736  12.757
  610TMC3     C 9078   0.820   3.853  13.030
  610TMC3     O 9079   0.780   3.756  13.099
  610TMC3     H 9080   0.904   3.989  12.797
  610TMC3    H1 9081   0.990   3.662  13.057
  610TMC3    H2 9082   1.210   3.697  12.697
  610TMC3    C7 9083   1.181   3.558  12.919
  610TMC3    C8 9084   1.072   3.926  12.615
  610TMC3    O1 9085   1.298   3.557  12.882
  610TMC3    O2 9086   0.989   4.013  12.587
  611MPD2     C 9087   0.369   4.222  11.354
  611MPD2    C1 9088   0.369   4.225  11.220
  611MPD2    C2 9089   0.485   4.274  11.159
  611MPD2    C3 9090   0.602   4.300  11.233
  611MPD2    C4 9091   0.595   4.288  11.371
  611MPD2    C5 9092   0.478   4.247  11.431
  611MPD2     H 9093   0.490   4.279  11.051
  611MPD2    H1 9094   0.688   4.306  11.424
  611MPD2    H2 9095   0.272   4.193  11.393
  611MPD2    H3 9096   0.469   4.237  11.539
  611MPD2     N 9097   0.725   4.344  11.170
  611MPD2    H5 9098   0.779   4.409  11.227
  611MPD2    N1 9099   0.254   4.180  11.160
  611MPD2    H7 9100   0.180   4.155  11.224
  612TMC3    C1 9101   0.886   4.390  10.998
  612TMC3    C2 9102   0.970   4.441  11.094
  612TMC3    C3 9103   1.076   4.515  11.051
  612TMC3    C4 9104   0.904   4.407  10.864
  612TMC3    C5 9105   1.003   4.492  10.823
  612TMC3    C6 9106   1.090   4.546  10.916
  612TMC3     C 9107   0.760   4.340  11.033
  612TMC3     O 9108   0.691   4.283  10.950
  612TMC3     H 9109   0.958   4.418  11.199
  612TMC3    H1 9110   0.829   4.377  10.791
  612TMC3    H2 9111   1.174   4.606  10.884
  612TMC3    C7 9112   1.010   4.541  10.688
  612TMC3    C8 9113   1.203   4.517  11.131
  612TMC3    O1 9114   0.946   4.478  10.598
  612TMC3    O2 9115   1.275   4.615  11.112
  613MPD2     C 9116   4.732   1.392  16.803
  613MPD2    C1 9117   4.602   1.422  16.760
  613MPD2    C2 9118   4.496   1.346  16.797
  613MPD2    C3 9119   4.512   1.224  16.853
  613MPD2    C4 9120   4.639   1.175  16.880
  613MPD2    C5 9121   4.743   1.267  16.862
  613MPD2     H 9122   4.397   1.366  16.757
  613MPD2    H1 9123   4.656   1.078  16.925
  613MPD2    H2 9124   0.041   1.447  16.776
  613MPD2    H3 9125   0.059   1.224  16.884
  613MPD2     N 9126   4.398   1.140  16.872
  613MPD2    H5 9127   4.411   1.044  16.902
  613MPD2    N1 9128   4.588   1.534  16.669
  613MPD2    H7 9129   4.668   1.589  16.638
  614TMC3    C1 9130   4.473   1.604  16.478
  614TMC3    C2 9131   4.544   1.519  16.395
  614TMC3    C3 9132   4.506   1.488  16.272
  614TMC3    C4 9133   4.360   1.660  16.425
  614TMC3    C5 9134   4.329   1.642  16.294
  614TMC3    C6 9135   4.397   1.547  16.221
  614TMC3     C 9136   4.465   1.576  16.616
  614TMC3     O 9137   4.357   1.574  16.671
  614TMC3     H 9138   4.636   1.470  16.425
  614TMC3    H1 9139   4.292   1.723  16.480
  614TMC3    H2 9140   4.376   1.528  16.116
  614TMC3    C7 9141   4.201   1.711  16.253
  614TMC3    C8 9142   4.499   1.341  16.263
  614TMC3    O1 9143   4.133   1.778  16.326
  614TMC3    O2 9144   4.539   1.278  16.361
  615MPD2     C 9145   4.058   2.649  15.992
  615MPD2    C1 9146   3.933   2.671  16.040
  615MPD2    C2 9147   3.824   2.661  15.960
  615MPD2    C3 9148   3.841   2.611  15.828
  615MPD2    C4 9149   3.968   2.592  15.778
  615MPD2    C5 9150   4.072   2.603  15.863
  615MPD2     H 9151   3.724   2.690  15.990
  615MPD2    H1 9152   3.975   2.565  15.673
  615MPD2    H2 9153   4.150   2.674  16.043
  615MPD2    H3 9154   4.172   2.576  15.832
  615MPD2     N 9155   3.727   2.600  15.737
  615MPD2    H5 9156   3.743   2.605  15.637
  615MPD2    N1 9157   3.916   2.725  16.171
  615MPD2    H7 9158   3.823   2.757  16.196
  616TMC3    C1 9159   3.974   2.776  16.400
  616TMC3    C2 9160   4.075   2.809  16.488
  616TMC3    C3 9161   4.049   2.891  16.597
  616TMC3    C4 9162   3.848   2.812  16.420
  616TMC3    C5 9163   3.822   2.887  16.536
  616TMC3    C6 9164   3.919   2.926  16.618
  616TMC3     C 9165   4.016   2.723  16.269
  616TMC3     O 9166   4.136   2.701  16.260
  616TMC3     H 9167   4.177   2.788  16.458
  616TMC3    H1 9168   3.769   2.775  16.356
  616TMC3    H2 9169   3.899   2.989  16.704
  616TMC3    C7 9170   3.684   2.933  16.558
  616TMC3    C8 9171   4.135   2.997  16.600
  616TMC3    O1 9172   3.654   2.950  16.674
  616TMC3    O2 9173   4.083   3.108  16.595
  617MPD2     C 9174   1.967   1.163  14.155
  617MPD2    C1 9175   1.996   1.030  14.153
  617MPD2    C2 9176   1.896   0.940  14.169
  617MPD2    C3 9177   1.766   0.977  14.169
  617MPD2    C4 9178   1.733   1.114  14.159
  617MPD2    C5 9179   1.835   1.202  14.152
  617MPD2     H 9180   1.918   0.834  14.180
  617MPD2    H1 9181   1.631   1.150  14.166
  617MPD2    H2 9182   2.040   1.242  14.138
  617MPD2    H3 9183   1.805   1.306  14.147
  617MPD2     N 9184   1.657   0.895  14.206
  617MPD2    H5 9185   1.567   0.939  14.189
  617MPD2    N1 9186   2.138   1.013  14.152
  617MPD2    H7 9187   2.193   1.096  14.132
  618TMC3    C1 9188   2.339   0.895  14.172
  618TMC3    C2 9189   2.393   0.767  14.192
  618TMC3    C3 9190   2.497   0.748  14.278
  618TMC3    C4 9191   2.396   1.003  14.229
  618TMC3    C5 9192   2.513   0.986  14.296
  618TMC3    C6 9193   2.563   0.861  14.335
  618TMC3     C 9194   2.194   0.894  14.142
  618TMC3     O 9195   2.143   0.783  14.121
  618TMC3     H 9196   2.340   0.687  14.141
  618TMC3    H1 9197   2.367   1.106  14.212
  618TMC3    H2 9198   2.642   0.857  14.410
  618TMC3    C7 9199   2.580   1.094  14.361
  618TMC3    C8 9200   2.567   0.620  14.272
  618TMC3    O1 9201   2.505   1.158  14.433
  618TMC3    O2 9202   2.498   0.518  14.259
  619MPD2     C 9203   3.346   2.128  14.160
  619MPD2    C1 9204   3.297   2.210  14.057
  619MPD2    C2 9205   3.175   2.185  13.998
  619MPD2    C3 9206   3.104   2.072  14.027
  619MPD2    C4 9207   3.147   1.993  14.131
  619MPD2    C5 9208   3.265   2.026  14.193
  619MPD2     H 9209   3.137   2.272  13.945
  619MPD2    H1 9210   3.099   1.907  14.176
  619MPD2    H2 9211   3.439   2.152  14.210
  619MPD2    H3 9212   3.302   1.954  14.265
  619MPD2     N 9213   2.972   2.049  13.974
  619MPD2    H5 9214   2.905   1.983  14.013
  619MPD2    N1 9215   3.356   2.330  14.016
  619MPD2    H7 9216   3.301   2.385  13.951
  620TMC3    C1 9217   3.508   2.514  13.997
  620TMC3    C2 9218   3.456   2.558  13.883
  620TMC3    C3 9219   3.431   2.694  13.879
  620TMC3    C4 9220   3.552   2.600  14.092
  620TMC3    C5 9221   3.551   2.734  14.078
  620TMC3    C6 9222   3.483   2.785  13.966
  620TMC3     C 9223   3.479   2.384  14.059
  620TMC3     O 9224   3.546   2.338  14.149
  620TMC3     H 9225   3.407   2.489  13.815
  620TMC3    H1 9226   3.593   2.570  14.188
  620TMC3    H2 9227   3.464   2.886  13.932
  620TMC3    C7 9228   3.623   2.824  14.164
  620TMC3    C8 9229   3.295   2.726  13.842
  620TMC3    O1 9230   3.730   2.774  14.194
  620TMC3    O2 9231   3.235   2.800  13.923
  621MPD2     C 9232   3.603   2.223  10.609
  621MPD2    C1 9233   3.510   2.201  10.506
  621MPD2    C2 9234   3.473   2.316  10.421
  621MPD2    C3 9235   3.523   2.444  10.451
  621MPD2    C4 9236   3.606   2.461  10.562
  621MPD2    C5 9237   3.645   2.348  10.639
  621MPD2     H 9238   3.399   2.313  10.342
  621MPD2    H1 9239   3.652   2.557  10.585
  621MPD2    H2 9240   3.648   2.147  10.672
  621MPD2    H3 9241   3.721   2.366  10.715
  621MPD2     N 9242   3.478   2.549  10.361
  621MPD2    H5 9243   3.432   2.528  10.273
  621MPD2    N1 9244   3.455   2.076  10.480
  621MPD2    H7 9245   3.407   2.060  10.392
  622TMC3    C1 9246   3.393   1.847  10.516
  622TMC3    C2 9247   3.319   1.781  10.607
  622TMC3    C3 9248   3.234   1.686  10.558
  622TMC3    C4 9249   3.409   1.821  10.385
  622TMC3    C5 9250   3.337   1.710  10.353
  622TMC3    C6 9251   3.260   1.633  10.432
  622TMC3     C 9252   3.457   1.970  10.570
  622TMC3     O 9253   3.485   1.964  10.691
  622TMC3     H 9254   3.296   1.814  10.708
  622TMC3    H1 9255   3.483   1.870  10.323
  622TMC3    H2 9256   3.207   1.552  10.383
  622TMC3    C7 9257   3.317   1.691  10.213
  622TMC3    C8 9258   3.092   1.716  10.556
  622TMC3    O1 9259   3.248   1.598  10.184
  622TMC3    O2 9260   3.024   1.656  10.471
  623MPD2     C 9261   2.134   2.504  15.746
  623MPD2    C1 9262   2.063   2.511  15.863
  623MPD2    C2 9263   2.125   2.546  15.983
  623MPD2    C3 9264   2.259   2.591  15.979
  623MPD2    C4 9265   2.326   2.578  15.854
  623MPD2    C5 9266   2.268   2.524  15.746
  623MPD2     H 9267   2.075   2.550  16.079
  623MPD2    H1 9268   2.431   2.587  15.828
  623MPD2    H2 9269   2.079   2.466  15.660
  623MPD2    H3 9270   2.324   2.500  15.656
  623MPD2     N 9271   2.308   2.652  16.091
  623MPD2    H5 9272   2.253   2.643  16.176
  623MPD2    N1 9273   1.918   2.493  15.868
  623MPD2    H7 9274   1.866   2.500  15.781
  624TMC3    C1 9275   2.604   2.833  16.397
  624TMC3    C2 9276   2.505   2.870  16.482
  624TMC3    C3 9277   2.378   2.874  16.425
  624TMC3    C4 9278   2.588   2.797  16.267
  624TMC3    C5 9279   2.457   2.786  16.222
  624TMC3    C6 9280   2.349   2.826  16.303
  624TMC3     C 9281   2.732   2.810  16.459
  624TMC3     O 9282   2.835   2.862  16.422
  624TMC3     H 9283   2.537   2.899  16.581
  624TMC3    H1 9284   2.678   2.762  16.219
  624TMC3    H2 9285   2.246   2.825  16.271
  624TMC3    C7 9286   2.434   2.711  16.105
  624TMC3    C8 9287   2.277   2.870  16.526
  624TMC3    O1 9288   2.525   2.707  16.025
  624TMC3    O2 9289   2.187   2.792  16.505
  625MPD2     C 9290   3.138   4.079  18.856
  625MPD2    C1 9291   3.179   4.199  18.893
  625MPD2    C2 9292   3.297   4.217  18.958
  625MPD2    C3 9293   3.375   4.111  18.995
  625MPD2    C4 9294   3.332   3.981  18.964
  625MPD2    C5 9295   3.221   3.972  18.887
  625MPD2     H 9296   3.339   4.315  18.976
  625MPD2    H1 9297   3.395   3.895  18.985
  625MPD2    H2 9298   3.048   4.061  18.799
  625MPD2    H3 9299   3.185   3.875  18.854
  625MPD2     N 9300   3.499   4.133  19.050
  625MPD2    H5 9301   3.537   4.227  19.047
  625MPD2    N1 9302   3.107   4.319  18.854
  625MPD2    H7 9303   3.152   4.408  18.873
  626TMC3    C1 9304   2.956   4.459  18.754
  626TMC3    C2 9305   2.897   4.473  18.635
  626TMC3    C3 9306   2.895   4.605  18.595
  626TMC3    C4 9307   2.992   4.554  18.843
  626TMC3    C5 9308   2.985   4.680  18.800
  626TMC3    C6 9309   2.948   4.712  18.672
  626TMC3     C 9310   2.992   4.324  18.789
  626TMC3     O 9311   2.909   4.239  18.760
  626TMC3     H 9312   2.883   4.386  18.572
  626TMC3    H1 9313   3.007   4.529  18.947
  626TMC3    H2 9314   2.932   0.033  18.637
  626TMC3    C7 9315   2.946   0.003  18.893
  626TMC3    C8 9316   2.827   4.639  18.475
  626TMC3    O1 9317   2.992   0.114  18.873
  626TMC3    O2 9318   2.853   4.747  18.422
  627MPD2     C 9319   1.189   4.496  14.684
  627MPD2    C1 9320   1.242   4.422  14.788
  627MPD2    C2 9321   1.172   4.311  14.835
  627MPD2    C3 9322   1.052   4.267  14.773
  627MPD2    C4 9323   1.004   4.350  14.672
  627MPD2    C5 9324   1.072   4.456  14.630
  627MPD2     H 9325   1.210   4.259  14.923
  627MPD2    H1 9326   0.909   4.328  14.625
  627MPD2    H2 9327   1.241   4.571  14.625
  627MPD2    H3 9328   1.023   4.522  14.560
  627MPD2     N 9329   0.991   4.147  14.810
  627MPD2    H5 9330   1.022   4.109  14.899
  627MPD2    N1 9331   1.364   4.459  14.855
  627MPD2    H7 9332   1.392   4.388  14.922
  628TMC3    C1 9333   1.542   4.581  14.924
  628TMC3    C2 9334   1.631   4.480  14.941
  628TMC3    C3 9335   1.752   4.497  15.007
  628TMC3    C4 9336   1.563   4.703  14.973
  628TMC3    C5 9337   1.685   4.726  15.028
  628TMC3    C6 9338   1.777   4.627  15.046
  628TMC3     C 9339   1.432   4.575  14.835
  628TMC3     O 9340   1.389   4.679  14.784
  628TMC3     H 9341   1.617   4.377  14.911
  628TMC3    H1 9342   1.491   0.003  14.973
  628TMC3    H2 9343   1.880   4.645  15.074
  628TMC3    C7 9344   1.723   0.076  15.058
  628TMC3    C8 9345   1.853   4.458  14.914
  628TMC3    O1 9346   1.829   0.094  15.119
  628TMC3    O2 9347   1.818   4.455  14.796
  629MPD2     C 9348   4.554   3.263  16.480
  629MPD2    C1 9349   4.593   3.164  16.566
  629MPD2    C2 9350   4.496   3.062  16.588
  629MPD2    C3 9351   4.364   3.071  16.554
  629MPD2    C4 9352   4.331   3.173  16.479
  629MPD2    C5 9353   4.423   3.264  16.439
  629MPD2     H 9354   4.516   2.974  16.647
  629MPD2    H1 9355   4.231   3.186  16.440
  629MPD2    H2 9356   4.628   3.339  16.461
  629MPD2    H3 9357   4.402   3.350  16.377
  629MPD2     N 9358   4.270   2.966  16.590
  629MPD2    H5 9359   4.295   2.869  16.607
  629MPD2    N1 9360   4.722   3.166  16.600
  629MPD2    H7 9361   0.006   3.216  16.540
  630TMC3    C1 9362   0.129   3.152  16.744
  630TMC3    C2 9363   0.192   3.252  16.675
  630TMC3    C3 9364   0.319   3.282  16.715
  630TMC3    C4 9365   0.189   3.102  16.859
  630TMC3    C5 9366   0.321   3.129  16.887
  630TMC3    C6 9367   0.396   3.217  16.808
  630TMC3     C 9368   4.770   3.123  16.721
  630TMC3     O 9369   4.703   3.068  16.809
  630TMC3     H 9370   0.141   3.328  16.617
  630TMC3    H1 9371   0.146   3.011  16.900
  630TMC3    H2 9372   0.501   3.235  16.828
  630TMC3    C7 9373   0.365   3.080  17.016
  630TMC3    C8 9374   0.388   3.394  16.651
  630TMC3    O1 9375   0.316   2.983  17.072
  630TMC3    O2 9376   0.464   3.444  16.729
  631MPD2     C 9377   2.695   2.875  15.669
  631MPD2    C1 9378   2.782   2.979  15.654
  631MPD2    C2 9379   2.911   2.952  15.612
  631MPD2    C3 9380   2.951   2.818  15.608
  631MPD2    C4 9381   2.871   2.721  15.648
  631MPD2    C5 9382   2.736   2.749  15.671
  631MPD2     H 9383   2.965   3.032  15.563
  631MPD2    H1 9384   2.883   2.613  15.643
  631MPD2    H2 9385   2.590   2.890  15.691
  631MPD2    H3 9386   2.663   2.673  15.696
  631MPD2     N 9387   3.088   2.784  15.581
  631MPD2    H5 9388   3.137   2.865  15.544
  631MPD2    N1 9389   2.740   3.117  15.667
  631MPD2    H7 9390   2.641   3.137  15.662
  632TMC3    C1 9391   2.767   3.339  15.671
  632TMC3    C2 9392   2.629   3.354  15.685
  632TMC3    C3 9393   2.576   3.472  15.642
  632TMC3    C4 9394   2.850   3.440  15.628
  632TMC3    C5 9395   2.786   3.557  15.589
  632TMC3    C6 9396   2.652   3.574  15.588
  632TMC3     C 9397   2.827   3.216  15.684
  632TMC3     O 9398   2.948   3.203  15.702
  632TMC3     H 9399   2.567   3.282  15.736
  632TMC3    H1 9400   2.957   3.424  15.630
  632TMC3    H2 9401   2.601   3.651  15.531
  632TMC3    C7 9402   2.861   3.657  15.516
  632TMC3    C8 9403   2.441   3.498  15.690
  632TMC3    O1 9404   2.800   3.738  15.443
  632TMC3    O2 9405   2.388   3.400  15.740
  633MPD2     C 9406   2.483   0.933  17.483
  633MPD2    C1 9407   2.524   0.856  17.375
  633MPD2    C2 9408   2.539   0.717  17.386
  633MPD2    C3 9409   2.526   0.656  17.509
  633MPD2    C4 9410   2.477   0.728  17.621
  633MPD2    C5 9411   2.464   0.867  17.603
  633MPD2     H 9412   2.569   0.659  17.300
  633MPD2    H1 9413   2.461   0.681  17.717
  633MPD2    H2 9414   2.479   1.041  17.491
  633MPD2    H3 9415   2.427   0.926  17.686
  633MPD2     N 9416   2.553   0.520  17.532
  633MPD2    H5 9417   2.517   0.473  17.615
  633MPD2    N1 9418   2.534   0.915  17.249
  633MPD2    H7 9419   2.529   0.847  17.174
  634TMC3    C1 9420   2.579   1.076  17.086
  634TMC3    C2 9421   2.680   1.001  17.032
  634TMC3    C3 9422   2.748   1.059  16.925
  634TMC3    C4 9423   2.569   1.214  17.057
  634TMC3    C5 9424   2.655   1.270  16.966
  634TMC3    C6 9425   2.735   1.192  16.884
  634TMC3     C 9426   2.543   1.045  17.219
  634TMC3     O 9427   2.520   1.143  17.292
  634TMC3     H 9428   2.672   0.895  17.055
  634TMC3    H1 9429   2.497   1.264  17.121
  634TMC3    H2 9430   2.800   1.243  16.813
  634TMC3    C7 9431   2.632   1.407  16.921
  634TMC3    C8 9432   2.821   0.963  16.850
  634TMC3    O1 9433   2.709   1.451  16.831
  634TMC3    O2 9434   2.819   0.846  16.884
  635TMC3    C1 9435   2.618   2.414  17.830
  635TMC3    C2 9436   2.638   2.289  17.806
  635TMC3    C3 9437   2.570   2.201  17.880
  635TMC3    C4 9438   2.522   2.448  17.921
  635TMC3    C5 9439   2.451   2.361  17.989
  635TMC3    C6 9440   2.472   2.229  17.968
  635TMC3     C 9441   2.715   2.516  17.781
  635TMC3     O 9442   2.705   2.619  17.846
  635TMC3     H 9443   2.704   2.244  17.733
  635TMC3    H1 9444   2.507   2.555  17.930
  635TMC3    H2 9445   2.404   2.158  18.014
  635TMC3    C7 9446   2.356   2.394  18.092
  635TMC3    C8 9447   2.559   2.067  17.827
  635TMC3    O1 9448   2.269   2.309  18.108
  635TMC3    O2 9449   2.623   2.042  17.724
  636MPD2     C 9450   3.523   1.573  16.668
  636MPD2    C1 9451   3.640   1.610  16.726
  636MPD2    C2 9452   3.737   1.512  16.747
  636MPD2    C3 9453   3.719   1.386  16.704
  636MPD2    C4 9454   3.605   1.354  16.639
  636MPD2    C5 9455   3.507   1.451  16.621
  636MPD2     H 9456   3.826   1.535  16.804
  636MPD2    H1 9457   3.584   1.251  16.611
  636MPD2    H2 9458   3.447   1.642  16.634
  636MPD2    H3 9459   3.419   1.418  16.568
  636MPD2     N 9460   3.819   1.296  16.723
  636MPD2    H5 9461   3.911   1.330  16.750
  636MPD2    N1 9462   3.676   1.743  16.765
  636MPD2    H7 9463   3.769   1.758  16.802
  637TMC3    C1 9464   3.961   1.091  16.710
  637TMC3    C2 9465   4.049   1.132  16.805
  637TMC3    C3 9466   4.173   1.077  16.825
  637TMC3    C4 9467   4.004   0.992  16.620
  637TMC3    C5 9468   4.134   0.951  16.627
  637TMC3    C6 9469   4.216   0.984  16.734
  637TMC3     C 9470   3.829   1.157  16.679
  637TMC3     O 9471   3.746   1.099  16.608
  637TMC3     H 9472   4.017   1.212  16.870
  637TMC3    H1 9473   3.940   0.971  16.535
  637TMC3    H2 9474   4.318   0.949  16.739
  637TMC3    C7 9475   4.212   0.964  16.505
  637TMC3    C8 9476   4.270   1.186  16.856
  637TMC3    O1 9477   4.329   0.973  16.515
  637TMC3    O2 9478   4.217   1.289  16.883
  638MPD2     C 9479   3.696   0.227  15.432
  638MPD2    C1 9480   3.644   0.128  15.353
  638MPD2    C2 9481   3.590   0.015  15.410
  638MPD2    C3 9482   3.580   4.777  15.550
  638MPD2    C4 9483   3.636   0.096  15.627
  638MPD2    C5 9484   3.692   0.212  15.572
  638MPD2     H 9485   3.548   4.718  15.346
  638MPD2    H1 9486   3.644   0.090  15.735
  638MPD2    H2 9487   3.728   0.320  15.387
  638MPD2    H3 9488   3.729   0.293  15.633
  638MPD2     N 9489   3.518   4.655  15.598
  638MPD2    H5 9490   3.491   4.591  15.524
  638MPD2    N1 9491   3.688   0.142  15.219
  638MPD2    H7 9492   3.754   0.213  15.190
  639TMC3    C1 9493   3.468   4.478  15.744
  639TMC3    C2 9494   3.403   4.433  15.625
  639TMC3    C3 9495   3.451   4.314  15.575
  639TMC3    C4 9496   3.550   4.398  15.816
  639TMC3    C5 9497   3.598   4.288  15.752
  639TMC3    C6 9498   3.554   4.241  15.629
  639TMC3     C 9499   3.500   4.618  15.730
  639TMC3     O 9500   3.527   4.682  15.831
  639TMC3     H 9501   3.339   4.505  15.576
  639TMC3    H1 9502   3.601   4.448  15.898
  639TMC3    H2 9503   3.595   4.152  15.583
  639TMC3    C7 9504   3.720   4.238  15.805
  639TMC3    C8 9505   3.375   4.253  15.470
  639TMC3    O1 9506   3.733   4.264  15.926
  639TMC3    O2 9507   3.438   4.189  15.389
  640MPD2     C 9508   4.388   4.103  10.491
  640MPD2    C1 9509   4.321   4.110  10.378
  640MPD2    C2 9510   4.186   4.122  10.373
  640MPD2    C3 9511   4.111   4.130  10.497
  640MPD2    C4 9512   4.186   4.115  10.616
  640MPD2    C5 9513   4.321   4.113  10.611
  640MPD2     H 9514   4.134   4.117  10.278
  640MPD2    H1 9515   4.138   4.129  10.712
  640MPD2    H2 9516   4.496   4.107  10.494
  640MPD2    H3 9517   4.384   4.099  10.698
  640MPD2     N 9518   3.969   4.144  10.507
  640MPD2    H5 9519   3.929   4.140  10.600
  640MPD2    N1 9520   4.396   4.090  10.260
  640MPD2    H7 9521   4.489   4.048  10.262
  641TMC3    C1 9522   4.429   4.067  10.027
  641TMC3    C2 9523   4.508   3.957  10.048
  641TMC3    C3 9524   4.598   3.936   9.950
  641TMC3    C4 9525   4.431   4.146   9.915
  641TMC3    C5 9526   4.515   4.108   9.811
  641TMC3    C6 9527   4.602   4.002   9.823
  641TMC3     C 9528   4.342   4.113  10.131
  641TMC3     O 9529   4.246   4.177  10.092
  641TMC3     H 9530   4.484   3.896  10.135
  641TMC3    H1 9531   4.390   4.246   9.910
  641TMC3    H2 9532   4.673   3.972   9.747
  641TMC3    C7 9533   4.510   4.181   9.694
  641TMC3    C8 9534   4.661   3.806   9.941
  641TMC3    O1 9535   4.468   4.297   9.702
  641TMC3    O2 9536   4.695   3.766   9.828
  642TMC3    C1 9537   0.278   0.095  12.786
  642TMC3    C2 9538   0.388   0.097  12.863
  642TMC3    C3 9539   0.428   4.758  12.923
  642TMC3    C4 9540   0.202   4.763  12.777
  642TMC3    C5 9541   0.246   4.651  12.842
  642TMC3    C6 9542   0.362   4.639  12.912
  642TMC3     C 9543   0.215   0.220  12.777
  642TMC3     O 9544   0.190   0.271  12.664
  642TMC3     H 9545   0.441   0.191  12.868
  642TMC3    H1 9546   0.105   4.777  12.731
  642TMC3    H2 9547   0.412   4.551  12.951
  642TMC3    C7 9548   0.182   4.525  12.797
  642TMC3    C8 9549   0.564   4.744  12.980
  642TMC3    O1 9550   0.153   4.520  12.677
  642TMC3    O2 9551   0.609   4.631  12.989
  643TMC3    C1 9552   0.011   4.172  18.367
  643TMC3    C2 9553   4.701   4.187  18.264
  643TMC3    C3 9554   4.646   4.071  18.204
  643TMC3    C4 9555   0.076   4.051  18.386
  643TMC3    C5 9556   0.023   3.941  18.324
  643TMC3    C6 9557   4.702   3.945  18.236
  643TMC3     C 9558   0.074   4.293  18.413
  643TMC3     O 9559   0.067   4.389  18.337
  643TMC3     H 9560   4.652   4.283  18.252
  643TMC3    H1 9561   0.159   4.047  18.455
  643TMC3    H2 9562   4.677   3.856  18.179
  643TMC3    C7 9563   0.073   3.822  18.374
  643TMC3    C8 9564   4.618   4.083  18.064
  643TMC3    O1 9565   0.048   3.787  18.491
  643TMC3    O2 9566   4.565   3.983  18.010
  644MPD2     C 9567   4.542   4.461  10.278
  644MPD2    C1 9568   4.563   4.454  10.142
  644MPD2    C2 9569   4.480   4.515  10.062
  644MPD2    C3 9570   4.378   4.586  10.115
  644MPD2    C4 9571   4.362   4.603  10.249
  644MPD2    C5 9572   4.443   4.537  10.334
  644MPD2     H 9573   4.492   4.515   9.954
  644MPD2    H1 9574   4.281   4.660  10.293
  644MPD2    H2 9575   4.615   4.415  10.343
  644MPD2    H3 9576   4.420   4.542  10.440
  644MPD2     N 9577   4.290   4.645  10.024
  644MPD2    H5 9578   4.300   4.623   9.925
  644MPD2    N1 9579   4.668   4.375  10.094
  644MPD2    H7 9580   4.729   4.332  10.163
  645TMC3    C1 9581   4.077   4.737   9.953
  645TMC3    C2 9582   4.016   0.083   9.942
  645TMC3    C3 9583   3.925   0.097   9.839
  645TMC3    C4 9584   4.052   4.628   9.871
  645TMC3    C5 9585   3.965   4.649   9.771
  645TMC3    C6 9586   3.901   4.769   9.750
  645TMC3     C 9587   4.183   4.725  10.054
  645TMC3     O 9588   4.157   4.774  10.161
  645TMC3     H 9589   4.051   0.168   9.999
  645TMC3    H1 9590   4.100   4.533   9.891
  645TMC3    H2 9591   3.851   0.002   9.655
  645TMC3    C7 9592   3.930   4.534   9.686
  645TMC3    C8 9593   3.865   0.227   9.810
  645TMC3    O1 9594   3.815   4.535   9.637
  645TMC3    O2 9595   3.925   0.329   9.848
  646MPD2     C 9596   3.769   3.454  14.924
  646MPD2    C1 9597   3.709   3.505  15.036
  646MPD2    C2 9598   3.605   3.599  15.024
  646MPD2    C3 9599   3.556   3.627  14.895
  646MPD2    C4 9600   3.615   3.567  14.788
  646MPD2    C5 9601   3.724   3.484  14.801
  646MPD2     H 9602   3.563   3.652  15.108
  646MPD2    H1 9603   3.579   3.589  14.688
  646MPD2    H2 9604   3.835   3.369  14.936
  646MPD2    H3 9605   3.776   3.436  14.719
  646MPD2     N 9606   3.448   3.716  14.876
  646MPD2    H5 9607   3.409   3.748  14.964
  646MPD2    N1 9608   3.769   3.472  15.158
  646MPD2    H7 9609   3.840   3.399  15.160
  647TMC3    C1 9610   3.842   3.499  15.381
  647TMC3    C2 9611   3.800   3.533  15.512
  647TMC3    C3 9612   3.908   3.536  15.604
  647TMC3    C4 9613   3.972   3.481  15.345
  647TMC3    C5 9614   4.068   3.503  15.435
  647TMC3    C6 9615   4.034   3.544  15.563
  647TMC3     C 9616   3.741   3.525  15.281
  647TMC3     O 9617   3.649   3.602  15.317
  647TMC3     H 9618   3.697   3.523  15.545
  647TMC3    H1 9619   4.001   3.450  15.245
  647TMC3    H2 9620   4.112   3.544  15.639
  647TMC3    C7 9621   4.200   3.440  15.417
  647TMC3    C8 9622   3.907   3.430  15.700
  647TMC3    O1 9623   4.276   3.437  15.515
  647TMC3    O2 9624   4.008   3.404  15.767
  648TMC3    C1 9625   3.257   1.204  16.612
  648TMC3    C2 9626   3.335   1.093  16.609
  648TMC3    C3 9627   3.385   1.054  16.494
  648TMC3    C4 9628   3.216   1.269  16.498
  648TMC3    C5 9629   3.267   1.226  16.382
  648TMC3    C6 9630   3.351   1.114  16.374
  648TMC3     C 9631   3.194   1.246  16.734
  648TMC3     O 9632   3.164   1.365  16.737
  648TMC3     H 9633   3.374   1.053  16.702
  648TMC3    H1 9634   3.153   1.356  16.509
  648TMC3    H2 9635   3.400   1.093  16.279
  648TMC3    C7 9636   3.234   1.297  16.251
  648TMC3    C8 9637   3.481   0.948  16.510
  648TMC3    O1 9638   3.304   1.286  16.154
  648TMC3    O2 9639   3.463   0.878  16.609
  649TMC3    C1 9640   1.963   2.534  12.922
  649TMC3    C2 9641   2.096   2.549  12.912
  649TMC3    C3 9642   2.174   2.516  13.018
  649TMC3    C4 9643   1.899   2.490  13.034
  649TMC3    C5 9644   1.978   2.469  13.143
  649TMC3    C6 9645   2.120   2.474  13.136
  649TMC3     C 9646   1.876   2.563  12.805
  649TMC3     O 9647   1.764   2.589  12.834
  649TMC3     H 9648   2.137   2.614  12.835
  649TMC3    H1 9649   1.791   2.485  13.032
  649TMC3    H2 9650   2.189   2.443  13.214
  649TMC3    C7 9651   1.910   2.373  13.234
  649TMC3    C8 9652   2.316   2.550  13.026
  649TMC3    O1 9653   1.787   2.380  13.231
  649TMC3    O2 9654   2.372   2.546  13.136
  650TMC3    C1 9655   4.584   4.067  13.222
  650TMC3    C2 9656   4.512   4.174  13.275
  650TMC3    C3 9657   4.395   4.215  13.206
  650TMC3    C4 9658   4.551   4.002  13.104
  650TMC3    C5 9659   4.443   4.053  13.034
  650TMC3    C6 9660   4.360   4.159  13.086
  650TMC3     C 9661   4.716   4.041  13.286
  650TMC3     O 9662   4.775   4.136  13.328
  650TMC3     H 9663   4.543   4.210  13.372
  650TMC3    H1 9664   4.627   3.936  13.065
  650TMC3    H2 9665   4.261   4.177  13.045
  650TMC3    C7 9666   4.442   4.031  12.892
  650TMC3    C8 9667   4.338   4.344  13.242
  650TMC3    O1 9668   4.464   3.919  12.853
  650TMC3    O2 9669   4.412   4.421  13.297
  651MPD2     C 9670   3.144   1.449  10.813
  651MPD2    C1 9671   3.108   1.567  10.883
  651MPD2    C2 9672   3.197   1.614  10.974
  651MPD2    C3 9673   3.327   1.558  10.989
  651MPD2    C4 9674   3.360   1.452  10.911
  651MPD2    C5 9675   3.270   1.395  10.831
  651MPD2     H 9676   3.169   1.696  11.039
  651MPD2    H1 9677   3.459   1.409  10.915
  651MPD2    H2 9678   3.065   1.396  10.761
  651MPD2    H3 9679   3.289   1.304  10.775
  651MPD2     N 9680   3.417   1.620  11.078
  651MPD2    H5 9681   3.380   1.693  11.138
  651MPD2    N1 9682   2.977   1.629  10.886
  651MPD2    H7 9683   2.968   1.695  10.962
  652TMC3    C1 9684   3.806   1.791  11.253
  652TMC3    C2 9685   3.726   1.685  11.230
  652TMC3    C3 9686   3.608   1.704  11.171
  652TMC3    C4 9687   3.764   1.919  11.230
  652TMC3    C5 9688   3.639   1.934  11.173
  652TMC3    C6 9689   3.561   1.828  11.145
  652TMC3     C 9690   3.935   1.762  11.309
  652TMC3     O 9691   3.955   1.651  11.349
  652TMC3     H 9692   3.753   1.584  11.258
  652TMC3    H1 9693   3.825   2.005  11.254
  652TMC3    H2 9694   3.468   1.839  11.090
  652TMC3    C7 9695   3.581   2.070  11.133
  652TMC3    C8 9696   3.557   1.599  11.085
  652TMC3    O1 9697   3.467   2.072  11.101
  652TMC3    O2 9698   3.624   1.504  11.049
  653MPD2     C 9699   2.071   1.283  18.043
  653MPD2    C1 9700   2.062   1.375  17.940
  653MPD2    C2 9701   2.056   1.334  17.806
  653MPD2    C3 9702   2.052   1.202  17.780
  653MPD2    C4 9703   2.062   1.109  17.880
  653MPD2    C5 9704   2.074   1.146  18.010
  653MPD2     H 9705   2.050   1.408  17.727
  653MPD2    H1 9706   2.064   1.004  17.855
  653MPD2    H2 9707   2.074   1.298  18.150
  653MPD2    H3 9708   2.071   1.062  18.079
  653MPD2     N 9709   2.054   1.161  17.642
  653MPD2    H5 9710   2.023   1.233  17.577
  653MPD2    N1 9711   2.055   1.510  17.969
  653MPD2    H7 9712   2.045   1.564  17.884
  654TMC3    C1 9713   2.051   0.989  17.470
  654TMC3    C2 9714   1.975   1.068  17.392
  654TMC3    C3 9715   1.946   1.018  17.267
  654TMC3    C4 9716   2.106   0.868  17.425
  654TMC3    C5 9717   2.073   0.825  17.298
  654TMC3    C6 9718   1.997   0.903  17.216
  654TMC3     C 9719   2.092   1.037  17.602
  654TMC3     O 9720   2.159   0.953  17.660
  654TMC3     H 9721   1.926   1.155  17.434
  654TMC3    H1 9722   2.175   0.804  17.479
  654TMC3    H2 9723   1.987   0.870  17.113
  654TMC3    C7 9724   2.138   0.716  17.241
  654TMC3    C8 9725   1.824   1.072  17.196
  654TMC3    O1 9726   2.175   0.724  17.125
  654TMC3    O2 9727   1.772   1.165  17.253
  655MPD2     C 9728   3.820   1.403  15.973
  655MPD2    C1 9729   3.690   1.406  15.924
  655MPD2    C2 9730   3.661   1.350  15.806
  655MPD2    C3 9731   3.752   1.265  15.748
  655MPD2    C4 9732   3.882   1.250  15.796
  655MPD2    C5 9733   3.911   1.325  15.911
  655MPD2     H 9734   3.561   1.374  15.771
  655MPD2    H1 9735   3.959   1.185  15.755
  655MPD2    H2 9736   3.850   1.467  16.055
  655MPD2    H3 9737   4.014   1.322  15.944
  655MPD2     N 9738   3.727   1.180  15.634
  655MPD2    H5 9739   3.806   1.133  15.591
  655MPD2    N1 9740   3.579   1.490  15.980
  655MPD2    H7 9741   3.495   1.512  15.927
  656TMC3    C1 9742   3.493   1.639  16.134
  656TMC3    C2 9743   3.423   1.634  16.254
  656TMC3    C3 9744   3.314   1.717  16.265
  656TMC3    C4 9745   3.466   1.730  16.037
  656TMC3    C5 9746   3.368   1.818  16.059
  656TMC3    C6 9747   3.286   1.809  16.167
  656TMC3     C 9748   3.592   1.539  16.109
  656TMC3     O 9749   3.647   1.485  16.206
  656TMC3     H 9750   3.429   1.547  16.318
  656TMC3    H1 9751   3.537   1.736  15.955
  656TMC3    H2 9752   3.195   1.864  16.185
  656TMC3    C7 9753   3.337   1.897  15.938
  656TMC3    C8 9754   3.221   1.686  16.367
  656TMC3    O1 9755   3.426   1.914  15.860
  656TMC3    O2 9756   3.229   1.581  16.430
  657TMC3    C1 9757   2.551   0.689  15.347
  657TMC3    C2 9758   2.585   0.726  15.470
  657TMC3    C3 9759   2.553   0.853  15.516
  657TMC3    C4 9760   2.471   0.765  15.262
  657TMC3    C5 9761   2.439   0.889  15.309
  657TMC3    C6 9762   2.472   0.930  15.436
  657TMC3     C 9763   2.557   0.541  15.326
  657TMC3     O 9764   2.468   0.498  15.258
  657TMC3     H 9765   2.632   0.659  15.541
  657TMC3    H1 9766   2.437   0.727  15.166
  657TMC3    H2 9767   2.442   1.030  15.465
  657TMC3    C7 9768   2.336   0.966  15.240
  657TMC3    C8 9769   2.634   0.918  15.617
  657TMC3    O1 9770   2.239   1.001  15.307
  657TMC3    O2 9771   2.594   1.028  15.648
  658MPD2     C 9772   4.140   0.956  15.272
  658MPD2    C1 9773   4.034   0.976  15.190
  658MPD2    C2 9774   4.053   0.993  15.054
  658MPD2    C3 9775   4.178   0.967  14.999
  658MPD2    C4 9776   4.293   0.949  15.077
  658MPD2    C5 9777   4.265   0.948  15.217
  658MPD2     H 9778   3.979   1.033  14.986
  658MPD2    H1 9779   4.390   0.938  15.031
  658MPD2    H2 9780   4.123   0.939  15.378
  658MPD2    H3 9781   4.356   0.939  15.275
  658MPD2     N 9782   4.180   0.984  14.861
  658MPD2    H5 9783   4.087   0.990  14.820
  658MPD2    N1 9784   3.908   0.991  15.249
  658MPD2    H7 9785   3.913   1.006  15.349
  659TMC3    C1 9786   3.672   1.030  15.266
  659TMC3    C2 9787   3.688   1.043  15.400
  659TMC3    C3 9788   3.579   1.092  15.468
  659TMC3    C4 9789   3.557   1.049  15.194
  659TMC3    C5 9790   3.448   1.080  15.272
  659TMC3    C6 9791   3.460   1.102  15.408
  659TMC3     C 9792   3.786   1.009  15.182
  659TMC3     O 9793   3.766   1.004  15.061
  659TMC3     H 9794   3.780   1.016  15.450
  659TMC3    H1 9795   3.541   1.043  15.087
  659TMC3    H2 9796   3.373   1.144  15.458
  659TMC3    C7 9797   3.312   1.053  15.228
  659TMC3    C8 9798   3.595   1.159  15.597
  659TMC3    O1 9799   3.220   1.109  15.291
  659TMC3    O2 9800   3.491   1.183  15.657
  660MPD2     C 9801   1.771   0.122  13.112
  660MPD2    C1 9802   1.648   0.100  13.060
  660MPD2    C2 9803   1.598   4.750  13.078
  660MPD2    C3 9804   1.667   4.648  13.153
  660MPD2    C4 9805   1.781   4.685  13.216
  660MPD2    C5 9806   1.841   0.033  13.193
  660MPD2     H 9807   1.505   4.729  13.027
  660MPD2    H1 9808   1.829   4.627  13.294
  660MPD2    H2 9809   1.813   0.222  13.103
  660MPD2    H3 9810   1.938   0.054  13.238
  660MPD2     N 9811   1.615   4.518  13.182
  660MPD2    H5 9812   1.656   4.468  13.260
  660MPD2    N1 9813   1.588   0.204  12.993
  660MPD2    H7 9814   1.645   0.286  12.975
  661TMC3    C1 9815   1.413   0.344  12.916
  661TMC3    C2 9816   1.474   0.402  12.809
  661TMC3    C3 9817   1.423   0.512  12.753
  661TMC3    C4 9818   1.298   0.385  12.961
  661TMC3    C5 9819   1.245   0.495  12.904
  661TMC3    C6 9820   1.306   0.565  12.803
  661TMC3     C 9821   1.458   0.207  12.955
  661TMC3     O 9822   1.370   0.119  12.959
  661TMC3     H 9823   1.563   0.348  12.779
  661TMC3    H1 9824   1.233   0.332  13.029
  661TMC3    H2 9825   1.241   0.643  12.763
  661TMC3    C7 9826   1.109   0.506  12.913
  661TMC3    C8 9827   1.469   0.551  12.620
  661TMC3    O1 9828   1.051   0.612  12.936
  661TMC3    O2 9829   1.531   0.481  12.547
  662MPD2     C 9830   1.684   0.080  17.549
  662MPD2    C1 9831   1.671   0.006  17.671
  662MPD2    C2 9832   1.668   0.068  17.793
  662MPD2    C3 9833   1.670   0.212  17.798
  662MPD2    C4 9834   1.675   0.280  17.674
  662MPD2    C5 9835   1.691   0.214  17.556
  662MPD2     H 9836   1.653   4.780  17.875
  662MPD2    H1 9837   1.667   0.388  17.672
  662MPD2    H2 9838   1.689   0.044  17.447
  662MPD2    H3 9839   1.683   0.270  17.463
  662MPD2     N 9840   1.661   0.288  17.913
  662MPD2    H5 9841   1.640   0.386  17.896
  662MPD2    N1 9842   1.667   4.650  17.676
  662MPD2    H7 9843   1.655   4.605  17.766
  663TMC3    C1 9844   1.658   4.432  17.592
  663TMC3    C2 9845   1.604   4.393  17.710
  663TMC3    C3 9846   1.594   4.254  17.726
  663TMC3    C4 9847   1.697   4.347  17.497
  663TMC3    C5 9848   1.688   4.212  17.518
  663TMC3    C6 9849   1.645   4.160  17.640
  663TMC3     C 9850   1.680   4.573  17.563
  663TMC3     O 9851   1.721   4.604  17.452
  663TMC3     H 9852   1.540   4.457  17.770
  663TMC3    H1 9853   1.730   4.386  17.401
  663TMC3    H2 9854   1.616   4.056  17.651
  663TMC3    C7 9855   1.756   4.123  17.427
  663TMC3    C8 9856   1.479   4.215  17.805
  663TMC3    O1 9857   1.780   4.173  17.318
  663TMC3    O2 9858   1.431   4.107  17.776
  664MPD2     C 9859   4.584   2.585  17.741
  664MPD2    C1 9860   4.627   2.683  17.826
  664MPD2    C2 9861   4.575   2.700  17.959
  664MPD2    C3 9862   4.491   2.600  18.010
  664MPD2    C4 9863   4.472   2.481  17.930
  664MPD2    C5 9864   4.516   2.477  17.800
  664MPD2     H 9865   4.601   2.794  18.006
  664MPD2    H1 9866   4.405   2.402  17.961
  664MPD2    H2 9867   4.608   2.574  17.636
  664MPD2    H3 9868   4.486   2.394  17.738
  664MPD2     N 9869   4.460   2.608  18.148
  664MPD2    H5 9870   4.478   2.696  18.195
  664MPD2    N1 9871   4.715   2.786  17.782
  664MPD2    H7 9872   4.733   2.861  17.848
  665TMC3    C1 9873   4.425   2.512  18.359
  665TMC3    C2 9874   4.332   2.460  18.446
  665TMC3    C3 9875   4.334   2.503  18.578
  665TMC3    C4 9876   4.527   2.590  18.404
  665TMC3    C5 9877   4.537   2.620  18.534
  665TMC3    C6 9878   4.441   2.577  18.626
  665TMC3     C 9879   4.397   2.507  18.215
  665TMC3     O 9880   4.305   2.433  18.180
  665TMC3     H 9881   4.247   2.409  18.403
  665TMC3    H1 9882   4.601   2.610  18.327
  665TMC3    H2 9883   4.443   2.612  18.729
  665TMC3    C7 9884   4.635   2.723  18.563
  665TMC3    C8 9885   4.220   2.515  18.664
  665TMC3    O1 9886   4.711   2.752  18.471
  665TMC3    O2 9887   4.216   2.609  18.742
  666TMC3    C1 9888   3.509   2.764  10.264
  666TMC3    C2 9889   3.574   2.701  10.157
  666TMC3    C3 9890   3.654   2.774  10.078
  666TMC3    C4 9891   3.529   2.897  10.290
  666TMC3    C5 9892   3.610   2.969  10.204
  666TMC3    C6 9893   3.671   2.907  10.098
  666TMC3     C 9894   3.504   2.681  10.382
  666TMC3     O 9895   3.535   2.741  10.482
  666TMC3     H 9896   3.574   2.593  10.152
  666TMC3    H1 9897   3.489   2.947  10.377
  666TMC3    H2 9898   3.724   2.970  10.028
  666TMC3    C7 9899   3.661   3.098  10.249
  666TMC3    C8 9900   3.732   2.704   9.968
  666TMC3    O1 9901   3.605   3.138  10.351
  666TMC3    O2 9902   3.672   2.615   9.914
  667MPD2     C 9903   0.581   2.552  15.068
  667MPD2    C1 9904   0.502   2.609  15.168
  667MPD2    C2 9905   0.374   2.552  15.189
  667MPD2    C3 9906   0.329   2.445  15.104
  667MPD2    C4 9907   0.410   2.400  15.007
  667MPD2    C5 9908   0.536   2.453  14.992
  667MPD2     H 9909   0.316   2.596  15.269
  667MPD2    H1 9910   0.366   2.334  14.934
  667MPD2    H2 9911   0.684   2.586  15.060
  667MPD2    H3 9912   0.601   2.400  14.923
  667MPD2     N 9913   0.194   2.401  15.103
  667MPD2    H5 9914   0.163   2.339  15.029
  667MPD2    N1 9915   0.548   2.706  15.254
  667MPD2    H7 9916   0.486   2.743  15.325
  668TMC3    C1 9917   0.687   2.856  15.361
  668TMC3    C2 9918   0.761   2.967  15.338
  668TMC3    C3 9919   0.832   3.017  15.441
  668TMC3    C4 9920   0.672   2.795  15.483
  668TMC3    C5 9921   0.742   2.855  15.585
  668TMC3    C6 9922   0.823   2.961  15.571
  668TMC3     C 9923   0.667   2.770  15.245
  668TMC3     O 9924   0.751   2.785  15.157
  668TMC3     H 9925   0.769   3.004  15.236
  668TMC3    H1 9926   0.605   2.711  15.493
  668TMC3    H2 9927   0.869   2.999  15.662
  668TMC3    C7 9928   0.735   2.820  15.726
  668TMC3    C8 9929   0.902   3.140  15.424
  668TMC3    O1 9930   0.841   2.810  15.780
  668TMC3    O2 9931   0.940   3.199  15.522
  669TMC3    C1 9932   3.516   2.589  15.053
  669TMC3    C2 9933   3.412   2.563  14.970
  669TMC3    C3 9934   3.426   2.605  14.843
  669TMC3    C4 9935   3.629   2.646  15.017
  669TMC3    C5 9936   3.646   2.666  14.880
  669TMC3    C6 9937   3.542   2.653  14.793
  669TMC3     C 9938   3.507   2.519  15.182
  669TMC3     O 9939   3.400   2.501  15.234
  669TMC3     H 9940   3.322   2.508  14.996
  669TMC3    H1 9941   3.701   2.697  15.079
  669TMC3    H2 9942   3.545   2.680  14.688
  669TMC3    C7 9943   3.752   2.750  14.829
  669TMC3    C8 9944   3.308   2.615  14.761
  669TMC3    O1 9945   3.805   2.820  14.915
  669TMC3    O2 9946   3.218   2.529  14.772
  670MPD2     C 9947   2.032   0.723  13.702
  670MPD2    C1 9948   2.111   0.651  13.791
  670MPD2    C2 9949   2.053   0.578  13.891
  670MPD2    C3 9950   1.915   0.584  13.904
  670MPD2    C4 9951   1.841   0.667  13.822
  670MPD2    C5 9952   1.897   0.729  13.721
  670MPD2     H 9953   2.110   0.535  13.973
  670MPD2    H1 9954   1.733   0.671  13.833
  670MPD2    H2 9955   2.078   0.775  13.619
  670MPD2    H3 9956   1.834   0.775  13.646
  670MPD2     N 9957   1.849   0.506  14.004
  670MPD2    H5 9958   1.904   0.450  14.069
  670MPD2    N1 9959   2.250   0.640  13.783
  670MPD2    H7 9960   2.294   0.576  13.848
  671TMC3    C1 9961   1.694   0.393  14.130
  671TMC3    C2 9962   1.781   0.381  14.235
  671TMC3    C3 9963   1.744   0.297  14.339
  671TMC3    C4 9964   1.591   0.313  14.112
  671TMC3    C5 9965   1.569   0.217  14.204
  671TMC3    C6 9966   1.642   0.208  14.318
  671TMC3     C 9967   1.715   0.503  14.037
  671TMC3     O 9968   1.617   0.550  13.984
  671TMC3     H 9969   1.859   0.456  14.248
  671TMC3    H1 9970   1.537   0.316  14.018
  671TMC3    H2 9971   1.626   0.125  14.385
  671TMC3    C7 9972   1.495   0.106  14.161
  671TMC3    C8 9973   1.856   0.212  14.386
  671TMC3    O1 9974   1.500   0.075  14.043
  671TMC3    O2 9975   1.929   0.161  14.303
  672MPD2     C 9976   2.349   1.180  19.495
  672MPD2    C1 9977   2.433   1.176  19.385
  672MPD2    C2 9978   2.541   1.268  19.378
  672MPD2    C3 9979   2.545   1.372  19.471
  672MPD2    C4 9980   2.455   1.373  19.580
  672MPD2    C5 9981   2.359   1.274  19.594
  672MPD2     H 9982   2.607   1.250  19.294
  672MPD2    H1 9983   2.455   1.459  19.646
  672MPD2    H2 9984   2.265   1.112  19.506
  672MPD2    H3 9985   2.290   1.265  19.677
  672MPD2     N 9986   2.625   1.491  19.460
  672MPD2    H5 9987   2.611   1.574  19.516
  672MPD2    N1 9988   2.420   1.080  19.287
  672MPD2    H7 9989   2.480   1.087  19.205
  673TMC3    C1 9990   2.309   0.929  19.158
  673TMC3    C2 9991   2.403   0.950  19.059
  673TMC3    C3 9992   2.356   0.946  18.928
  673TMC3    C4 9993   2.177   0.907  19.127
  673TMC3    C5 9994   2.137   0.898  18.993
  673TMC3    C6 9995   2.228   0.922  18.898
  673TMC3     C 9996   2.329   0.974  19.291
  673TMC3     O 9997   2.263   0.929  19.381
  673TMC3     H 9998   2.508   0.966  19.079
  673TMC3    H1 9999   2.101   0.890  19.202
  673TMC3    H210000   2.210   0.925  18.791
  673TMC3    C710001   1.992   0.921  18.974
  673TMC3    C810002   2.445   0.953  18.814
  673TMC3    O110003   1.922   0.866  19.056
  673TMC3    O210004   2.409   1.006  18.711
  674MPD2     C10005   2.210   0.361  18.090
  674MPD2    C110006   2.133   0.286  18.168
  674MPD2    C210007   2.061   0.344  18.274
  674MPD2    C310008   2.070   0.481  18.298
  674MPD2    C410009   2.147   0.554  18.215
  674MPD2    C510010   2.214   0.493  18.109
  674MPD2     H10011   1.990   0.283  18.330
  674MPD2    H110012   2.158   0.660  18.236
  674MPD2    H210013   2.281   0.324  18.017
  674MPD2    H310014   2.270   0.553  18.038
  674MPD2     N10015   1.997   0.529  18.406
  674MPD2    H510016   1.941   0.464  18.460
  674MPD2    N110017   2.137   0.151  18.137
  674MPD2    H710018   2.185   0.143  18.048
  675TMC3    C110019   2.077   0.031  18.348
  675TMC3    C210020   1.992   4.737  18.423
  675TMC3    C310021   2.019   4.719  18.557
  675TMC3    C410022   2.196   0.079  18.407
  675TMC3    C510023   2.219   0.059  18.541
  675TMC3    C610024   2.127   4.773  18.620
  675TMC3     C10025   2.079   0.041  18.201
  675TMC3     O10026   2.043   4.716  18.148
  675TMC3     H10027   1.904   4.687  18.383
  675TMC3    H110028   2.280   0.109  18.345
  675TMC3    H210029   2.140   4.745  18.724
  675TMC3    C710030   2.275   0.176  18.613
  675TMC3    C810031   1.901   4.685  18.639
  675TMC3    O110032   2.288   0.176  18.731
  675TMC3    O210033   1.802   4.627  18.593
  676MPD2     C10034   0.278   3.882  11.402
  676MPD2    C110035   0.161   3.817  11.431
  676MPD2    C210036   0.146   3.685  11.387
  676MPD2    C310037   0.238   3.630  11.302
  676MPD2    C410038   0.345   3.704  11.260
  676MPD2    C510039   0.363   3.833  11.304
  676MPD2     H10040   0.054   3.636  11.417
  676MPD2    H110041   0.416   3.676  11.183
  676MPD2    H210042   0.295   3.984  11.436
  676MPD2    H310043   0.452   3.886  11.272
  676MPD2     N10044   0.221   3.498  11.240
  676MPD2    H510045   0.303   3.456  11.198
  676MPD2    N110046   0.051   3.862  11.514
  676MPD2    H710047   4.752   3.799  11.508
  677TMC3    C110048   4.702   4.012  11.649
  677TMC3    C210049   4.608   3.916  11.651
  677TMC3    C310050   4.489   3.958  11.705
  677TMC3    C410051   4.690   4.140  11.696
  677TMC3    C510052   4.570   4.181  11.752
  677TMC3    C610053   4.464   4.090  11.741
  677TMC3     C10054   0.048   3.986  11.576
  677TMC3     O10055   0.137   4.068  11.578
  677TMC3     H10056   4.617   3.813  11.620
  677TMC3    H110057   4.772   4.210  11.696
  677TMC3    H210058   4.367   4.116  11.782
  677TMC3    C710059   4.577   4.246  11.881
  677TMC3    C810060   4.444   3.863  11.805
  677TMC3    O110061   4.501   4.201  11.966
  677TMC3    O210062   4.515   3.765  11.806
  678MPD2     C10063   1.182   3.535  19.574
  678MPD2    C110064   1.197   3.594  19.453
  678MPD2    C210065   1.094   3.616  19.372
  678MPD2    C310066   0.964   3.606  19.413
  678MPD2    C410067   0.941   3.551  19.534
  678MPD2    C510068   1.054   3.515  19.617
  678MPD2     H10069   1.112   3.682  19.288
  678MPD2    H110070   0.841   3.548  19.575
  678MPD2    H210071   1.263   3.494  19.633
  678MPD2    H310072   1.028   3.440  19.691
  678MPD2     N10073   0.866   3.644  19.319
  678MPD2    H510074   0.897   3.691  19.234
  678MPD2    N110075   1.332   3.619  19.404
  678MPD2    H710076   1.341   3.651  19.308
  679TMC3    C110077   1.791   3.639  19.343
  679TMC3    C210078   1.680   3.575  19.399
  679TMC3    C310079   1.567   3.642  19.390
  679TMC3    C410080   1.791   3.761  19.282
  679TMC3    C510081   1.669   3.815  19.270
  679TMC3    C610082   1.555   3.762  19.328
  679TMC3     C10083   1.920   3.570  19.366
  679TMC3     O10084   1.997   3.573  19.269
  679TMC3     H10085   1.695   3.478  19.444
  679TMC3    H110086   1.886   3.804  19.254
  679TMC3    H210087   1.459   3.812  19.335
  679TMC3    C710088   1.660   3.953  19.221
  679TMC3    C810089   1.452   3.590  19.465
  679TMC3    O110090   1.552   4.011  19.229
  679TMC3    O210091   1.476   3.519  19.561
  680MPD2     C10092   1.035   2.391  13.658
  680MPD2    C110093   1.142   2.338  13.718
  680MPD2    C210094   1.199   2.397  13.828
  680MPD2    C310095   1.136   2.503  13.893
  680MPD2    C410096   1.017   2.546  13.837
  680MPD2    C510097   0.975   2.493  13.719
  680MPD2     H10098   1.288   2.351  13.870
  680MPD2    H110099   0.958   2.622  13.886
  680MPD2    H210100   0.991   2.352  13.567
  680MPD2    H310101   0.882   2.529  13.677
  680MPD2     N10102   1.198   2.575  13.997
  680MPD2    H510103   1.138   2.647  14.036
  680MPD2    N110104   1.203   2.223  13.662
  680MPD2    H710105   1.289   2.203  13.711
  681TMC3    C110106   1.225   2.010  13.560
  681TMC3    C210107   1.167   1.891  13.593
  681TMC3    C310108   1.247   1.794  13.650
  681TMC3    C410109   1.360   2.030  13.552
  681TMC3    C510110   1.439   1.933  13.602
  681TMC3    C610111   1.388   1.815  13.658
  681TMC3     C10112   1.143   2.131  13.581
  681TMC3     O10113   1.022   2.116  13.556
  681TMC3     H10114   1.059   1.892  13.592
  681TMC3    H110115   1.404   2.113  13.498
  681TMC3    H210116   1.460   1.750  13.706
  681TMC3    C710117   1.587   1.943  13.608
  681TMC3    C810118   1.194   1.765  13.776
  681TMC3    O110119   1.644   1.851  13.663
  681TMC3    O210120   1.089   1.702  13.778
  682MPD2     C10121   3.749   4.277  10.906
  682MPD2    C110122   3.668   4.165  10.945
  682MPD2    C210123   3.585   4.175  11.054
  682MPD2    C310124   3.576   4.295  11.115
  682MPD2    C410125   3.667   4.396  11.086
  682MPD2    C510126   3.759   4.384  10.988
  682MPD2     H10127   3.528   4.089  11.087
  682MPD2    H110128   3.671   4.491  11.139
  682MPD2    H210129   3.816   4.273  10.821
  682MPD2    H310130   3.818   4.472  10.964
  682MPD2     N10131   3.489   4.321  11.223
  682MPD2    H510132   3.510   4.398  11.286
  682MPD2    N110133   3.672   4.039  10.880
  682MPD2    H710134   3.610   3.963  10.906
  683TMC3    C110135   3.323   4.331  11.598
  683TMC3    C210136   3.189   4.300  11.612
  683TMC3    C310137   3.123   4.259  11.503
  683TMC3    C410138   3.387   4.312  11.488
  683TMC3    C510139   3.317   4.264  11.378
  683TMC3    C610140   3.182   4.240  11.381
  683TMC3     C10141   3.403   4.314  11.719
  683TMC3     O10142   3.506   4.381  11.731
  683TMC3     H10143   3.134   4.311  11.705
  683TMC3    H110144   3.476   4.374  11.481
  683TMC3    H210145   3.132   4.207  11.291
  683TMC3    C710146   3.375   4.247  11.247
  683TMC3    C810147   3.013   4.177  11.545
  683TMC3    O110148   3.329   4.161  11.175
  683TMC3    O210149   2.906   4.234  11.561
  684MPD2     C10150   1.826   2.869  16.546
  684MPD2    C110151   1.751   2.933  16.452
  684MPD2    C210152   1.726   3.073  16.466
  684MPD2    C310153   1.795   3.144  16.564
  684MPD2    C410154   1.865   3.072  16.657
  684MPD2    C510155   1.873   2.930  16.656
  684MPD2     H10156   1.681   3.121  16.380
  684MPD2    H110157   1.919   3.114  16.741
  684MPD2    H210158   1.846   2.763  16.543
  684MPD2    H310159   1.921   2.883  16.741
  684MPD2     N10160   1.787   3.279  16.580
  684MPD2    H510161   1.852   3.323  16.644
  684MPD2    N110162   1.704   2.869  16.338
  684MPD2    H710163   1.633   2.910  16.278
  685TMC3    C110164   1.681   2.704  16.169
  685TMC3    C210165   1.662   2.799  16.068
  685TMC3    C310166   1.656   2.752  15.939
  685TMC3    C410167   1.715   2.577  16.132
  685TMC3    C510168   1.729   2.541  16.003
  685TMC3    C610169   1.701   2.629  15.903
  685TMC3     C10170   1.740   2.744  16.293
  685TMC3     O10171   1.823   2.666  16.343
  685TMC3     H10172   1.675   2.905  16.089
  685TMC3    H110173   1.726   2.498  16.205
  685TMC3    H210174   1.700   2.609  15.797
  685TMC3    C710175   1.850   2.460  15.980
  685TMC3    C810176   1.568   2.821  15.849
  685TMC3    O110177   1.887   2.394  16.074
  685TMC3    O210178   1.567   2.779  15.731
  686MPD2     C10179   3.214   3.222  15.520
  686MPD2    C110180   3.273   3.122  15.599
  686MPD2    C210181   3.363   3.042  15.545
  686MPD2    C310182   3.399   3.057  15.408
  686MPD2    C410183   3.345   3.159  15.333
  686MPD2    C510184   3.257   3.249  15.391
  686MPD2     H10185   3.400   2.957  15.600
  686MPD2    H110186   3.353   3.165  15.225
  686MPD2    H210187   3.154   3.299  15.568
  686MPD2    H310188   3.227   3.337  15.334
  686MPD2     N10189   3.485   2.971  15.336
  686MPD2    H510190   3.537   3.028  15.270
  686MPD2    N110191   3.206   3.093  15.722
  686MPD2    H710192   3.128   3.153  15.747
  687TMC3    C110193   3.475   2.755  15.466
  687TMC3    C210194   3.340   2.749  15.468
  687TMC3    C310195   3.299   2.671  15.574
  687TMC3    C410196   3.560   2.701  15.552
  687TMC3    C510197   3.510   2.633  15.665
  687TMC3    C610198   3.379   2.619  15.677
  687TMC3     C10199   3.546   2.847  15.370
  687TMC3     O10200   3.639   2.788  15.313
  687TMC3     H10201   3.274   2.779  15.388
  687TMC3    H110202   3.664   2.731  15.550
  687TMC3    H210203   3.340   2.557  15.757
  687TMC3    C710204   3.594   2.603  15.780
  687TMC3    C810205   3.153   2.666  15.606
  687TMC3    O110206   3.543   2.588  15.891
  687TMC3    O210207   3.119   2.574  15.677
  688MPD2     C10208   2.263   2.131  17.614
  688MPD2    C110209   2.252   1.992  17.627
  688MPD2    C210210   2.312   1.914  17.530
  688MPD2    C310211   2.392   1.976  17.432
  688MPD2    C410212   2.398   2.110  17.423
  688MPD2    C510213   2.328   2.182  17.511
  688MPD2     H10214   2.303   1.806  17.531
  688MPD2    H110215   2.454   2.159  17.344
  688MPD2    H210216   2.216   2.195  17.688
  688MPD2    H310217   2.344   2.289  17.512
  688MPD2     N10218   2.471   1.907  17.340
  688MPD2    H510219   2.503   1.969  17.266
  688MPD2    N110220   2.181   1.929  17.736
  688MPD2    H710221   2.191   1.828  17.741
  689TMC3    C110222   2.075   1.923  17.947
  689TMC3    C210223   2.028   1.997  18.050
  689TMC3    C310224   2.006   1.937  18.168
  689TMC3    C410225   2.080   1.781  17.944
  689TMC3    C510226   2.053   1.726  18.070
  689TMC3    C610227   2.021   1.800  18.183
  689TMC3     C10228   2.109   1.993  17.836
  689TMC3     O10229   2.072   2.112  17.829
  689TMC3     H10230   2.041   2.105  18.048
  689TMC3    H110231   2.135   1.729  17.866
  689TMC3    H210232   1.977   1.752  18.270
  689TMC3    C710233   2.038   1.583  18.083
  689TMC3    C810234   1.990   2.017  18.287
  689TMC3    O110235   2.038   1.535  18.199
  689TMC3    O210236   1.999   1.957  18.395
  690MPD2     C10237   0.072   3.923  16.275
  690MPD2    C110238   0.036   3.867  16.161
  690MPD2    C210239   0.112   3.877  16.050
  690MPD2    C310240   0.226   3.952  16.050
  690MPD2    C410241   0.261   4.020  16.168
  690MPD2    C510242   0.188   3.996  16.283
  690MPD2     H10243   0.075   3.828  15.961
  690MPD2    H110244   0.357   4.066  16.185
  690MPD2    H210245   0.018   3.899  16.366
  690MPD2    H310246   0.217   4.047  16.374
  690MPD2     N10247   0.294   3.960  15.927
  690MPD2    H510248   0.253   3.914  15.847
  690MPD2    N110249   4.721   3.760  16.165
  690MPD2    H710250   4.704   3.695  16.088
  691TMC3    C110251   4.541   3.634  16.230
  691TMC3    C210252   4.414   3.664  16.198
  691TMC3    C310253   4.341   3.568  16.133
  691TMC3    C410254   4.606   3.517  16.199
  691TMC3    C510255   4.536   3.427  16.133
  691TMC3    C610256   4.397   3.437  16.105
  691TMC3     C10257   4.625   3.744  16.261
  691TMC3     O10258   4.592   3.830  16.337
  691TMC3     H10259   4.369   3.761  16.216
  691TMC3    H110260   4.712   3.502  16.215
  691TMC3    H210261   4.330   3.358  16.073
  691TMC3    C710262   4.602   3.297  16.118
  691TMC3    C810263   4.199   3.578  16.103
  691TMC3    O110264   4.705   3.279  16.185
  691TMC3    O210265   4.145   3.473  16.074
  692TMC3    C110266   1.637   4.674  16.023
  692TMC3    C210267   1.759   4.701  16.073
  692TMC3    C310268   1.842   4.590  16.098
  692TMC3    C410269   1.604   4.553  15.974
  692TMC3    C510270   1.687   4.449  15.991
  692TMC3    C610271   1.801   4.469  16.060
  692TMC3     C10272   1.530   4.764  16.052
  692TMC3     O10273   1.424   4.700  16.065
  692TMC3     H10274   1.775   0.018  16.118
  692TMC3    H110275   1.509   4.539  15.923
  692TMC3    H210276   1.873   4.388  16.067
  692TMC3    C710277   1.635   4.315  15.959
  692TMC3    C810278   1.930   4.596  16.211
  692TMC3    O110279   1.547   4.319  15.875
  692TMC3    O210280   1.961   4.489  16.258
  693MPD2     C10281   1.176   2.828  10.981
  693MPD2    C110282   1.082   2.723  10.984
  693MPD2    C210283   1.118   2.595  10.997
  693MPD2    C310284   1.251   2.560  10.989
  693MPD2    C410285   1.350   2.660  10.990
  693MPD2    C510286   1.307   2.789  10.982
  693MPD2     H10287   1.036   2.528  11.021
  693MPD2    H110288   1.458   2.648  10.995
  693MPD2    H210289   1.148   2.932  10.966
  693MPD2    H310290   1.386   2.862  10.975
  693MPD2     N10291   1.296   2.431  11.012
  693MPD2    H510292   1.396   2.423  10.998
  693MPD2    N110293   0.948   2.761  10.971
  693MPD2    H710294   0.924   2.854  11.003
  694TMC3    C110295   0.719   2.726  10.975
  694TMC3    C210296   0.616   2.681  10.895
  694TMC3    C310297   0.503   2.641  10.962
  694TMC3    C410298   0.712   2.737  11.113
  694TMC3    C510299   0.594   2.691  11.168
  694TMC3    C610300   0.496   2.630  11.098
  694TMC3     C10301   0.851   2.681  10.927
  694TMC3     O10302   0.863   2.579  10.862
  694TMC3     H10303   0.621   2.672  10.787
  694TMC3    H110304   0.792   2.775  11.175
  694TMC3    H210305   0.403   2.589  11.136
  694TMC3    C710306   0.585   2.713  11.317
  694TMC3    C810307   0.382   2.601  10.892
  694TMC3    O110308   0.643   2.819  11.352
  694TMC3    O210309   0.316   2.513  10.950
  695MPD2     C10310   2.217   4.555  13.778
  695MPD2    C110311   2.147   4.515  13.889
  695MPD2    C210312   2.009   4.506  13.889
  695MPD2    C310313   1.943   4.532  13.771
  695MPD2    C410314   2.014   4.565  13.655
  695MPD2    C510315   2.151   4.582  13.659
  695MPD2     H10316   1.951   4.469  13.973
  695MPD2    H110317   1.969   4.583  13.558
  695MPD2    H210318   2.325   4.568  13.780
  695MPD2    H310319   2.202   4.624  13.573
  695MPD2     N10320   1.800   4.523  13.772
  695MPD2    H510321   1.752   4.501  13.859
  695MPD2    N110322   2.210   4.497  14.014
  695MPD2    H710323   2.155   4.446  14.083
  696TMC3    C110324   1.581   4.565  13.707
  696TMC3    C210325   1.541   4.501  13.816
  696TMC3    C310326   1.420   4.524  13.867
  696TMC3    C410327   1.502   4.666  13.655
  696TMC3    C510328   1.382   4.695  13.722
  696TMC3    C610329   1.341   4.626  13.825
  696TMC3     C10330   1.715   4.548  13.664
  696TMC3     O10331   1.735   4.594  13.553
  696TMC3     H10332   1.591   4.410  13.848
  696TMC3    H110333   1.548   4.731  13.582
  696TMC3    H210334   1.248   4.644  13.878
  696TMC3    C710335   1.325   0.046  13.691
  696TMC3    C810336   1.368   4.408  13.928
  696TMC3    O110337   1.344   0.089  13.577
  696TMC3    O210338   1.386   4.303  13.868
  697MPD2     C10339   1.297   1.556  16.016
  697MPD2    C110340   1.310   1.489  15.899
  697MPD2    C210341   1.320   1.569  15.789
  697MPD2    C310342   1.328   1.711  15.797
  697MPD2    C410343   1.308   1.766  15.922
  697MPD2    C510344   1.292   1.689  16.031
  697MPD2     H10345   1.322   1.528  15.689
  697MPD2    H110346   1.307   1.872  15.943
  697MPD2    H210347   1.273   1.500  16.106
  697MPD2    H310348   1.277   1.730  16.130
  697MPD2     N10349   1.341   1.780  15.676
  697MPD2    H510350   1.383   1.736  15.595
  697MPD2    N110351   1.305   1.349  15.870
  697MPD2    H710352   1.311   1.329  15.771
  698TMC3    C110353   1.374   1.954  15.527
  698TMC3    C210354   1.395   2.090  15.525
  698TMC3    C310355   1.489   2.133  15.434
  698TMC3    C410356   1.436   1.864  15.448
  698TMC3    C510357   1.530   1.910  15.361
  698TMC3    C610358   1.563   2.044  15.365
  698TMC3     C10359   1.347   1.916  15.663
  698TMC3     O10360   1.347   1.998  15.755
  698TMC3     H10361   1.347   2.155  15.598
  698TMC3    H110362   1.389   1.769  15.425
  698TMC3    H210363   1.607   2.090  15.277
  698TMC3    C710364   1.513   1.857  15.234
  698TMC3    C810365   1.459   2.265  15.380
  698TMC3    O110366   1.394   1.823  15.214
  698TMC3    O210367   1.344   2.306  15.388
  699TMC3    C110368   1.434   4.366  13.195
  699TMC3    C210369   1.503   4.287  13.283
  699TMC3    C310370   1.434   4.228  13.385
  699TMC3    C410371   1.298   4.393  13.214
  699TMC3    C510372   1.238   4.321  13.308
  699TMC3    C610373   1.301   4.235  13.399
  699TMC3     C10374   1.502   4.470  13.125
  699TMC3     O10375   1.447   4.512  13.023
  699TMC3     H10376   1.610   4.271  13.276
  699TMC3    H110377   1.243   4.455  13.144
  699TMC3    H210378   1.244   4.207  13.487
  699TMC3    C710379   1.102   4.361  13.335
  699TMC3    C810380   1.502   4.168  13.493
  699TMC3    O110381   1.073   4.476  13.321
  699TMC3    O210382   1.432   4.089  13.557
  700TMC3    C110383   0.337   2.121  17.461
  700TMC3    C210384   0.406   2.008  17.466
  700TMC3    C310385   0.491   1.983  17.572
  700TMC3    C410386   0.369   2.224  17.547
  700TMC3    C510387   0.461   2.202  17.647
  700TMC3    C610388   0.525   2.081  17.663
  700TMC3     C10389   0.316   2.168  17.326
  700TMC3     O10390   0.272   2.083  17.251
  700TMC3     H10391   0.407   1.935  17.386
  700TMC3    H110392   0.311   2.315  17.562
  700TMC3    H210393   0.600   2.064  17.739
  700TMC3    C710394   0.491   2.303  17.742
  700TMC3    C810395   0.582   1.872  17.568
  700TMC3    O110396   0.606   2.304  17.786
  700TMC3    O210397   0.695   1.883  17.618
  701TMC3    C110398   0.745   0.627  15.760
  701TMC3    C210399   0.802   0.586  15.643
  701TMC3    C310400   0.900   0.667  15.586
  701TMC3    C410401   0.787   0.738  15.828
  701TMC3    C510402   0.884   0.814  15.767
  701TMC3    C610403   0.939   0.782  15.650
  701TMC3     C10404   0.619   0.564  15.804
  701TMC3     O10405   0.547   0.628  15.879
  701TMC3     H10406   0.774   0.495  15.591
  701TMC3    H110407   0.724   0.769  15.910
  701TMC3    H210408   1.011   0.846  15.601
  701TMC3    C710409   0.921   0.945  15.820
  701TMC3    C810410   0.872   0.676  15.445
  701TMC3    O110411   0.993   1.016  15.753
  701TMC3    O210412   0.965   0.679  15.368
  702MPD2     C10413   0.150   3.484  10.603
  702MPD2    C110414   0.062   3.514  10.709
  702MPD2    C210415   0.023   3.644  10.731
  702MPD2    C310416   0.086   3.745  10.665
  702MPD2    C410417   0.176   3.726  10.557
  702MPD2    C510418   0.195   3.587  10.526
  702MPD2     H10419   4.728   3.664  10.807
  702MPD2    H110420   0.214   3.807  10.495
  702MPD2    H210421   0.182   3.386  10.569
  702MPD2    H310422   0.248   3.566  10.434
  702MPD2     N10423   0.048   3.879  10.691
  702MPD2    H510424   0.105   3.958  10.661
  702MPD2    N110425   0.017   3.414  10.797
  702MPD2    H710426   4.711   3.426  10.849
  703TMC3    C110427   4.725   4.028  10.846
  703TMC3    C210428   4.637   4.018  10.945
  703TMC3    C310429   4.672   4.065  11.067
  703TMC3    C410430   0.077   4.084  10.872
  703TMC3    C510431   0.096   4.141  10.993
  703TMC3    C610432   0.012   4.119  11.099
  703TMC3     C10433   4.713   3.915  10.757
  703TMC3     O10434   4.607   3.852  10.763
  703TMC3     H10435   4.542   3.967  10.929
  703TMC3    H110436   0.147   4.092  10.790
  703TMC3    H210437   0.014   4.168  11.196
  703TMC3    C710438   0.227   4.185  11.027
  703TMC3    C810439   4.605   4.010  11.183
  703TMC3    O110440   0.301   4.215  10.932
  703TMC3    O210441   4.675   4.003  11.284
  704TMC3    C110442   3.256   1.657  13.320
  704TMC3    C210443   3.330   1.663  13.207
  704TMC3    C310444   3.420   1.556  13.188
  704TMC3    C410445   3.280   1.562  13.414
  704TMC3    C510446   3.365   1.454  13.392
  704TMC3    C610447   3.442   1.463  13.285
  704TMC3     C10448   3.120   1.693  13.313
  704TMC3     O10449   3.063   1.697  13.420
  704TMC3     H10450   3.304   1.734  13.130
  704TMC3    H110451   3.214   1.554  13.499
  704TMC3    H210452   3.503   1.376  13.265
  704TMC3    C710453   3.290   1.334  13.387
  704TMC3    C810454   3.436   1.518  13.051
  704TMC3    O110455   3.257   1.283  13.283
  704TMC3    O210456   3.361   1.578  12.977
  705MPD2     C10457   1.867   4.048  16.621
  705MPD2    C110458   1.919   4.175  16.617
  705MPD2    C210459   1.856   4.279  16.678
  705MPD2    C310460   1.731   4.243  16.741
  705MPD2    C410461   1.688   4.111  16.749
  705MPD2    C510462   1.757   4.015  16.687
  705MPD2     H10463   1.899   4.378  16.688
  705MPD2    H110464   1.599   4.084  16.804
  705MPD2    H210465   1.925   3.968  16.577
  705MPD2    H310466   1.738   3.910  16.705
  705MPD2     N10467   1.648   4.337  16.797
  705MPD2    H510468   1.555   4.307  16.823
  705MPD2    N110469   2.040   4.213  16.552
  705MPD2    H710470   2.082   4.305  16.557
  706TMC3    C110471   2.400   4.144  16.240
  706TMC3    C210472   2.403   4.272  16.204
  706TMC3    C310473   2.322   4.363  16.277
  706TMC3    C410474   2.318   4.100  16.339
  706TMC3    C510475   2.229   4.185  16.397
  706TMC3    C610476   2.231   4.323  16.374
  706TMC3     C10477   2.508   4.053  16.186
  706TMC3     O10478   2.549   3.963  16.258
  706TMC3     H10479   2.469   4.300  16.123
  706TMC3    H110480   2.322   3.996  16.369
  706TMC3    H210481   2.164   4.399  16.413
  706TMC3    C710482   2.109   4.126  16.462
  706TMC3    C810483   2.353   4.504  16.264
  706TMC3    O110484   2.096   4.002  16.440
  706TMC3    O210485   2.380   4.556  16.159
  707TMC3    C110486   4.212   3.819  18.464
  707TMC3    C210487   4.153   3.832  18.588
  707TMC3    C310488   4.028   3.781  18.612
  707TMC3    C410489   4.133   3.776  18.365
  707TMC3    C510490   4.009   3.717  18.388
  707TMC3    C610491   3.955   3.714  18.516
  707TMC3     C10492   4.355   3.778  18.478
  707TMC3     O10493   4.401   3.780  18.588
  707TMC3     H10494   4.209   3.887  18.663
  707TMC3    H110495   4.182   3.777  18.268
  707TMC3    H210496   3.860   3.663  18.531
  707TMC3    C710497   3.959   3.625  18.293
  707TMC3    C810498   3.986   3.767  18.747
  707TMC3    O110499   3.908   3.523  18.337
  707TMC3    O210500   4.019   3.859  18.824
  708MPD2     C10501   0.397   2.781  14.316
  708MPD2    C110502   0.301   2.793  14.411
  708MPD2    C210503   0.261   2.679  14.478
  708MPD2    C310504   0.338   2.562  14.471
  708MPD2    C410505   0.434   2.547  14.377
  708MPD2    C510506   0.471   2.660  14.310
  708MPD2     H10507   0.165   2.682  14.528
  708MPD2    H110508   0.490   2.456  14.356
  708MPD2    H210509   0.434   2.870  14.266
  708MPD2    H310510   0.563   2.647  14.255
  708MPD2     N10511   0.315   2.452  14.557
  708MPD2    H510512   0.349   2.367  14.513
  708MPD2    N110513   0.221   2.914  14.408
  708MPD2    H710514   0.229   2.983  14.333
  709TMC3    C110515   0.051   3.071  14.467
  709TMC3    C210516   4.778   3.067  14.339
  709TMC3    C310517   4.646   3.085  14.316
  709TMC3    C410518   4.748   3.109  14.575
  709TMC3    C510519   4.613   3.116  14.548
  709TMC3    C610520   4.555   3.100  14.422
  709TMC3     C10521   0.122   2.953  14.498
  709TMC3     O10522   0.086   2.893  14.603
  709TMC3     H10523   0.069   3.050  14.259
  709TMC3    H110524   0.012   3.109  14.674
  709TMC3    H210525   4.449   3.105  14.401
  709TMC3    C710526   4.529   3.107  14.668
  709TMC3    C810527   4.589   3.050  14.194
  709TMC3    O110528   4.578   3.144  14.775
  709TMC3    O210529   4.475   3.000  14.195
  710TMC3    C110530   1.196   4.518  18.734
  710TMC3    C210531   1.231   4.510  18.607
  710TMC3    C310532   1.356   4.471  18.571
  710TMC3    C410533   1.275   4.459  18.833
  710TMC3    C510534   1.391   4.406  18.794
  710TMC3    C610535   1.439   4.420  18.667
  710TMC3     C10536   1.057   4.522  18.779
  710TMC3     O10537   0.968   4.505  18.693
  710TMC3     H10538   1.159   4.534  18.529
  710TMC3    H110539   1.241   4.447  18.935
  710TMC3    H210540   1.540   4.398  18.635
  710TMC3    C710541   1.473   4.329  18.893
  710TMC3    C810542   1.386   4.432  18.432
  710TMC3    O110543   1.409   4.255  18.967
  710TMC3    O210544   1.499   4.439  18.389
  711TMC3    C110545   1.285   0.521  15.179
  711TMC3    C210546   1.263   0.575  15.303
  711TMC3    C310547   1.373   0.599  15.382
  711TMC3    C410548   1.410   0.491  15.136
  711TMC3    C510549   1.519   0.502  15.225
  711TMC3    C610550   1.504   0.573  15.342
  711TMC3     C10551   1.191   0.410  15.142
  711TMC3     O10552   1.240   0.337  15.061
  711TMC3     H10553   1.166   0.591  15.348
  711TMC3    H110554   1.424   0.459  15.033
  711TMC3    H210555   1.586   0.570  15.412
  711TMC3    C710556   1.555   0.373  15.268
  711TMC3    C810557   1.344   0.550  15.517
  711TMC3    O110558   1.640   0.357  15.354
  711TMC3    O210559   1.255   0.470  15.526
  712MPD2     C10560   2.193   1.468  13.771
  712MPD2    C110561   2.324   1.452  13.809
  712MPD2    C210562   2.402   1.568  13.794
  712MPD2    C310563   2.343   1.695  13.774
  712MPD2    C410564   2.217   1.702  13.727
  712MPD2    C510565   2.140   1.584  13.724
  712MPD2     H10566   2.507   1.555  13.815
  712MPD2    H110567   2.171   1.794  13.691
  712MPD2    H210568   2.132   1.379  13.765
  712MPD2    H310569   2.034   1.596  13.704
  712MPD2     N10570   2.418   1.818  13.787
  712MPD2    H510571   2.376   1.903  13.751
  712MPD2    N110572   2.376   1.324  13.836
  712MPD2    H710573   2.476   1.317  13.818
  713TMC3    C110574   2.592   1.963  13.839
  713TMC3    C210575   2.726   1.974  13.865
  713TMC3    C310576   2.784   2.092  13.834
  713TMC3    C410577   2.516   2.072  13.814
  713TMC3    C510578   2.574   2.189  13.777
  713TMC3    C610579   2.714   2.196  13.787
  713TMC3     C10580   2.538   1.830  13.846
  713TMC3     O10581   2.602   1.747  13.909
  713TMC3     H10582   2.789   1.888  13.884
  713TMC3    H110583   2.410   2.080  13.835
  713TMC3    H210584   2.758   2.294  13.771
  713TMC3    C710585   2.508   2.325  13.770
  713TMC3    C810586   2.924   2.119  13.869
  713TMC3    O110587   2.583   2.420  13.788
  713TMC3    O210588   2.987   2.182  13.787
  714MPD2     C10589   4.774   1.165  19.829
  714MPD2    C110590   4.769   1.036  19.779
  714MPD2    C210591   4.666   1.001  19.693
  714MPD2    C310592   4.569   1.089  19.656
  714MPD2    C410593   4.577   1.213  19.706
  714MPD2    C510594   4.674   1.253  19.789
  714MPD2     H10595   4.649   0.900  19.657
  714MPD2    H110596   4.516   1.295  19.669
  714MPD2    H210597   0.069   1.198  19.900
  714MPD2    H310598   4.665   1.357  19.819
  714MPD2     N10599   4.468   1.041  19.571
  714MPD2    H510600   4.458   0.940  19.567
  714MPD2    N110601   0.090   0.943  19.813
  714MPD2    H710602   0.165   0.972  19.875
  715TMC3    C110603   0.217   0.739  19.800
  715TMC3    C210604   0.214   0.599  19.790
  715TMC3    C310605   0.328   0.530  19.827
  715TMC3    C410606   0.329   0.809  19.840
  715TMC3    C510607   0.449   0.738  19.864
  715TMC3    C610608   0.444   0.601  19.855
  715TMC3     C10609   0.088   0.810  19.772
  715TMC3     O10610   0.005   0.745  19.709
  715TMC3     H10611   0.126   0.554  19.747
  715TMC3    H110612   0.345   0.916  19.845
  715TMC3    H210613   0.537   0.546  19.866
  715TMC3    C710614   0.556   0.795  19.933
  715TMC3    C810615   0.338   0.391  19.792
  715TMC3    O110616   0.671   0.761  19.899
  715TMC3    O210617   0.238   0.351  19.732
  716MPD2     C10618   4.777   3.595  10.222
  716MPD2    C110619   4.730   3.627  10.098
  716MPD2    C210620   4.702   3.527  10.003
  716MPD2    C310621   4.742   3.394  10.033
  716MPD2    C410622   0.029   3.366  10.147
  716MPD2    C510623   0.037   3.465  10.242
  716MPD2     H10624   4.649   3.548   9.911
  716MPD2    H110625   0.057   3.265  10.176
  716MPD2    H210626   0.014   3.672  10.296
  716MPD2    H310627   0.063   3.430  10.341
  716MPD2     N10628   4.690   3.295   9.939
  716MPD2    H510629   4.613   3.327   9.881
  716MPD2    N110630   4.690   3.761  10.067
  716MPD2    H710631   4.661   3.812  10.150
  717TMC3    C110632   4.695   3.074   9.833
  717TMC3    C210633   4.621   3.120   9.730
  717TMC3    C310634   4.577   3.022   9.635
  717TMC3    C410635   4.732   2.943   9.844
  717TMC3    C510636   4.692   2.856   9.744
  717TMC3    C610637   4.607   2.891   9.646
  717TMC3     C10638   4.741   3.167   9.940
  717TMC3     O10639   0.044   3.118  10.010
  717TMC3     H10640   4.621   3.226   9.706
  717TMC3    H110641   0.021   2.910   9.920
  717TMC3    H210642   4.551   2.825   9.580
  717TMC3    C710643   4.720   2.715   9.760
  717TMC3    C810644   4.509   3.072   9.516
  717TMC3    O110645   4.769   2.686   9.864
  717TMC3    O210646   4.461   3.184   9.532
  718MPD2     C10647   4.222   2.240  13.248
  718MPD2    C110648   4.111   2.202  13.176
  718MPD2    C210649   4.064   2.077  13.202
  718MPD2    C310650   4.109   2.003  13.310
  718MPD2    C410651   4.225   2.041  13.371
  718MPD2    C510652   4.285   2.158  13.333
  718MPD2     H10653   3.982   2.027  13.151
  718MPD2    H110654   4.270   1.975  13.444
  718MPD2    H210655   4.283   2.327  13.230
  718MPD2    H310656   4.378   2.192  13.378
  718MPD2     N10657   4.048   1.877  13.321
  718MPD2    H510658   3.972   1.865  13.255
  718MPD2    N110659   4.058   2.290  13.074
  718MPD2    H710660   4.110   2.377  13.062
  719TMC3    C110661   3.980   2.298  12.855
  719TMC3    C210662   3.951   2.185  12.776
  719TMC3    C310663   4.058   2.128  12.722
  719TMC3    C410664   4.098   2.359  12.844
  719TMC3    C510665   4.201   2.299  12.782
  719TMC3    C610666   4.187   2.175  12.732
  719TMC3     C10667   3.950   2.266  12.994
  719TMC3     O10668   3.867   2.185  13.024
  719TMC3     H10669   3.849   2.150  12.766
  719TMC3    H110670   4.100   2.463  12.874
  719TMC3    H210671   4.271   2.125  12.686
  719TMC3    C710672   4.313   2.377  12.742
  719TMC3    C810673   4.039   1.979  12.710
  719TMC3    O110674   4.371   2.338  12.645
  719TMC3    O210675   4.132   1.909  12.735
  720MPD2     C10676   2.305   3.583  14.465
  720MPD2    C110677   2.406   3.577  14.367
  720MPD2    C210678   2.529   3.530  14.403
  720MPD2    C310679   2.559   3.505  14.535
  720MPD2    C410680   2.463   3.525  14.632
  720MPD2    C510681   2.334   3.558  14.592
  720MPD2     H10682   2.608   3.509  14.332
  720MPD2    H110683   2.481   3.513  14.738
  720MPD2    H210684   2.204   3.613  14.439
  720MPD2    H310685   2.260   3.563  14.671
  720MPD2     N10686   2.693   3.477  14.566
  720MPD2    H510687   2.762   3.484  14.492
  720MPD2    N110688   2.382   3.606  14.224
  720MPD2    H710689   2.448   3.579  14.152
  721TMC3    C110690   2.883   3.456  14.696
  721TMC3    C210691   2.939   3.494  14.816
  721TMC3    C310692   3.063   3.542  14.827
  721TMC3    C410693   2.957   3.461  14.580
  721TMC3    C510694   3.091   3.495  14.593
  721TMC3    C610695   3.140   3.528  14.715
  721TMC3     C10696   2.741   3.440  14.693
  721TMC3     O10697   2.682   3.413  14.795
  721TMC3     H10698   2.882   3.491  14.908
  721TMC3    H110699   2.930   3.436  14.478
  721TMC3    H210700   3.248   3.541  14.719
  721TMC3    C710701   3.200   3.460  14.502
  721TMC3    C810702   3.139   3.547  14.950
  721TMC3    O110703   3.229   3.531  14.410
  721TMC3    O210704   3.251   3.495  14.940
  722MPD2     C10705   1.274   2.261  13.310
  722MPD2    C110706   1.248   2.392  13.355
  722MPD2    C210707   1.125   2.458  13.339
  722MPD2    C310708   1.021   2.387  13.289
  722MPD2    C410709   1.042   2.254  13.244
  722MPD2    C510710   1.166   2.193  13.254
  722MPD2     H10711   1.109   2.559  13.375
  722MPD2    H110712   0.960   2.196  13.204
  722MPD2    H210713   1.371   2.213  13.307
  722MPD2    H310714   1.168   2.094  13.210
  722MPD2     N10715   0.891   2.442  13.302
  722MPD2    H510716   0.879   2.535  13.340
  722MPD2    N110717   1.360   2.469  13.404
  722MPD2    H710718   1.343   2.568  13.418
  723TMC3    C110719   0.650   2.423  13.307
  723TMC3    C210720   0.556   2.323  13.310
  723TMC3    C310721   0.426   2.361  13.297
  723TMC3    C410722   0.620   2.557  13.283
  723TMC3    C510723   0.484   2.583  13.268
  723TMC3    C610724   0.394   2.490  13.280
  723TMC3     C10725   0.777   2.375  13.257
  723TMC3     O10726   0.764   2.280  13.181
  723TMC3     H10727   0.580   2.217  13.315
  723TMC3    H110728   0.696   2.632  13.263
  723TMC3    H210729   0.286   2.502  13.273
  723TMC3    C710730   0.449   2.726  13.257
  723TMC3    C810731   0.324   2.259  13.330
  723TMC3    O110732   0.361   2.764  13.181
  723TMC3    O210733   0.221   2.299  13.386
  724TMC3    C110734   1.626   0.252  10.494
  724TMC3    C210735   1.557   0.250  10.376
  724TMC3    C310736   1.611   0.306  10.270
  724TMC3    C410737   1.748   0.322  10.510
  724TMC3    C510738   1.812   0.358  10.393
  724TMC3    C610739   1.737   0.360  10.280
  724TMC3     C10740   1.587   0.156  10.595
  724TMC3     O10741   1.598   0.187  10.713
  724TMC3     H10742   1.454   0.216  10.368
  724TMC3    H110743   1.804   0.306  10.602
  724TMC3    H210744   1.790   0.394  10.192
  724TMC3    C710745   1.896   0.480  10.393
  724TMC3    C810746   1.523   0.396  10.202
  724TMC3    O110747   1.944   0.514  10.287
  724TMC3    O210748   1.406   0.363  10.172
  725TMC3    C110749   3.219   4.037  13.198
  725TMC3    C210750   3.152   4.070  13.084
  725TMC3    C310751   3.034   4.002  13.050
  725TMC3    C410752   3.169   3.947  13.293
  725TMC3    C510753   3.052   3.895  13.259
  725TMC3    C610754   2.987   3.912  13.139
  725TMC3     C10755   3.358   4.068  13.194
  725TMC3     O10756   3.396   4.178  13.154
  725TMC3     H10757   3.204   4.131  13.011
  725TMC3    H110758   3.214   3.935  13.391
  725TMC3    H210759   2.889   3.868  13.123
  725TMC3    C710760   2.989   3.790  13.338
  725TMC3    C810761   2.983   3.986  12.919
  725TMC3    O110762   2.869   3.784  13.344
  725TMC3    O210763   2.931   3.882  12.891
  726MPD2     C10764   1.018   0.981  10.600
  726MPD2    C110765   1.005   1.032  10.725
  726MPD2    C210766   0.950   0.955  10.825
  726MPD2    C310767   0.888   0.830  10.797
  726MPD2    C410768   0.887   0.788  10.670
  726MPD2    C510769   0.949   0.863  10.572
  726MPD2     H10770   0.962   0.989  10.927
  726MPD2    H110771   0.835   0.698  10.640
  726MPD2    H210772   1.058   1.030  10.512
  726MPD2    H310773   0.950   0.820  10.473
  726MPD2     N10774   0.821   0.746  10.892
  726MPD2    H510775   0.775   0.660  10.862
  726MPD2    N110776   1.050   1.163  10.759
  726MPD2    H710777   1.069   1.189  10.855
  727TMC3    C110778   1.116   1.387  10.707
  727TMC3    C210779   1.225   1.388  10.794
  727TMC3    C310780   1.293   1.508  10.816
  727TMC3    C410781   1.092   1.494  10.627
  727TMC3    C510782   1.160   1.608  10.646
  727TMC3    C610783   1.260   1.621  10.745
  727TMC3     C10784   1.056   1.263  10.663
  727TMC3     O10785   1.005   1.268  10.554
  727TMC3     H10786   1.257   1.295  10.841
  727TMC3    H110787   1.023   1.492  10.543
  727TMC3    H210788   1.312   1.715  10.761
  727TMC3    C710789   1.106   1.729  10.587
  727TMC3    C810790   1.371   1.533  10.931
  727TMC3    O110791   0.988   1.717  10.551
  727TMC3    O210792   1.461   1.617  10.921
  728TMC3    C110793   0.458   4.016  15.775
  728TMC3    C210794   0.597   4.037  15.756
  728TMC3    C310795   0.653   4.011  15.635
  728TMC3    C410796   0.381   3.970  15.671
  728TMC3    C510797   0.441   3.960  15.552
  728TMC3    C610798   0.576   3.978  15.528
  728TMC3     C10799   0.420   4.009  15.912
  728TMC3     O10800   0.500   4.041  15.998
  728TMC3     H10801   0.661   4.060  15.840
  728TMC3    H110802   0.273   3.965  15.675
  728TMC3    H210803   0.615   3.972  15.427
  728TMC3    C710804   0.356   3.964  15.433
  728TMC3    C810805   0.794   4.061  15.613
  728TMC3    O110806   0.250   3.904  15.440
  728TMC3    O210807   0.843   4.134  15.696
  729MPD2     C10808   2.889   0.131  16.769
  729MPD2    C110809   2.979   0.160  16.871
  729MPD2    C210810   2.938   0.143  17.005
  729MPD2    C310811   2.811   0.084  17.038
  729MPD2    C410812   2.730   0.052  16.938
  729MPD2    C510813   2.769   0.075  16.806
  729MPD2     H10814   2.998   0.176  17.089
  729MPD2    H110815   2.641   4.775  16.960
  729MPD2    H210816   2.923   0.142  16.667
  729MPD2    H310817   2.708   0.058  16.718
  729MPD2     N10818   2.770   0.071  17.172
  729MPD2    H510819   2.679   0.029  17.189
  729MPD2    N110820   3.079   0.237  16.834
  729MPD2    H710821   3.086   0.236  16.733
  730TMC3    C110822   2.762   0.118  17.408
  730TMC3    C210823   2.844   0.126  17.515
  730TMC3    C310824   2.827   0.229  17.600
  730TMC3    C410825   2.667   0.211  17.392
  730TMC3    C510826   2.632   0.303  17.484
  730TMC3    C610827   2.713   0.308  17.597
  730TMC3     C10828   2.841   0.102  17.288
  730TMC3     O10829   2.959   0.118  17.295
  730TMC3     H10830   2.918   0.048  17.526
  730TMC3    H110831   2.613   0.215  17.298
  730TMC3    H210832   2.691   0.379  17.676
  730TMC3    C710833   2.589   0.434  17.433
  730TMC3    C810834   2.949   0.303  17.643
  730TMC3    O110835   2.601   0.447  17.310
  730TMC3    O210836   3.056   0.245  17.654
  731MPD2     C10837   2.741   3.323  12.744
  731MPD2    C110838   2.818   3.220  12.701
  731MPD2    C210839   2.851   3.118  12.792
  731MPD2    C310840   2.804   3.120  12.927
  731MPD2    C410841   2.726   3.225  12.964
  731MPD2    C510842   2.694   3.329  12.876
  731MPD2     H10843   2.913   3.039  12.750
  731MPD2    H110844   2.672   3.234  13.058
  731MPD2    H210845   2.720   3.411  12.684
  731MPD2    H310846   2.644   3.421  12.904
  731MPD2     N10847   2.839   3.009  13.011
  731MPD2    H510848   2.911   2.942  12.985
  731MPD2    N110849   2.862   3.219  12.568
  731MPD2    H710850   2.843   3.307  12.521
  732TMC3    C110851   2.928   3.157  12.358
  732TMC3    C210852   2.850   3.096  12.268
  732TMC3    C310853   2.831   3.155  12.149
  732TMC3    C410854   2.991   3.282  12.329
  732TMC3    C510855   2.975   3.333  12.204
  732TMC3    C610856   2.895   3.273  12.114
  732TMC3     C10857   2.906   3.116  12.492
  732TMC3     O10858   2.902   2.993  12.517
  732TMC3     H10859   2.791   3.010  12.299
  732TMC3    H110860   3.039   3.341  12.406
  732TMC3    H210861   2.865   3.325  12.023
  732TMC3    C710862   3.027   3.462  12.166
  732TMC3    C810863   2.728   3.109  12.056
  732TMC3    O110864   2.978   3.522  12.068
  732TMC3    O210865   2.749   3.110  11.934
  733TMC3    C110866   3.842   1.509  13.463
  733TMC3    C210867   3.920   1.618  13.491
  733TMC3    C310868   4.001   1.666  13.390
  733TMC3    C410869   3.829   1.463  13.337
  733TMC3    C510870   3.910   1.519  13.234
  733TMC3    C610871   3.996   1.621  13.262
  733TMC3     C10872   3.723   1.521  13.544
  733TMC3     O10873   3.697   1.639  13.572
  733TMC3     H10874   3.929   1.657  13.592
  733TMC3    H110875   3.748   1.399  13.305
  733TMC3    H210876   4.072   1.656  13.193
  733TMC3    C710877   3.866   1.503  13.099
  733TMC3    C810878   4.072   1.786  13.415
  733TMC3    O110879   3.784   1.414  13.076
  733TMC3    O210880   4.115   1.802  13.529
  734MPD2     C10881   0.467   4.241  12.767
  734MPD2    C110882   0.534   4.129  12.748
  734MPD2    C210883   0.658   4.125  12.681
  734MPD2    C310884   0.697   4.248  12.632
  734MPD2    C410885   0.619   4.362  12.646
  734MPD2    C510886   0.499   4.355  12.714
  734MPD2     H10887   0.709   4.039  12.639
  734MPD2    H110888   0.652   4.453  12.597
  734MPD2    H210889   0.368   4.235  12.812
  734MPD2    H310890   0.436   4.443  12.724
  734MPD2     N10891   0.815   4.255  12.557
  734MPD2    H510892   0.868   4.168  12.564
  734MPD2    N110893   0.470   4.018  12.797
  734MPD2    H710894   0.398   4.029  12.868
  735TMC3    C110895   0.425   3.793  12.839
  735TMC3    C210896   0.332   3.784  12.738
  735TMC3    C310897   0.322   3.656  12.668
  735TMC3    C410898   0.506   3.681  12.872
  735TMC3    C510899   0.494   3.556  12.809
  735TMC3    C610900   0.404   3.546  12.705
  735TMC3     C10901   0.524   3.897  12.807
  735TMC3     O10902   0.625   3.851  12.753
  735TMC3     H10903   0.297   3.875  12.692
  735TMC3    H110904   0.581   3.695  12.949
  735TMC3    H210905   0.390   3.457  12.645
  735TMC3    C710906   0.609   3.466  12.806
  735TMC3    C810907   0.316   3.666  12.526
  735TMC3    O110908   0.714   3.524  12.823
  735TMC3    O210909   0.272   3.576  12.462
  736MPD2     C10910   0.643   3.104  12.807
  736MPD2    C110911   0.680   3.234  12.782
  736MPD2    C210912   0.812   3.260  12.748
  736MPD2    C310913   0.899   3.153  12.726
  736MPD2    C410914   0.853   3.025  12.745
  736MPD2    C510915   0.728   3.001  12.788
  736MPD2     H10916   0.849   3.361  12.733
  736MPD2    H110917   0.923   2.944  12.728
  736MPD2    H210918   0.541   3.082  12.835
  736MPD2    H310919   0.696   2.898  12.799
  736MPD2     N10920   1.028   3.156  12.668
  736MPD2    H510921   1.047   3.068  12.620
  736MPD2    N110922   0.581   3.334  12.802
  736MPD2    H710923   0.485   3.303  12.793
  737TMC3    C110924   1.225   3.268  12.582
  737TMC3    C210925   1.301   3.387  12.585
  737TMC3    C310926   1.405   3.387  12.495
  737TMC3    C410927   1.261   3.161  12.501
  737TMC3    C510928   1.357   3.176  12.415
  737TMC3    C610929   1.427   3.290  12.399
  737TMC3     C10930   1.098   3.270  12.644
  737TMC3     O10931   1.068   3.388  12.671
  737TMC3     H10932   1.282   3.464  12.659
  737TMC3    H110933   1.204   3.069  12.499
  737TMC3    H210934   1.515   3.288  12.336
  737TMC3    C710935   1.410   3.055  12.352
  737TMC3    C810936   1.456   3.519  12.462
  737TMC3    O110937   1.389   2.943  12.404
  737TMC3    O210938   1.436   3.609  12.547
  738MPD2     C10939   1.456   2.527  15.232
  738MPD2    C110940   1.567   2.440  15.246
  738MPD2    C210941   1.685   2.478  15.192
  738MPD2    C310942   1.692   2.590  15.110
  738MPD2    C410943   1.570   2.652  15.075
  738MPD2    C510944   1.458   2.630  15.144
  738MPD2     H10945   1.772   2.416  15.209
  738MPD2    H110946   1.575   2.725  14.996
  738MPD2    H210947   1.362   2.505  15.281
  738MPD2    H310948   1.375   2.696  15.121
  738MPD2     N10949   1.808   2.633  15.045
  738MPD2    H510950   1.796   2.704  14.974
  738MPD2    N110951   1.562   2.318  15.315
  738MPD2    H710952   1.651   2.269  15.325
  739TMC3    C110953   2.033   2.637  14.975
  739TMC3    C210954   1.992   2.680  14.854
  739TMC3    C310955   2.084   2.736  14.766
  739TMC3    C410956   2.164   2.639  15.014
  739TMC3    C510957   2.254   2.703  14.927
  739TMC3    C610958   2.214   2.744  14.801
  739TMC3     C10959   1.938   2.584  15.073
  739TMC3     O10960   1.981   2.521  15.168
  739TMC3     H10961   1.891   2.665  14.816
  739TMC3    H110962   2.200   2.609  15.112
  739TMC3    H210963   2.284   2.797  14.738
  739TMC3    C710964   2.389   2.732  14.972
  739TMC3    C810965   2.024   2.787  14.645
  739TMC3    O110966   2.422   2.671  15.076
  739TMC3    O210967   1.902   2.772  14.631
  740TMC3    C110968   2.467   3.830  14.760
  740TMC3    C210969   2.512   3.779  14.876
  740TMC3    C310970   2.640   3.743  14.873
  740TMC3    C410971   2.545   3.857  14.651
  740TMC3    C510972   2.679   3.830  14.655
  740TMC3    C610973   2.728   3.764  14.763
  740TMC3     C10974   2.333   3.889  14.756
  740TMC3     O10975   2.314   3.984  14.675
  740TMC3     H10976   2.455   3.775  14.968
  740TMC3    H110977   2.507   3.891  14.556
  740TMC3    H210978   2.828   3.723  14.772
  740TMC3    C710979   2.748   3.807  14.530
  740TMC3    C810980   2.699   3.687  14.993
  740TMC3    O110981   2.856   3.756  14.547
  740TMC3    O210982   2.819   3.700  15.008
  741TMC3    C110983   1.876   3.319  14.267
  741TMC3    C210984   1.755   3.251  14.298
  741TMC3    C310985   1.759   3.160  14.395
  741TMC3    C410986   1.982   3.313  14.359
  741TMC3    C510987   1.977   3.222  14.459
  741TMC3    C610988   1.870   3.138  14.477
  741TMC3     C10989   1.881   3.436  14.181
  741TMC3     O10990   1.984   3.504  14.180
  741TMC3     H10991   1.668   3.255  14.234
  741TMC3    H110992   2.070   3.374  14.343
  741TMC3    H210993   1.864   3.063  14.554
  741TMC3    C710994   2.089   3.226  14.547
  741TMC3    C810995   1.631   3.086  14.418
  741TMC3    O110996   2.197   3.268  14.503
  741TMC3    O210997   1.526   3.134  14.366
  742TMC3    C110998   2.101   1.734  15.684
  742TMC3    C210999   2.012   1.704  15.584
  742TMC3    C311000   2.056   1.705  15.455
  742TMC3    C411001   2.229   1.766  15.670
  742TMC3    C511002   2.274   1.754  15.540
  742TMC3    C611003   2.189   1.728  15.435
  742TMC3     C11004   2.055   1.716  15.824
  742TMC3     O11005   2.134   1.768  15.906
  742TMC3     H11006   1.908   1.707  15.615
  742TMC3    H111007   2.301   1.771  15.751
  742TMC3    H211008   2.225   1.731  15.333
  742TMC3    C711009   2.395   1.686  15.522
  742TMC3    C811010   1.977   1.659  15.342
  742TMC3    O111011   2.389   1.604  15.429
  742TMC3    O211012   2.031   1.683  15.233
  743MPD2     C11013   3.900   2.529  19.464
  743MPD2    C111014   3.918   2.661  19.431
  743MPD2    C211015   4.037   2.729  19.469
  743MPD2    C311016   4.137   2.660  19.533
  743MPD2    C411017   4.116   2.528  19.568
  743MPD2    C511018   4.000   2.464  19.531
  743MPD2     H11019   4.066   2.826  19.430
  743MPD2    H111020   4.191   2.475  19.625
  743MPD2    H211021   3.805   2.483  19.441
  743MPD2    H311022   3.985   2.370  19.582
  743MPD2     N11023   4.252   2.729  19.570
  743MPD2    H511024   4.259   2.829  19.552
  743MPD2    N111025   3.817   2.726  19.352
  743MPD2    H711026   3.747   2.659  19.323
  744TMC3    C111027   3.730   2.884  19.201
  744TMC3    C211028   3.727   3.018  19.162
  744TMC3    C311029   3.696   3.048  19.034
  744TMC3    C411030   3.718   2.789  19.104
  744TMC3    C511031   3.690   2.821  18.972
  744TMC3    C611032   3.679   2.950  18.937
  744TMC3     C11033   3.814   2.861  19.319
  744TMC3     O11034   3.867   2.954  19.363
  744TMC3     H11035   3.770   3.096  19.224
  744TMC3    H111036   3.730   2.684  19.127
  744TMC3    H211037   3.655   2.981  18.836
  744TMC3    C711038   3.780   2.741  18.884
  744TMC3    C811039   3.753   3.172  18.975
  744TMC3    O111040   3.858   2.805  18.811
  744TMC3    O211041   3.791   3.173  18.858
  745TMC3    C111042   2.293   1.099  13.810
  745TMC3    C211043   2.159   1.071  13.803
  745TMC3    C311044   2.092   1.072  13.679
  745TMC3    C411045   2.367   1.111  13.689
  745TMC3    C511046   2.302   1.089  13.570
  745TMC3    C611047   2.166   1.078  13.559
  745TMC3     C11048   2.303   1.225  13.890
  745TMC3     O11049   2.203   1.248  13.961
  745TMC3     H11050   2.100   1.054  13.893
  745TMC3    H111051   2.475   1.103  13.697
  745TMC3    H211052   2.118   1.091  13.463
  745TMC3    C711053   2.357   1.158  13.456
  745TMC3    C811054   1.960   1.128  13.678
  745TMC3    O111055   2.303   1.154  13.342
  745TMC3    O211056   1.899   1.137  13.571
  746TMC3    C111057   0.092   3.302  11.183
  746TMC3    C211058   0.138   3.310  11.048
  746TMC3    C311059   0.059   3.247  10.951
  746TMC3    C411060   4.756   3.244  11.213
  746TMC3    C511061   4.674   3.203  11.111
  746TMC3    C611062   4.718   3.205  10.976
  746TMC3     C11063   0.104   3.425  11.255
  746TMC3     O11064   4.778   3.463  11.304
  746TMC3     H11065   0.219   3.375  11.015
  746TMC3    H111066   4.726   3.238  11.317
  746TMC3    H211067   4.657   3.178  10.891
  746TMC3    C711068   4.530   3.217  11.135
  746TMC3    C811069   0.094   3.303  10.815
  746TMC3    O111070   4.459   3.189  11.041
  746TMC3    O211071   0.205   3.267  10.771
  747TMC3    C111072   2.131   3.115  11.586
  747TMC3    C211073   2.023   3.045  11.626
  747TMC3    C311074   1.974   3.074  11.754
  747TMC3    C411075   2.199   3.198  11.669
  747TMC3    C511076   2.156   3.216  11.793
  747TMC3    C611077   2.037   3.161  11.840
  747TMC3     C11078   2.136   3.163  11.454
  747TMC3     O11079   2.164   3.282  11.435
  747TMC3     H11080   1.978   2.976  11.555
  747TMC3    H111081   2.297   3.227  11.634
  747TMC3    H211082   2.016   3.164  11.946
  747TMC3    C711083   2.238   3.286  11.893
  747TMC3    C811084   1.877   2.980  11.808
  747TMC3    O111085   2.190   3.312  11.998
  747TMC3    O211086   1.855   2.878  11.746
  748MPD2     C11087   3.371   4.291  19.439
  748MPD2    C111088   3.430   4.173  19.432
  748MPD2    C211089   3.566   4.150  19.450
  748MPD2    C311090   3.644   4.259  19.489
  748MPD2    C411091   3.580   4.390  19.485
  748MPD2    C511092   3.445   4.400  19.470
  748MPD2     H11093   3.606   4.049  19.450
  748MPD2    H111094   3.630   4.481  19.516
  748MPD2    H211095   3.273   4.309  19.396
  748MPD2    H311096   3.405   4.500  19.459
  748MPD2     N11097   3.780   4.237  19.510
  748MPD2    H511098   3.812   4.143  19.532
  748MPD2    N111099   3.343   4.075  19.389
  748MPD2    H711100   3.259   4.104  19.340
  749TMC3    C111101   4.013   4.279  19.529
  749TMC3    C211102   4.026   4.155  19.592
  749TMC3    C311103   4.138   4.088  19.567
  749TMC3    C411104   4.113   4.333  19.453
  749TMC3    C511105   4.217   4.248  19.426
  749TMC3    C611106   4.233   4.124  19.474
  749TMC3     C11107   3.878   4.333  19.517
  749TMC3     O11108   3.867   4.447  19.493
  749TMC3     H11109   3.955   4.118  19.665
  749TMC3    H111110   4.090   4.419  19.391
  749TMC3    H211111   4.328   4.071  19.475
  749TMC3    C711112   4.298   4.292  19.315
  749TMC3    C811113   4.155   3.970  19.653
  749TMC3    O111114   4.295   4.413  19.291
  749TMC3    O211115   4.093   3.982  19.753
  750MPD2     C11116   4.693   0.537  11.949
  750MPD2    C111117   4.567   0.494  11.922
  750MPD2    C211118   4.543   0.395  11.827
  750MPD2    C311119   4.648   0.335  11.764
  750MPD2    C411120   4.772   0.362  11.804
  750MPD2    C511121   0.014   0.462  11.899
  750MPD2     H11122   4.444   0.359  11.803
  750MPD2    H111123   0.075   0.307  11.763
  750MPD2    H211124   4.730   0.613  12.017
  750MPD2    H311125   0.116   0.493  11.919
  750MPD2     N11126   4.627   0.221  11.682
  750MPD2    H511127   4.705   0.157  11.675
  750MPD2    N111128   4.458   0.556  11.992
  750MPD2    H711129   4.481   0.610  12.075
  751TMC3    C111130   4.520   0.052  11.586
  751TMC3    C211131   4.407   4.760  11.632
  751TMC3    C311132   4.419   4.625  11.643
  751TMC3    C411133   4.618   4.768  11.521
  751TMC3    C511134   4.613   4.631  11.514
  751TMC3    C611135   4.518   4.556  11.576
  751TMC3     C11136   4.520   0.192  11.608
  751TMC3     O11137   4.412   0.254  11.592
  751TMC3     H11138   4.322   0.028  11.679
  751TMC3    H111139   4.702   0.045  11.482
  751TMC3    H211140   4.517   4.448  11.580
  751TMC3    C711141   4.684   4.575  11.405
  751TMC3    C811142   4.296   4.554  11.676
  751TMC3    O111143   0.013   4.627  11.387
  751TMC3    O211144   4.290   4.439  11.633
  752TMC3    C111145   3.571   0.531  17.769
  752TMC3    C211146   3.601   0.396  17.751
  752TMC3    C311147   3.577   0.314  17.855
  752TMC3    C411148   3.509   0.586  17.872
  752TMC3    C511149   3.465   0.497  17.966
  752TMC3    C611150   3.502   0.362  17.964
  752TMC3     C11151   3.627   0.626  17.670
  752TMC3     O11152   3.633   0.740  17.708
  752TMC3     H11153   3.674   0.365  17.678
  752TMC3    H111154   3.466   0.685  17.879
  752TMC3    H211155   3.490   0.298  18.051
  752TMC3    C711156   3.391   0.550  18.076
  752TMC3    C811157   3.589   0.170  17.830
  752TMC3    O111158   3.429   0.663  18.102
  752TMC3    O211159   3.684   0.147  17.762
  753TMC3    C111160   0.588   1.245  13.872
  753TMC3    C211161   0.707   1.206  13.922
  753TMC3    C311162   0.725   1.076  13.963
  753TMC3    C411163   0.502   1.146  13.829
  753TMC3    C511164   0.540   1.013  13.840
  753TMC3    C611165   0.651   0.972  13.909
  753TMC3     C11166   0.577   1.371  13.798
  753TMC3     O11167   0.468   1.419  13.776
  753TMC3     H11168   0.775   1.282  13.960
  753TMC3    H111169   0.417   1.163  13.764
  753TMC3    H211170   0.667   0.868  13.934
  753TMC3    C711171   0.461   0.919  13.761
  753TMC3    C811172   0.834   1.036  14.060
  753TMC3    O111173   0.396   0.960  13.666
  753TMC3    O211174   0.889   0.929  14.041
  754MPD2     C11175   4.649   4.749  13.602
  754MPD2    C111176   4.598   4.621  13.604
  754MPD2    C211177   4.464   4.602  13.580
  754MPD2    C311178   4.375   4.710  13.593
  754MPD2    C411179   4.429   0.058  13.600
  754MPD2    C511180   4.558   0.075  13.603
  754MPD2     H11181   4.433   4.502  13.551
  754MPD2    H111182   4.366   0.146  13.593
  754MPD2    H211183   4.755   4.769  13.607
  754MPD2    H311184   4.616   0.165  13.619
  754MPD2     N11185   4.235   4.695  13.573
  754MPD2    H511186   4.185   0.003  13.580
  754MPD2    N111187   4.691   4.513  13.613
  754MPD2    H711188   0.007   4.543  13.612
  755MPD2     C11189   3.730   0.565  13.699
  755MPD2    C111190   3.670   0.458  13.764
  755MPD2    C211191   3.688   0.332  13.715
  755MPD2    C311192   3.783   0.303  13.613
  755MPD2    C411193   3.842   0.412  13.555
  755MPD2    C511194   3.821   0.538  13.602
  755MPD2     H11195   3.649   0.253  13.778
  755MPD2    H111196   3.921   0.393  13.483
  755MPD2    H211197   3.712   0.665  13.737
  755MPD2    H311198   3.884   0.616  13.559
  755MPD2     N11199   3.819   0.183  13.561
  755MPD2    H511200   3.896   0.170  13.497
  755MPD2    N111201   3.603   0.463  13.886
  755MPD2    H711202   3.590   0.377  13.939
  756MPD2     C11203   4.222   1.250  10.068
  756MPD2    C111204   4.146   1.138  10.103
  756MPD2    C211205   4.054   1.085  10.007
  756MPD2    C311206   4.036   1.141   9.882
  756MPD2    C411207   4.110   1.249   9.855
  756MPD2    C511208   4.192   1.313   9.949
  756MPD2     H11209   4.004   0.995  10.042
  756MPD2    H111210   4.100   1.304   9.762
  756MPD2    H211211   4.290   1.300  10.136
  756MPD2    H311212   4.250   1.400   9.921
  756MPD2     N11213   3.945   1.078   9.793
  756MPD2    H511214   3.906   0.988   9.819
  756MPD2    N111215   4.147   1.081  10.237
  756MPD2    H711216   4.079   1.009  10.257
  757MPD2     C11217   3.208   0.610   9.902
  757MPD2    C111218   3.330   0.564   9.890
  757MPD2    C211219   3.429   0.641   9.828
  757MPD2    C311220   3.402   0.768   9.786
  757MPD2    C411221   3.268   0.808   9.791
  757MPD2    C511222   3.176   0.742   9.866
  757MPD2     H11223   3.533   0.611   9.825
  757MPD2    H111224   3.229   0.900   9.748
  757MPD2    H211225   3.129   0.553   9.951
  757MPD2    H311226   3.073   0.775   9.875
  757MPD2     N11227   3.506   0.840   9.724
  757MPD2    H511228   3.600   0.802   9.723
  757MPD2    N111229   3.349   0.426   9.924
  757MPD2    H711230   3.267   0.376   9.955
  758MPD2     C11231   4.155   4.483  16.244
  758MPD2    C111232   4.252   4.414  16.313
  758MPD2    C211233   4.260   4.440  16.444
  758MPD2    C311234   4.175   4.528  16.511
  758MPD2    C411235   4.076   4.590  16.442
  758MPD2    C511236   4.075   4.574  16.308
  758MPD2     H11237   4.336   4.388  16.502
  758MPD2    H111238   4.018   4.668  16.490
  758MPD2    H211239   4.157   4.488  16.136
  758MPD2    H311240   4.011   4.643  16.255
  758MPD2     N11241   4.190   4.578  16.647
  758MPD2    H511242   4.120   4.642  16.681
  758MPD2    N111243   4.357   4.339  16.243
  758MPD2    H711244   4.366   4.358  16.144
  759MPD2     C11245   3.063   2.716  10.288
  759MPD2    C111246   3.062   2.806  10.395
  759MPD2    C211247   3.136   2.924  10.384
  759MPD2    C311248   3.202   2.962  10.270
  759MPD2    C411249   3.209   2.876  10.165
  759MPD2    C511250   3.138   2.755  10.177
  759MPD2     H11251   3.127   2.986  10.472
  759MPD2    H111252   3.251   2.894  10.067
  759MPD2    H211253   3.004   2.625  10.280
  759MPD2    H311254   3.136   2.685  10.095
  759MPD2     N11255   3.253   3.090  10.270
  759MPD2    H511256   3.258   3.135  10.361
  759MPD2    N111257   3.004   2.780  10.519
  759MPD2    H711258   3.012   2.859  10.582
  760MPD2     C11259   2.514   0.273  12.134
  760MPD2    C111260   2.612   0.326  12.215
  760MPD2    C211261   2.709   0.251  12.272
  760MPD2    C311262   2.717   0.119  12.247
  760MPD2    C411263   2.620   0.057  12.176
  760MPD2    C511264   2.522   0.133  12.118
  760MPD2     H11265   2.790   0.293  12.331
  760MPD2    H111266   2.629   4.731  12.160
  760MPD2    H211267   2.431   0.326  12.088
  760MPD2    H311268   2.441   0.089  12.061
  760MPD2     N11269   2.825   0.037  12.294
  760MPD2    H511270   2.809   4.718  12.281
  760MPD2    N111271   2.620   0.468  12.246
  760MPD2    H711272   2.657   0.493  12.337
  761MPD2     C11273   3.817   4.566  11.852
  761MPD2    C111274   3.873   4.489  11.751
  761MPD2    C211275   4.008   4.507  11.725
  761MPD2    C311276   4.083   4.591  11.795
  761MPD2    C411277   4.031   4.661  11.906
  761MPD2    C511278   3.897   4.646  11.927
  761MPD2     H11279   4.050   4.463  11.636
  761MPD2    H111280   4.091   4.726  11.969
  761MPD2    H211281   3.713   4.552  11.881
  761MPD2    H311282   3.856   4.700  12.012
  761MPD2     N11283   4.214   4.623  11.766
  761MPD2    H511284   4.254   4.706  11.810
  761MPD2    N111285   3.789   4.402  11.675
  761MPD2    H711286   3.689   4.412  11.689
  762MPD2     C11287   4.236   3.809  11.469
  762MPD2    C111288   4.176   3.901  11.388
  762MPD2    C211289   4.254   3.956  11.290
  762MPD2    C311290   4.388   3.921  11.269
  762MPD2    C411291   4.443   3.827  11.350
  762MPD2    C511292   4.369   3.776  11.451
  762MPD2     H11293   4.217   4.034  11.225
  762MPD2    H111294   4.548   3.801  11.361
  762MPD2    H211295   4.200   3.774  11.565
  762MPD2    H311296   4.411   3.711  11.527
  762MPD2     N11297   4.471   3.985  11.167
  762MPD2    H511298   4.422   4.027  11.088
  762MPD2    N111299   4.040   3.922  11.420
  762MPD2    H711300   4.018   3.905  11.518
  763MPD2     C11301   1.617   4.467  16.436
  763MPD2    C111302   1.498   4.531  16.398
  763MPD2    C211303   1.478   4.660  16.445
  763MPD2    C311304   1.585   4.728  16.502
  763MPD2    C411305   1.702   4.668  16.531
  763MPD2    C511306   1.715   4.535  16.500
  763MPD2     H11307   1.386   4.715  16.429
  763MPD2    H111308   1.788   4.721  16.570
  763MPD2    H211309   1.638   4.364  16.410
  763MPD2    H311310   1.815   4.493  16.503
  763MPD2     N11311   1.575   0.086  16.534
  763MPD2    H511312   1.659   0.143  16.531
  763MPD2    N111313   1.399   4.469  16.319
  763MPD2    H711314   1.334   4.531  16.271
  764MPD2     C11315   4.134   1.701  17.787
  764MPD2    C111316   4.090   1.585  17.731
  764MPD2    C211317   4.074   1.476  17.821
  764MPD2    C311318   4.089   1.499  17.958
  764MPD2    C411319   4.131   1.615  18.008
  764MPD2    C511320   4.160   1.715  17.922
  764MPD2     H11321   4.028   1.385  17.785
  764MPD2    H111322   4.157   1.635  18.111
  764MPD2    H211323   4.154   1.793  17.733
  764MPD2    H311324   4.211   1.802  17.961
  764MPD2     N11325   4.053   1.388  18.039
  764MPD2    H511326   4.009   1.307  17.996
  764MPD2    N111327   4.066   1.569  17.593
  764MPD2    H711328   4.039   1.477  17.561
  765MPD2     C11329   3.767   3.829  16.015
  765MPD2    C111330   3.846   3.900  16.103
  765MPD2    C211331   3.978   3.864  16.133
  765MPD2    C311332   4.024   3.744  16.080
  765MPD2    C411333   3.947   3.669  15.993
  765MPD2    C511334   3.819   3.714  15.964
  765MPD2     H11335   4.045   3.919  16.198
  765MPD2    H111336   3.981   3.576  15.948
  765MPD2    H211337   3.666   3.856  15.985
  765MPD2    H311338   3.775   3.661  15.880
  765MPD2     N11339   4.149   3.707  16.126
  765MPD2    H511340   4.203   3.773  16.181
  765MPD2    N111341   3.785   4.019  16.153
  765MPD2    H711342   3.684   4.024  16.156
  766MPD2     C11343   3.136   4.177  15.925
  766MPD2    C111344   3.274   4.145  15.951
  766MPD2    C211345   3.342   4.072  15.852
  766MPD2    C311346   3.282   4.027  15.736
  766MPD2    C411347   3.148   4.051  15.718
  766MPD2    C511348   3.080   4.123  15.806
  766MPD2     H11349   3.450   4.062  15.854
  766MPD2    H111350   3.090   4.023  15.630
  766MPD2    H211351   3.073   4.224  16.000
  766MPD2    H311352   2.978   4.156  15.788
  766MPD2     N11353   3.345   3.951  15.630
  766MPD2    H511354   3.298   3.945  15.540
  766MPD2    N111355   3.341   4.214  16.059
  766MPD2    H711356   3.289   4.296  16.088
  767MPD2     C11357   3.010   4.222  15.438
  767MPD2    C111358   3.138   4.206  15.403
  767MPD2    C211359   3.167   4.129  15.292
  767MPD2    C311360   3.065   4.074  15.222
  767MPD2    C411361   2.936   4.094  15.257
  767MPD2    C511362   2.911   4.161  15.372
  767MPD2     H11363   3.270   4.113  15.261
  767MPD2    H111364   2.850   4.056  15.202
  767MPD2    H211365   2.998   4.270  15.534
  767MPD2    H311366   2.808   4.182  15.397
  767MPD2     N11367   3.104   4.003  15.096
  767MPD2    H511368   3.196   3.961  15.089
  767MPD2    N111369   3.239   4.262  15.484
  767MPD2    H711370   3.206   4.319  15.561
  768MPD2     C11371   4.201   3.015  10.804
  768MPD2    C111372   4.137   2.973  10.912
  768MPD2    C211373   4.213   2.917  11.018
  768MPD2    C311374   4.345   2.876  10.995
  768MPD2    C411375   4.412   2.914  10.882
  768MPD2    C511376   4.341   2.989  10.791
  768MPD2     H11377   4.172   2.889  11.114
  768MPD2    H111378   4.512   2.881  10.858
  768MPD2    H211379   4.151   3.065  10.722
  768MPD2    H311380   4.395   3.016  10.701
  768MPD2     N11381   4.431   2.838  11.104
  768MPD2    H511382   4.532   2.837  11.091
  768MPD2    N111383   3.996   3.000  10.930
  768MPD2    H711384   3.960   2.973  11.021
  769MPD2     C11385   0.544   0.515  15.091
  769MPD2    C111386   0.477   0.536  15.206
  769MPD2    C211387   0.540   0.590  15.316
  769MPD2    C311388   0.670   0.638  15.303
  769MPD2    C411389   0.738   0.624  15.185
  769MPD2    C511390   0.673   0.563  15.075
  769MPD2     H11391   0.502   0.601  15.417
  769MPD2    H111392   0.844   0.642  15.173
  769MPD2    H211393   0.490   0.470  15.008
  769MPD2    H311394   0.725   0.535  14.984
  769MPD2     N11395   0.737   0.667  15.423
  769MPD2    H511396   0.676   0.687  15.501
  769MPD2    N111397   0.341   0.492  15.204
  769MPD2    H711398   0.299   0.452  15.120
  770MPD2     C11399   4.384   4.607  15.566
  770MPD2    C111400   4.461   4.597  15.451
  770MPD2    C211401   4.545   4.698  15.417
  770MPD2    C311402   4.557   0.027  15.492
  770MPD2    C411403   4.491   0.031  15.616
  770MPD2    C511404   4.400   4.714  15.650
  770MPD2     H11405   4.591   4.710  15.319
  770MPD2    H111406   4.498   0.111  15.689
  770MPD2    H211407   4.312   4.529  15.585
  770MPD2    H311408   4.341   4.719  15.741
  770MPD2     N11409   4.626   0.137  15.430
  770MPD2    H511410   4.634   0.120  15.330
  770MPD2    N111411   4.439   4.475  15.386
  770MPD2    H711412   4.370   4.411  15.425
  771MPD2     C11413   1.268   3.422  14.238
  771MPD2    C111414   1.218   3.540  14.189
  771MPD2    C211415   1.091   3.535  14.123
  771MPD2    C311416   1.020   3.418  14.108
  771MPD2    C411417   1.074   3.303  14.161
  771MPD2    C511418   1.198   3.310  14.218
  771MPD2     H11419   1.049   3.633  14.101
  771MPD2    H111420   1.026   3.206  14.163
  771MPD2    H211421   1.362   3.399  14.287
  771MPD2    H311422   1.243   3.224  14.267
  771MPD2     N11423   0.898   3.424  14.044
  771MPD2    H511424   0.857   3.513  14.016
  771MPD2    N111425   1.277   3.666  14.198
  771MPD2    H711426   1.230   3.743  14.152
  772MPD2     C11427   0.931   4.158  14.026
  772MPD2    C111428   0.952   4.095  14.150
  772MPD2    C211429   0.847   4.038  14.208
  772MPD2    C311430   0.716   4.056  14.163
  772MPD2    C411431   0.701   4.130  14.039
  772MPD2    C511432   0.806   4.181  13.972
  772MPD2     H11433   0.869   3.971  14.290
  772MPD2    H111434   0.601   4.150  14.002
  772MPD2    H211435   1.012   4.186  13.960
  772MPD2    H311436   0.794   4.241  13.882
  772MPD2     N11437   0.598   4.006  14.213
  772MPD2    H511438   0.516   4.062  14.189
  772MPD2    N111439   1.086   4.074  14.193
  772MPD2    H711440   1.087   4.032  14.285
  773MPD2     C11441   0.428   0.173  17.979
  773MPD2    C111442   0.339   0.066  17.965
  773MPD2    C211443   0.338   4.752  18.061
  773MPD2    C311444   0.415   4.753  18.174
  773MPD2    C411445   0.491   0.084  18.197
  773MPD2    C511446   0.496   0.186  18.095
  773MPD2     H11447   0.270   4.669  18.047
  773MPD2    H111448   0.545   0.108  18.288
  773MPD2    H211449   0.453   0.238  17.896
  773MPD2    H311450   0.570   0.265  18.103
  773MPD2     N11451   0.410   4.640  18.260
  773MPD2    H511452   0.331   4.578  18.250
  773MPD2    N111453   0.262   0.053  17.851
  773MPD2    H711454   0.190   4.762  17.855
  774MPD2     C11455   4.060   3.623  13.795
  774MPD2    C111456   4.043   3.723  13.877
  774MPD2    C211457   4.119   3.840  13.864
  774MPD2    C311458   4.206   3.848  13.762
  774MPD2    C411459   4.230   3.734  13.680
  774MPD2    C511460   4.156   3.619  13.700
  774MPD2     H11461   4.113   3.928  13.927
  774MPD2    H111462   4.316   3.727  13.615
  774MPD2    H211463   4.001   3.532  13.799
  774MPD2    H311464   4.173   3.537  13.632
  774MPD2     N11465   4.278   3.964  13.756
  774MPD2    H511466   4.235   4.044  13.801
  774MPD2    N111467   3.968   3.705  13.997
  774MPD2    H711468   3.948   3.611  14.031
  775MPD2     C11469   0.936   0.363  16.020
  775MPD2    C111470   0.906   0.491  16.080
  775MPD2    C211471   1.001   0.590  16.053
  775MPD2    C311472   1.121   0.561  15.978
  775MPD2    C411473   1.140   0.434  15.928
  775MPD2    C511474   1.046   0.337  15.949
  775MPD2     H11475   0.990   0.686  16.101
  775MPD2    H111476   1.224   0.419  15.861
  775MPD2    H211477   0.871   0.278  16.039
  775MPD2    H311478   1.062   0.235  15.916
  775MPD2     N11479   1.210   0.666  15.949
  775MPD2    H511480   1.291   0.643  15.892
  775MPD2    N111481   0.787   0.513  16.149
  775MPD2    H711482   0.734   0.427  16.157
  776MPD2     C11483   4.612   1.045  12.291
  776MPD2    C111484   4.496   1.083  12.236
  776MPD2    C211485   4.469   1.222  12.212
  776MPD2    C311486   4.564   1.309  12.258
  776MPD2    C411487   4.687   1.268  12.317
  776MPD2    C511488   4.711   1.134  12.324
  776MPD2     H11489   4.368   1.255  12.188
  776MPD2    H111490   4.767   1.334  12.347
  776MPD2    H211491   4.633   0.941  12.315
  776MPD2    H311492   0.028   1.106  12.363
  776MPD2     N11493   4.558   1.451  12.240
  776MPD2    H511494   4.646   1.498  12.258
  776MPD2    N111495   4.411   0.979  12.194
  776MPD2    H711496   4.447   0.885  12.209
  777MPD2     C11497   0.119   3.040  18.851
  777MPD2    C111498   4.779   3.024  18.917
  777MPD2    C211499   4.696   2.930  18.857
  777MPD2    C311500   4.726   2.862  18.738
  777MPD2    C411501   0.079   2.872  18.685
  777MPD2    C511502   0.156   2.966  18.744
  777MPD2     H11503   4.597   2.919  18.899
  777MPD2    H111504   0.108   2.821  18.594
  777MPD2    H211505   0.187   3.119  18.881
  777MPD2    H311506   0.256   2.975  18.703
  777MPD2     N11507   4.630   2.774  18.696
  777MPD2    H511508   4.540   2.778  18.743
  777MPD2    N111509   4.748   3.115  19.020
  777MPD2    H711510   0.047   3.172  19.046
  778MPD2     C11511   0.875   3.431  15.356
  778MPD2    C111512   0.912   3.332  15.266
  778MPD2    C211513   0.949   3.366  15.144
  778MPD2    C311514   0.970   3.495  15.108
  778MPD2    C411515   0.923   3.593  15.194
  778MPD2    C511516   0.873   3.560  15.317
  778MPD2     H11517   0.985   3.297  15.068
  778MPD2    H111518   0.924   3.700  15.175
  778MPD2    H211519   0.837   3.406  15.454
  778MPD2    H311520   0.828   3.633  15.382
  778MPD2     N11521   1.035   3.526  14.983
  778MPD2    H511522   1.046   3.443  14.925
  778MPD2    N111523   0.903   3.194  15.296
  778MPD2    H711524   0.906   3.131  15.217
  779MPD2     C11525   0.706   2.149  14.679
  779MPD2    C111526   0.830   2.160  14.615
  779MPD2    C211527   0.861   2.282  14.551
  779MPD2    C311528   0.769   2.390  14.565
  779MPD2    C411529   0.654   2.373  14.636
  779MPD2    C511530   0.619   2.252  14.690
  779MPD2     H11531   0.947   2.280  14.485
  779MPD2    H111532   0.580   2.450  14.655
  779MPD2    H211533   0.685   2.061  14.739
  779MPD2    H311534   0.526   2.243  14.745
  779MPD2     N11535   0.798   2.508  14.499
  779MPD2    H511536   0.863   2.494  14.422
  779MPD2    N111537   0.929   2.057  14.605
  779MPD2    H711538   1.018   2.082  14.564
  780MPD2     C11539   0.240   2.184  18.996
  780MPD2    C111540   0.224   2.132  18.868
  780MPD2    C211541   0.323   2.169  18.780
  780MPD2    C311542   0.422   2.258  18.812
  780MPD2    C411543   0.431   2.313  18.937
  780MPD2    C511544   0.337   2.276  19.024
  780MPD2     H11545   0.321   2.121  18.683
  780MPD2    H111546   0.505   2.387  18.967
  780MPD2    H211547   0.173   2.141  19.070
  780MPD2    H311548   0.335   2.318  19.124
  780MPD2     N11549   0.522   2.279  18.712
  780MPD2    H511550   0.506   2.231  18.624
  780MPD2    N111551   0.124   2.033  18.841
  780MPD2    H711552   0.077   1.987  18.919
  781MPD2     C11553   2.014   4.061  12.305
  781MPD2    C111554   2.110   4.049  12.406
  781MPD2    C211555   2.231   4.112  12.388
  781MPD2    C311556   2.257   4.186  12.276
  781MPD2    C411557   2.162   4.198  12.182
  781MPD2    C511558   2.037   4.142  12.198
  781MPD2     H11559   2.306   4.107  12.466
  781MPD2    H111560   2.186   4.260  12.096
  781MPD2    H211561   1.914   4.021  12.311
  781MPD2    H311562   1.955   4.146  12.127
  781MPD2     N11563   2.384   4.247  12.248
  781MPD2    H511564   2.375   4.312  12.170
  781MPD2    N111565   2.100   3.990  12.529
  781MPD2    H711566   2.180   3.988  12.591
  782MPD2     C11567   0.131   0.323  10.678
  782MPD2    C111568   0.260   0.290  10.677
  782MPD2    C211569   0.344   0.373  10.746
  782MPD2    C311570   0.302   0.485  10.814
  782MPD2    C411571   0.165   0.516  10.814
  782MPD2    C511572   0.081   0.433  10.746
  782MPD2     H11573   0.451   0.361  10.761
  782MPD2    H111574   0.133   0.609  10.859
  782MPD2    H211575   0.067   0.249  10.631
  782MPD2    H311576   4.756   0.458  10.754
  782MPD2     N11577   0.396   0.538  10.900
  782MPD2    H511578   0.493   0.528  10.872
  782MPD2    N111579   0.309   0.156  10.638
  782MPD2    H711580   0.234   0.092  10.614
  783MPD2     C11581   4.572   4.401  11.105
  783MPD2    C111582   4.662   4.464  11.192
  783MPD2    C211583   0.003   4.504  11.132
  783MPD2    C311584   0.032   4.491  11.001
  783MPD2    C411585   4.718   4.431  10.925
  783MPD2    C511586   4.601   4.391  10.975
  783MPD2     H11587   0.076   4.557  11.192
  783MPD2    H111588   4.746   4.395  10.827
  783MPD2    H211589   4.475   4.368  11.140
  783MPD2    H311590   4.534   4.339  10.907
  783MPD2     N11591   0.159   4.545  10.960
  783MPD2    H511592   0.217   4.571  11.039
  783MPD2    N111593   4.617   4.491  11.322
  783MPD2    H711594   4.517   4.475  11.334
  784MPD2     C11595   2.919   0.891  18.604
  784MPD2    C111596   2.922   0.839  18.727
  784MPD2    C211597   2.804   0.832  18.796
  784MPD2    C311598   2.686   0.894  18.755
  784MPD2    C411599   2.684   0.934  18.626
  784MPD2    C511600   2.795   0.932  18.554
  784MPD2     H11601   2.795   0.797  18.898
  784MPD2    H111602   2.596   0.977  18.581
  784MPD2    H211603   3.005   0.895  18.538
  784MPD2    H311604   2.790   0.963  18.450
  784MPD2     N11605   2.572   0.902  18.839
  784MPD2    H511606   2.580   0.841  18.920
  784MPD2    N111607   3.045   0.822  18.800
  784MPD2    H711608   3.039   0.785  18.894
  785MPD2     C11609   2.893   3.338  11.529
  785MPD2    C111610   2.903   3.409  11.416
  785MPD2    C211611   2.831   3.370  11.302
  785MPD2    C311612   2.767   3.244  11.314
  785MPD2    C411613   2.788   3.158  11.423
  785MPD2    C511614   2.848   3.209  11.529
  785MPD2     H11615   2.822   3.428  11.211
  785MPD2    H111616   2.747   3.059  11.437
  785MPD2    H211617   2.934   3.373  11.623
  785MPD2    H311618   2.855   3.153  11.621
  785MPD2     N11619   2.673   3.207  11.214
  785MPD2    H511620   2.685   3.256  11.126
  785MPD2    N111621   2.950   3.546  11.421
  785MPD2    H711622   2.982   3.573  11.513
  786MPD2     C11623   1.561   1.464  15.105
  786MPD2    C111624   1.684   1.499  15.056
  786MPD2    C211625   1.786   1.538  15.149
  786MPD2    C311626   1.761   1.556  15.278
  786MPD2    C411627   1.631   1.520  15.323
  786MPD2    C511628   1.539   1.477  15.237
  786MPD2     H11629   1.887   1.553  15.111
  786MPD2    H111630   1.603   1.529  15.427
  786MPD2    H211631   1.478   1.430  15.044
  786MPD2    H311632   1.440   1.455  15.276
  786MPD2     N11633   1.855   1.606  15.374
  786MPD2    H511634   1.818   1.608  15.469
  786MPD2    N111635   1.722   1.465  14.922
  786MPD2    H711636   1.820   1.469  14.897
  787MPD2     C11637   1.982   0.914  15.038
  787MPD2    C111638   1.958   0.919  14.904
  787MPD2    C211639   2.007   0.807  14.833
  787MPD2    C311640   2.061   0.696  14.896
  787MPD2    C411641   2.061   0.686  15.035
  787MPD2    C511642   2.018   0.798  15.108
  787MPD2     H11643   2.009   0.811  14.725
  787MPD2    H111644   2.086   0.600  15.096
  787MPD2    H211645   1.946   0.999  15.096
  787MPD2    H311646   2.032   0.813  15.214
  787MPD2     N11647   2.088   0.596  14.809
  787MPD2    H511648   2.083   0.617  14.710
  787MPD2    N111649   1.905   1.036  14.837
  787MPD2    H711650   1.875   1.112  14.897
  788MPD2     C11651   3.529   4.728  19.133
  788MPD2    C111652   3.651   4.705  19.074
  788MPD2    C211653   3.721   0.041  19.034
  788MPD2    C311654   3.662   0.169  19.043
  788MPD2    C411655   3.544   0.184  19.107
  788MPD2    C511656   3.481   0.072  19.151
  788MPD2     H11657   3.822   0.023  19.000
  788MPD2    H111658   3.497   0.282  19.111
  788MPD2    H211659   3.456   4.649  19.150
  788MPD2    H311660   3.380   0.079  19.189
  788MPD2     N11661   3.727   0.287  18.991
  788MPD2    H511662   3.688   0.372  19.030
  788MPD2    N111663   3.719   4.578  19.057
  788MPD2    H711664   3.817   4.580  19.032
  789MPD2     C11665   3.910   4.306  16.626
  789MPD2    C111666   3.865   4.187  16.683
  789MPD2    C211667   3.766   4.193  16.776
  789MPD2    C311668   3.709   4.314  16.810
  789MPD2    C411669   3.759   4.426  16.752
  789MPD2    C511670   3.864   4.422  16.660
  789MPD2     H11671   3.732   4.102  16.824
  789MPD2    H111672   3.711   4.522  16.767
  789MPD2    H211673   3.966   4.303  16.533
  789MPD2    H311674   3.898   4.512  16.611
  789MPD2     N11675   3.612   4.327  16.913
  789MPD2    H511676   3.573   4.420  16.923
  789MPD2    N111677   3.904   4.062  16.632
  789MPD2    H711678   3.844   3.982  16.651
  790MPD2     C11679   0.048   1.345  14.058
  790MPD2    C111680   0.086   1.218  14.060
  790MPD2    C211681   0.015   1.123  13.979
  790MPD2    C311682   4.690   1.166  13.896
  790MPD2    C411683   4.657   1.303  13.900
  790MPD2    C511684   4.729   1.387  13.975
  790MPD2     H11685   0.045   1.019  13.968
  790MPD2    H111686   4.579   1.347  13.838
  790MPD2    H211687   0.086   1.414  14.133
  790MPD2    H311688   4.716   1.494  13.962
  790MPD2     N11689   4.629   1.075  13.808
  790MPD2    H511690   4.668   0.982  13.798
  790MPD2    N111691   0.187   1.182  14.149
  790MPD2    H711692   0.216   1.260  14.207
  791MPD2     C11693   4.013   1.108  13.287
  791MPD2    C111694   4.056   0.986  13.334
  791MPD2    C211695   3.966   0.878  13.315
  791MPD2    C311696   3.852   0.895  13.238
  791MPD2    C411697   3.824   1.014  13.174
  791MPD2    C511698   3.913   1.122  13.195
  791MPD2     H11699   3.973   0.794  13.384
  791MPD2    H111700   3.744   1.038  13.105
  791MPD2    H211701   4.075   1.197  13.283
  791MPD2    H311702   3.889   1.222  13.160
  791MPD2     N11703   3.764   0.779  13.231
  791MPD2    H511704   3.812   0.697  13.266
  791MPD2    N111705   4.174   0.975  13.406
  791MPD2    H711706   4.230   1.059  13.398
  792MPD2     C11707   4.597   0.941  11.832
  792MPD2    C111708   4.493   1.032  11.810
  792MPD2    C211709   4.371   0.987  11.763
  792MPD2    C311710   4.349   0.848  11.739
  792MPD2    C411711   4.458   0.767  11.741
  792MPD2    C511712   4.578   0.810  11.793
  792MPD2     H11713   4.286   1.055  11.760
  792MPD2    H111714   4.467   0.662  11.716
  792MPD2    H211715   4.695   0.965  11.871
  792MPD2    H311716   4.662   0.742  11.796
  792MPD2     N11717   4.238   0.785  11.678
  792MPD2    H511718   4.247   0.684  11.680
  792MPD2    N111719   4.523   1.166  11.843
  792MPD2    H711720   4.623   1.181  11.852
  793MPD2     C11721   3.723   0.827  10.840
  793MPD2    C111722   3.842   0.874  10.886
  793MPD2    C211723   3.870   0.879  11.023
  793MPD2    C311724   3.774   0.845  11.115
  793MPD2    C411725   3.649   0.810  11.073
  793MPD2    C511726   3.623   0.801  10.935
  793MPD2     H11727   3.970   0.903  11.057
  793MPD2    H111728   3.564   0.798  11.139
  793MPD2    H211729   3.694   0.812  10.737
  793MPD2    H311730   3.520   0.788  10.904
  793MPD2     N11731   3.817   0.842  11.252
  793MPD2    H511732   3.911   0.873  11.274
  793MPD2    N111733   3.949   0.902  10.802
  793MPD2    H711734   4.037   0.934  10.840
  794MPD2     C11735   4.474   0.530  17.604
  794MPD2    C111736   4.481   0.442  17.495
  794MPD2    C211737   4.384   0.443  17.394
  794MPD2    C311738   4.275   0.525  17.414
  794MPD2    C411739   4.262   0.606  17.532
  794MPD2    C511740   4.365   0.610  17.624
  794MPD2     H11741   4.395   0.379  17.308
  794MPD2    H111742   4.184   0.677  17.557
  794MPD2    H211743   4.550   0.539  17.681
  794MPD2    H311744   4.347   0.662  17.717
  794MPD2     N11745   4.180   0.553  17.313
  794MPD2    H511746   4.114   0.627  17.332
  794MPD2    N111747   4.585   0.348  17.470
  794MPD2    H711748   4.570   0.282  17.394
  795MPD2     C11749   2.118   2.642  13.728
  795MPD2    C111750   2.083   2.531  13.656
  795MPD2    C211751   2.171   2.419  13.660
  795MPD2    C311752   2.288   2.430  13.732
  795MPD2    C411753   2.318   2.543  13.808
  795MPD2    C511754   2.239   2.652  13.797
  795MPD2     H11755   2.138   2.333  13.603
  795MPD2    H111756   2.413   2.558  13.858
  795MPD2    H211757   2.056   2.731  13.732
  795MPD2    H311758   2.275   2.741  13.847
  795MPD2     N11759   2.377   2.315  13.735
  795MPD2    H511760   2.346   2.236  13.679
  795MPD2    N111761   1.963   2.533  13.577
  795MPD2    H711762   1.928   2.445  13.542
  796MPD2     C11763   1.640   3.817  15.956
  796MPD2    C111764   1.671   3.854  16.082
  796MPD2    C211765   1.689   3.990  16.110
  796MPD2    C311766   1.658   4.082  16.009
  796MPD2    C411767   1.637   4.043  15.876
  796MPD2    C511768   1.623   3.905  15.859
  796MPD2     H11769   1.713   4.032  16.207
  796MPD2    H111770   1.632   4.116  15.796
  796MPD2    H211771   1.645   3.713  15.927
  796MPD2    H311772   1.607   3.872  15.757
  796MPD2     N11773   1.674   4.212  16.038
  796MPD2    H511774   1.716   4.225  16.130
  796MPD2    N111775   1.711   3.759  16.177
  796MPD2    H711776   1.711   3.661  16.150
  797MPD2     C11777   2.392   3.691  17.653
  797MPD2    C111778   2.376   3.820  17.691
  797MPD2    C211779   2.300   3.905  17.609
  797MPD2    C311780   2.236   3.859  17.494
  797MPD2    C411781   2.259   3.730  17.460
  797MPD2    C511782   2.333   3.647  17.539
  797MPD2     H11783   2.279   4.003  17.650
  797MPD2    H111784   2.210   3.686  17.374
  797MPD2    H211785   2.454   3.620  17.706
  797MPD2    H311786   2.360   3.547  17.506
  797MPD2     N11787   2.157   3.939  17.414
  797MPD2    H511788   2.133   3.898  17.324
  797MPD2    N111789   2.456   3.887  17.782
  797MPD2    H711790   2.438   3.987  17.790
  798MPD2     C11791   2.264   4.530  17.784
  798MPD2    C111792   2.331   4.466  17.685
  798MPD2    C211793   2.446   4.398  17.705
  798MPD2    C311794   2.485   4.386  17.841
  798MPD2    C411795   2.420   4.456  17.943
  798MPD2    C511796   2.309   4.527  17.911
  798MPD2     H11797   2.491   4.332  17.631
  798MPD2    H111798   2.446   4.465  18.048
  798MPD2    H211799   2.172   4.579  17.756
  798MPD2    H311800   2.261   4.568  17.999
  798MPD2     N11801   2.587   4.305  17.860
  798MPD2    H511802   2.613   4.256  17.775
  798MPD2    N111803   2.262   4.454  17.560
  798MPD2    H711804   2.165   4.483  17.560
  799MPD2     C11805   1.772   0.361  15.030
  799MPD2    C111806   1.696   0.296  14.944
  799MPD2    C211807   1.640   0.353  14.834
  799MPD2    C311808   1.665   0.482  14.805
  799MPD2    C411809   1.737   0.557  14.892
  799MPD2    C511810   1.790   0.493  15.004
  799MPD2     H11811   1.571   0.288  14.780
  799MPD2    H111812   1.739   0.664  14.876
  799MPD2    H211813   1.817   0.325  15.122
  799MPD2    H311814   1.854   0.536  15.080
  799MPD2     N11815   1.624   0.548  14.680
  799MPD2    H511816   1.612   0.648  14.694
  799MPD2    N111817   1.673   0.159  14.956
  799MPD2    H711818   1.610   0.116  14.889
  800MPD2     C11819   1.750   1.574  13.836
  800MPD2    C111820   1.862   1.533  13.907
  800MPD2    C211821   1.909   1.402  13.899
  800MPD2    C311822   1.861   1.314  13.807
  800MPD2    C411823   1.764   1.358  13.724
  800MPD2    C511824   1.710   1.484  13.738
  800MPD2     H11825   1.997   1.371  13.954
  800MPD2    H111826   1.722   1.300  13.643
  800MPD2    H211827   1.705   1.673  13.840
  800MPD2    H311828   1.621   1.504  13.679
  800MPD2     N11829   1.944   1.205  13.796
  800MPD2    H511830   1.980   1.169  13.884
  800MPD2    N111831   1.940   1.633  13.976
  800MPD2    H711832   1.899   1.726  13.971
  801MPD2     C11833   2.074   2.351  14.051
  801MPD2    C111834   1.996   2.245  14.088
  801MPD2    C211835   1.873   2.270  14.137
  801MPD2    C311836   1.823   2.392  14.164
  801MPD2    C411837   1.901   2.499  14.140
  801MPD2    C511838   2.019   2.476  14.073
  801MPD2     H11839   1.824   2.187  14.187
  801MPD2    H111840   1.876   2.602  14.164
  801MPD2    H211841   2.172   2.356  14.005
  801MPD2    H311842   2.075   2.562  14.040
  801MPD2     N11843   1.709   2.415  14.252
  801MPD2    H511844   1.717   2.503  14.302
  801MPD2    N111845   2.047   2.110  14.082
  801MPD2    H711846   1.974   2.047  14.113
  802MPD2     C11847   1.301   3.155  17.719
  802MPD2    C111848   1.366   3.113  17.831
  802MPD2    C211849   1.404   2.978  17.840
  802MPD2    C311850   1.377   2.881  17.747
  802MPD2    C411851   1.313   2.932  17.633
  802MPD2    C511852   1.284   3.061  17.620
  802MPD2     H11853   1.455   2.945  17.930
  802MPD2    H111854   1.284   2.862  17.556
  802MPD2    H211855   1.254   3.253  17.717
  802MPD2    H311856   1.244   3.093  17.524
  802MPD2     N11857   1.430   2.754  17.763
  802MPD2    H511858   1.491   2.748  17.844
  802MPD2    N111859   1.372   3.188  17.948
  802MPD2    H711860   1.418   3.146  18.028
  803MPD2     C11861   2.556   1.167  12.438
  803MPD2    C111862   2.654   1.194  12.530
  803MPD2    C211863   2.643   1.158  12.661
  803MPD2    C311864   2.528   1.095  12.711
  803MPD2    C411865   2.434   1.066  12.614
  803MPD2    C511866   2.445   1.101  12.485
  803MPD2     H11867   2.729   1.177  12.724
  803MPD2    H111868   2.347   1.006  12.638
  803MPD2    H211869   2.562   1.194  12.333
  803MPD2    H311870   2.368   1.067  12.416
  803MPD2     N11871   2.529   1.042  12.839
  803MPD2    H511872   2.446   0.986  12.857
  803MPD2    N111873   2.778   1.248  12.490
  803MPD2    H711874   2.837   1.276  12.568
  804MPD2     C11875   2.131   2.095  16.983
  804MPD2    C111876   2.098   2.113  17.118
  804MPD2    C211877   2.147   2.224  17.182
  804MPD2    C311878   2.238   2.310  17.116
  804MPD2    C411879   2.280   2.277  16.992
  804MPD2    C511880   2.218   2.177  16.926
  804MPD2     H11881   2.122   2.237  17.287
  804MPD2    H111882   2.351   2.334  16.933
  804MPD2    H211883   2.095   2.012  16.924
  804MPD2    H311884   2.238   2.157  16.821
  804MPD2     N11885   2.302   2.411  17.193
  804MPD2    H511886   2.244   2.427  17.275
  804MPD2    N111887   2.027   2.018  17.193
  804MPD2    H711888   2.008   2.039  17.290
  805MPD2     C11889   1.466   0.326  15.662
  805MPD2    C111890   1.511   0.453  15.681
  805MPD2    C211891   1.623   0.479  15.746
  805MPD2    C311892   1.694   0.378  15.799
  805MPD2    C411893   1.647   0.251  15.796
  805MPD2    C511894   1.532   0.222  15.726
  805MPD2     H11895   1.670   0.576  15.754
  805MPD2    H111896   1.713   0.170  15.827
  805MPD2    H211897   1.378   0.309  15.600
  805MPD2    H311898   1.507   0.123  15.690
  805MPD2     N11899   1.824   0.401  15.861
  805MPD2    H511900   1.864   0.491  15.836
  805MPD2    N111901   1.458   0.552  15.600
  805MPD2    H711902   1.502   0.643  15.594
  806MPD2     C11903   1.609   4.707  19.066
  806MPD2    C111904   1.736   4.747  19.097
  806MPD2    C211905   1.828   4.757  18.999
  806MPD2    C311906   1.802   4.724  18.865
  806MPD2    C411907   1.670   4.696  18.835
  806MPD2    C511908   1.573   4.685  18.935
  806MPD2     H11909   1.922   0.024  19.026
  806MPD2    H111910   1.630   4.680  18.735
  806MPD2    H211911   1.541   4.697  19.150
  806MPD2    H311912   1.468   4.665  18.914
  806MPD2     N11913   1.903   4.742  18.769
  806MPD2    H511914   1.978   0.023  18.799
  806MPD2    N111915   1.751   0.029  19.224
  806MPD2    H711916   1.668   0.055  19.276
  807MPD2     C11917   2.057   4.179  19.446
  807MPD2    C111918   1.963   4.273  19.428
  807MPD2    C211919   1.835   4.245  19.459
  807MPD2    C311920   1.797   4.126  19.510
  807MPD2    C411921   1.893   4.022  19.530
  807MPD2    C511922   2.027   4.051  19.496
  807MPD2     H11923   1.766   4.327  19.446
  807MPD2    H111924   1.888   3.924  19.576
  807MPD2    H211925   2.159   4.209  19.426
  807MPD2    H311926   2.109   3.986  19.522
  807MPD2     N11927   1.660   4.100  19.537
  807MPD2    H511928   1.597   4.180  19.534
  807MPD2    N111929   1.988   4.404  19.378
  807MPD2    H711930   1.903   4.457  19.361
  808MPD2     C11931   1.976   1.535   9.792
  808MPD2    C111932   1.976   1.585   9.917
  808MPD2    C211933   2.046   1.706   9.944
  808MPD2    C311934   2.090   1.783   9.837
  808MPD2    C411935   2.072   1.737   9.709
  808MPD2    C511936   2.021   1.607   9.688
  808MPD2     H11937   2.055   1.742  10.046
  808MPD2    H111938   2.096   1.785   9.615
  808MPD2    H211939   1.931   1.438   9.773
  808MPD2    H311940   2.018   1.557   9.592
  808MPD2     N11941   2.151   1.916   9.842
  808MPD2    H511942   2.155   1.971   9.757
  808MPD2    N111943   1.936   1.507  10.029
  808MPD2    H711944   1.964   1.551  10.116
  809MPD2     C11945   2.825   2.612   9.534
  809MPD2    C111946   2.843   2.484   9.574
  809MPD2    C211947   2.740   2.416   9.628
  809MPD2    C311948   2.620   2.486   9.651
  809MPD2    C411949   2.605   2.616   9.611
  809MPD2    C511950   2.711   2.676   9.557
  809MPD2     H11951   2.755   2.311   9.651
  809MPD2    H111952   2.509   2.660   9.634
  809MPD2    H211953   2.901   2.675   9.489
  809MPD2    H311954   2.686   2.777   9.526
  809MPD2     N11955   2.512   2.434   9.722
  809MPD2    H511956   2.445   2.500   9.761
  809MPD2    N111957   2.972   2.422   9.569
  809MPD2    H711958   2.977   2.324   9.593
  810MPD2     C11959   2.105   1.497  10.823
  810MPD2    C111960   2.024   1.439  10.924
  810MPD2    C211961   2.001   1.514  11.037
  810MPD2    C311962   2.065   1.630  11.065
  810MPD2    C411963   2.168   1.675  10.977
  810MPD2    C511964   2.188   1.609  10.857
  810MPD2     H11965   1.919   1.485  11.101
  810MPD2    H111966   2.242   1.752  10.995
  810MPD2    H211967   2.134   1.451  10.729
  810MPD2    H311968   2.267   1.646  10.793
  810MPD2     N11969   2.036   1.710  11.180
  810MPD2    H511970   2.092   1.794  11.192
  810MPD2    N111971   1.961   1.320  10.894
  810MPD2    H711972   1.980   1.277  10.804
  811MPD2     C11973   1.362   1.015  10.397
  811MPD2    C111974   1.427   1.115  10.471
  811MPD2    C211975   1.411   1.250  10.433
  811MPD2    C311976   1.307   1.278  10.347
  811MPD2    C411977   1.240   1.182  10.276
  811MPD2    C511978   1.270   1.052  10.304
  811MPD2     H11979   1.453   1.340  10.475
  811MPD2    H111980   1.165   1.200  10.200
  811MPD2    H211981   1.370   0.908  10.411
  811MPD2    H311982   1.231   0.973  10.241
  811MPD2     N11983   1.261   1.417  10.333
  811MPD2    H511984   1.338   1.476  10.362
  811MPD2    N111985   1.525   1.073  10.564
  811MPD2    H711986   1.544   0.974  10.572
  812MPD2     C11987   0.274   1.131  12.426
  812MPD2    C111988   0.284   1.203  12.542
  812MPD2    C211989   0.296   1.135  12.663
  812MPD2    C311990   0.306   0.994  12.663
  812MPD2    C411991   0.285   0.922  12.543
  812MPD2    C511992   0.281   0.992  12.427
  812MPD2     H11993   0.313   1.196  12.751
  812MPD2    H111994   0.276   0.814  12.537
  812MPD2    H211995   0.257   1.182  12.332
  812MPD2    H311996   0.283   0.944  12.330
  812MPD2     N11997   0.338   0.930  12.786
  812MPD2    H511998   0.338   0.994  12.865
  812MPD2    N111999   0.279   1.341  12.537
  812MPD2    H712000   0.280   1.382  12.444
  813MPD2     C12001   4.462   2.982  13.165
  813MPD2    C112002   4.564   2.962  13.257
  813MPD2    C212003   4.526   2.927  13.388
  813MPD2    C312004   4.391   2.917  13.426
  813MPD2    C412005   4.300   2.924  13.326
  813MPD2    C512006   4.334   2.961  13.196
  813MPD2     H12007   4.603   2.919  13.464
  813MPD2    H112008   4.197   2.905  13.355
  813MPD2    H212009   4.488   2.996  13.061
  813MPD2    H312010   4.266   2.949  13.113
  813MPD2     N12011   4.367   2.901  13.565
  813MPD2    H512012   4.452   2.924  13.615
  813MPD2    N112013   4.694   2.995  13.220
  813MPD2    H712014   4.703   3.056  13.139
  814MPD2     C12015   0.074   4.022  12.873
  814MPD2    C112016   0.058   4.098  12.759
  814MPD2    C212017   0.087   4.235  12.773
  814MPD2    C312018   0.125   4.297  12.894
  814MPD2    C412019   0.141   4.214  13.001
  814MPD2    C512020   0.112   4.083  12.990
  814MPD2     H12021   0.065   4.301  12.690
  814MPD2    H112022   0.176   4.249  13.098
  814MPD2    H212023   0.049   3.918  12.887
  814MPD2    H312024   0.124   4.028  13.082
  814MPD2     N12025   0.162   4.438  12.899
  814MPD2    H512026   0.206   4.480  12.980
  814MPD2    N112027   0.023   4.052  12.631
  814MPD2    H712028   4.767   4.117  12.562
  815MPD2     C12029   0.734   3.009  12.035
  815MPD2    C112030   0.676   2.890  12.021
  815MPD2    C212031   0.544   2.872  12.068
  815MPD2    C312032   0.475   2.972  12.120
  815MPD2    C412033   0.531   3.101  12.121
  815MPD2    C512034   0.663   3.115  12.085
  815MPD2     H12035   0.489   2.778  12.063
  815MPD2    H112036   0.476   3.193  12.138
  815MPD2    H212037   0.837   3.021  12.002
  815MPD2    H312038   0.711   3.212  12.078
  815MPD2     N12039   0.346   2.938  12.158
  815MPD2    H512040   0.319   2.840  12.155
  815MPD2    N112041   0.751   2.784  11.957
  815MPD2    H712042   0.845   2.808  11.926
  816MPD2     C12043   0.498   1.527  17.469
  816MPD2    C112044   0.576   1.639  17.496
  816MPD2    C212045   0.714   1.634  17.476
  816MPD2    C312046   0.768   1.512  17.422
  816MPD2    C412047   0.695   1.397  17.411
  816MPD2    C512048   0.560   1.408  17.430
  816MPD2     H12049   0.778   1.720  17.493
  816MPD2    H112050   0.735   1.298  17.393
  816MPD2    H212051   0.390   1.530  17.481
  816MPD2    H312052   0.492   1.325  17.414
  816MPD2     N12053   0.904   1.519  17.371
  816MPD2    H512054   0.948   1.610  17.380
  816MPD2    N112055   0.514   1.757  17.528
  816MPD2    H712056   0.413   1.760  17.522
  817MPD2     C12057   0.491   3.613  10.295
  817MPD2    C112058   0.395   3.569  10.209
  817MPD2    C212059   0.314   3.657  10.146
  817MPD2    C312060   0.329   3.796  10.169
  817MPD2    C412061   0.419   3.840  10.265
  817MPD2    C512062   0.503   3.748  10.323
  817MPD2     H12063   0.239   3.626  10.074
  817MPD2    H112064   0.445   3.943  10.286
  817MPD2    H212065   0.555   3.547  10.352
  817MPD2    H312066   0.584   3.792  10.381
  817MPD2     N12067   0.236   3.878  10.100
  817MPD2    H512068   0.186   3.827  10.028
  817MPD2    N112069   0.380   3.436  10.182
  817MPD2    H712070   0.308   3.409  10.115
  818MPD2     C12071   3.979   3.503  10.266
  818MPD2    C112072   3.851   3.488  10.315
  818MPD2    C212073   3.776   3.379  10.285
  818MPD2    C312074   3.833   3.272  10.209
  818MPD2    C412075   3.961   3.283  10.163
  818MPD2    C512076   4.032   3.398  10.193
  818MPD2     H12077   3.670   3.367  10.304
  818MPD2    H112078   3.999   3.214  10.089
  818MPD2    H212079   4.045   3.588  10.276
  818MPD2    H312080   4.134   3.409  10.157
  818MPD2     N12081   3.770   3.147  10.185
  818MPD2    H512082   3.829   3.076  10.142
  818MPD2    N112083   3.784   3.586  10.389
  818MPD2    H712084   3.694   3.559  10.428
  819MPD2     C12085   2.265   0.210  15.826
  819MPD2    C112086   2.238   0.078  15.860
  819MPD2    C212087   2.329   0.019  15.946
  819MPD2    C312088   2.434   0.082  15.992
  819MPD2    C412089   2.460   0.215  15.959
  819MPD2    C512090   2.374   0.279  15.867
  819MPD2     H12091   2.315   4.697  15.979
  819MPD2    H112092   2.544   0.275  15.991
  819MPD2    H212093   2.204   0.260  15.752
  819MPD2    H312094   2.395   0.378  15.828
  819MPD2     N12095   2.515   0.010  16.077
  819MPD2    H512096   2.484   4.699  16.108
  819MPD2    N112097   2.129   0.013  15.793
  819MPD2    H712098   2.079   0.075  15.731
  820MPD2     C12099   1.351   0.060  15.208
  820MPD2    C112100   1.454   0.137  15.260
  820MPD2    C212101   1.533   0.085  15.367
  820MPD2    C312102   1.499   4.745  15.425
  820MPD2    C412103   1.383   4.679  15.381
  820MPD2    C512104   1.320   4.726  15.270
  820MPD2     H12105   1.618   0.142  15.403
  820MPD2    H112106   1.344   4.582  15.410
  820MPD2    H212107   1.294   0.100  15.125
  820MPD2    H312108   1.239   4.669  15.225
  820MPD2     N12109   1.580   4.685  15.519
  820MPD2    H512110   1.535   4.609  15.569
  820MPD2    N112111   1.472   0.270  15.212
  820MPD2    H712112   1.401   0.309  15.150
  821MPD2     C12113   2.548   1.319  13.279
  821MPD2    C112114   2.543   1.316  13.420
  821MPD2    C212115   2.636   1.392  13.486
  821MPD2    C312116   2.733   1.467  13.426
  821MPD2    C412117   2.734   1.470  13.283
  821MPD2    C512118   2.644   1.392  13.214
  821MPD2     H12119   2.635   1.383  13.594
  821MPD2    H112120   2.803   1.530  13.224
  821MPD2    H212121   2.484   1.247  13.230
  821MPD2    H312122   2.641   1.396  13.106
  821MPD2     N12123   2.817   1.554  13.506
  821MPD2    H512124   2.895   1.595  13.456
  821MPD2    N112125   2.454   1.248  13.498
  821MPD2    H712126   2.488   1.236  13.593
  822MPD2     C12127   3.139   1.507  16.058
  822MPD2    C112128   3.059   1.456  16.164
  822MPD2    C212129   2.941   1.518  16.193
  822MPD2    C312130   2.897   1.634  16.119
  822MPD2    C412131   2.972   1.681  16.017
  822MPD2    C512132   3.083   1.610  15.984
  822MPD2     H12133   2.874   1.492  16.274
  822MPD2    H112134   2.928   1.763  15.962
  822MPD2    H212135   3.235   1.474  16.021
  822MPD2    H312136   3.130   1.655  15.898
  822MPD2     N12137   2.783   1.700  16.176
  822MPD2    H512138   2.736   1.650  16.251
  822MPD2    N112139   3.112   1.370  16.264
  822MPD2    H712140   3.059   1.355  16.350
  823MPD2     C12141   2.314   1.811  16.852
  823MPD2    C112142   2.406   1.752  16.767
  823MPD2    C212143   2.474   1.635  16.796
  823MPD2    C312144   2.458   1.587  16.927
  823MPD2    C412145   2.386   1.660  17.018
  823MPD2    C512146   2.305   1.770  16.980
  823MPD2     H12147   2.537   1.582  16.726
  823MPD2    H112148   2.363   1.612  17.112
  823MPD2    H212149   2.256   1.899  16.827
  823MPD2    H312150   2.242   1.830  17.044
  823MPD2     N12151   2.525   1.471  16.977
  823MPD2    H512152   2.508   1.449  17.075
  823MPD2    N112153   2.413   1.819  16.638
  823MPD2    H712154   2.384   1.916  16.636
  824MPD2     C12155   3.708   0.774  16.526
  824MPD2    C112156   3.672   0.838  16.406
  824MPD2    C212157   3.749   0.812  16.297
  824MPD2    C312158   3.844   0.708  16.296
  824MPD2    C412159   3.880   0.654  16.415
  824MPD2    C512160   3.819   0.698  16.528
  824MPD2     H12161   3.717   0.868  16.210
  824MPD2    H112162   3.953   0.575  16.427
  824MPD2    H212163   3.658   0.792  16.620
  824MPD2    H312164   3.865   0.656  16.617
  824MPD2     N12165   3.901   0.660  16.177
  824MPD2    H512166   3.874   0.704  16.090
  824MPD2    N112167   3.568   0.939  16.403
  824MPD2    H712168   3.557   0.995  16.319
  825MPD2     C12169   4.394   0.962  15.785
  825MPD2    C112170   4.261   0.931  15.749
  825MPD2    C212171   4.190   1.015  15.669
  825MPD2    C312172   4.251   1.130  15.622
  825MPD2    C412173   4.382   1.162  15.659
  825MPD2    C512174   4.454   1.071  15.736
  825MPD2     H12175   4.089   0.989  15.639
  825MPD2    H112176   4.438   1.237  15.604
  825MPD2    H212177   4.465   0.905  15.844
  825MPD2    H312178   4.558   1.096  15.752
  825MPD2     N12179   4.175   1.230  15.549
  825MPD2    H512180   4.218   1.320  15.530
  825MPD2    N112181   4.210   0.811  15.809
  825MPD2    H712182   4.259   0.762  15.883
  826MPD2     C12183   3.845   0.502  14.395
  826MPD2    C112184   3.823   0.566  14.278
  826MPD2    C212185   3.742   0.679  14.277
  826MPD2    C312186   3.675   0.719  14.395
  826MPD2    C412187   3.694   0.640  14.506
  826MPD2    C512188   3.781   0.538  14.509
  826MPD2     H12189   3.722   0.738  14.188
  826MPD2    H112190   3.642   0.661  14.599
  826MPD2    H212191   3.914   0.419  14.402
  826MPD2    H312192   3.798   0.487  14.603
  826MPD2     N12193   3.570   0.812  14.404
  826MPD2    H512194   3.538   0.827  14.499
  826MPD2    N112195   3.892   0.517  14.163
  826MPD2    H712196   3.947   0.432  14.167
  827MPD2     C12197   4.233   2.569  10.264
  827MPD2    C112198   4.226   2.440  10.307
  827MPD2    C212199   4.142   2.354  10.232
  827MPD2    C312200   4.092   2.385  10.106
  827MPD2    C412201   4.105   2.512  10.060
  827MPD2    C512202   4.178   2.597  10.142
  827MPD2     H12203   4.124   2.251  10.262
  827MPD2    H112204   4.078   2.543   9.960
  827MPD2    H212205   4.282   2.644  10.325
  827MPD2    H312206   4.196   2.696  10.102
  827MPD2     N12207   4.026   2.283  10.037
  827MPD2    H512208   4.021   2.193  10.084
  827MPD2    N112209   4.287   2.404  10.422
  827MPD2    H712210   4.350   2.473  10.463
  828MPD2     C12211   3.058   2.082  12.640
  828MPD2    C112212   2.942   2.137  12.593
  828MPD2    C212213   2.949   2.203  12.470
  828MPD2    C312214   3.069   2.214  12.398
  828MPD2    C412215   3.187   2.153  12.451
  828MPD2    C512216   3.176   2.104  12.577
  828MPD2     H12217   2.858   2.257  12.445
  828MPD2    H112218   3.281   2.163  12.398
  828MPD2    H212219   3.079   2.026  12.730
  828MPD2    H312220   3.263   2.057  12.620
  828MPD2     N12221   3.069   2.263  12.260
  828MPD2    H512222   3.151   2.243  12.204
  828MPD2    N112223   2.815   2.105  12.638
  828MPD2    H712224   2.739   2.144  12.584
  829MPD2     C12225   2.239   1.945  12.058
  829MPD2    C112226   2.157   1.933  12.170
  829MPD2    C212227   2.226   1.922  12.286
  829MPD2    C312228   2.367   1.920  12.293
  829MPD2    C412229   2.441   1.919  12.188
  829MPD2    C512230   2.375   1.942  12.071
  829MPD2     H12231   2.169   1.913  12.378
  829MPD2    H112232   2.548   1.906  12.196
  829MPD2    H212233   2.189   1.952  11.962
  829MPD2    H312234   2.433   1.945  11.980
  829MPD2     N12235   2.436   1.898  12.420
  829MPD2    H512236   2.537   1.895  12.409
  829MPD2    N112237   2.016   1.944  12.154
  829MPD2    H712238   1.985   1.949  12.058
  830MPD2     C12239   3.170   4.465  16.326
  830MPD2    C112240   3.068   4.474  16.230
  830MPD2    C212241   3.094   4.555  16.121
  830MPD2    C312242   3.212   4.630  16.098
  830MPD2    C412243   3.302   4.631  16.202
  830MPD2    C512244   3.281   4.550  16.309
  830MPD2     H12245   3.023   4.565  16.040
  830MPD2    H112246   3.393   4.690  16.204
  830MPD2    H212247   3.155   4.408  16.417
  830MPD2    H312248   3.359   4.548  16.384
  830MPD2     N12249   3.246   4.700  15.984
  830MPD2    H512250   3.336   4.746  15.990
  830MPD2    N112251   2.944   4.417  16.251
  830MPD2    H712252   2.936   4.365  16.338
  831MPD2     C12253   2.960   1.882  16.545
  831MPD2    C112254   3.013   1.771  16.488
  831MPD2    C212255   2.951   1.646  16.501
  831MPD2    C312256   2.827   1.638  16.562
  831MPD2    C412257   2.776   1.747  16.627
  831MPD2    C512258   2.844   1.865  16.617
  831MPD2     H12259   2.994   1.557  16.457
  831MPD2    H112260   2.684   1.750  16.684
  831MPD2    H212261   3.019   1.973  16.553
  831MPD2    H312262   2.816   1.958  16.664
  831MPD2     N12263   2.748   1.531  16.537
  831MPD2    H512264   2.648   1.543  16.548
  831MPD2    N112265   3.130   1.787  16.402
  831MPD2    H712266   3.148   1.878  16.362
  832MPD2     C12267   1.523   2.718  17.343
  832MPD2    C112268   1.484   2.851  17.336
  832MPD2    C212269   1.363   2.882  17.272
  832MPD2    C312270   1.292   2.781  17.212
  832MPD2    C412271   1.345   2.656  17.199
  832MPD2    C512272   1.462   2.624  17.269
  832MPD2     H12273   1.322   2.980  17.293
  832MPD2    H112274   1.293   2.579  17.144
  832MPD2    H212275   1.611   2.693  17.401
  832MPD2    H312276   1.488   2.519  17.279
  832MPD2     N12277   1.161   2.802  17.158
  832MPD2    H512278   1.118   2.723  17.111
  832MPD2    N112279   1.559   2.943  17.409
  832MPD2    H712280   1.627   2.907  17.475
  833MPD2     C12281   3.523   4.706  13.087
  833MPD2    C112282   3.530   0.006  12.983
  833MPD2    C212283   3.606   4.746  12.876
  833MPD2    C312284   3.654   4.612  12.869
  833MPD2    C412285   3.640   4.530  12.982
  833MPD2    C512286   3.568   4.577  13.085
  833MPD2     H12287   3.612   0.028  12.788
  833MPD2    H112288   3.666   4.425  12.987
  833MPD2    H212289   3.482   4.739  13.182
  833MPD2    H312290   3.547   4.513  13.170
  833MPD2     N12291   3.726   4.563  12.756
  833MPD2    H512292   3.691   4.471  12.732
  833MPD2    N112293   3.439   0.119  12.979
  833MPD2    H712294   3.371   0.130  13.054
  834MPD2     C12295   3.272   4.136  12.009
  834MPD2    C112296   3.360   4.213  11.941
  834MPD2    C212297   3.457   4.284  12.013
  834MPD2    C312298   3.462   4.287  12.147
  834MPD2    C412299   3.372   4.214  12.220
  834MPD2    C512300   3.278   4.139  12.147
  834MPD2     H12301   3.531   4.344  11.960
  834MPD2    H112302   3.369   4.221  12.328
  834MPD2    H212303   3.198   4.068  11.967
  834MPD2    H312304   3.209   4.072  12.197
  834MPD2     N12305   3.569   4.359  12.207
  834MPD2    H512306   3.638   4.412  12.155
  834MPD2    N112307   3.335   4.227  11.804
  834MPD2    H712308   3.272   4.155  11.768
  835MPD2     C12309   3.470   2.212  11.448
  835MPD2    C112310   3.458   2.337  11.512
  835MPD2    C212311   3.530   2.361  11.622
  835MPD2    C312312   3.596   2.253  11.694
  835MPD2    C412313   3.598   2.128  11.636
  835MPD2    C512314   3.537   2.114  11.509
  835MPD2     H12315   3.511   2.460  11.662
  835MPD2    H112316   3.637   2.043  11.691
  835MPD2    H212317   3.428   2.199  11.349
  835MPD2    H312318   3.542   2.020  11.454
  835MPD2     N12319   3.632   2.270  11.830
  835MPD2    H512320   3.673   2.193  11.882
  835MPD2    N112321   3.365   2.434  11.477
  835MPD2    H712322   3.357   2.519  11.532
  836MPD2     C12323   3.139   2.667  12.198
  836MPD2    C112324   3.201   2.586  12.288
  836MPD2    C212325   3.132   2.549  12.405
  836MPD2    C312326   3.004   2.598  12.439
  836MPD2    C412327   2.941   2.683  12.350
  836MPD2    C512328   3.012   2.718  12.232
  836MPD2     H12329   3.174   2.481  12.478
  836MPD2    H112330   2.841   2.721  12.367
  836MPD2    H212331   3.189   2.709  12.112
  836MPD2    H312332   2.959   2.775  12.156
  836MPD2     N12333   2.934   2.552  12.553
  836MPD2    H512334   2.833   2.552  12.560
  836MPD2    N112335   3.338   2.558  12.260
  836MPD2    H712336   3.374   2.591  12.171
  837MPD2     C12337   1.505   2.151  10.106
  837MPD2    C112338   1.392   2.106  10.046
  837MPD2    C212339   1.332   2.192   9.959
  837MPD2    C312340   1.377   2.319   9.934
  837MPD2    C412341   1.493   2.358   9.995
  837MPD2    C512342   1.560   2.273  10.085
  837MPD2     H12343   1.244   2.157   9.907
  837MPD2    H112344   1.557   2.436   9.956
  837MPD2    H212345   1.550   2.084  10.178
  837MPD2    H312346   1.653   2.303  10.131
  837MPD2     N12347   1.306   2.389   9.832
  837MPD2    H512348   1.231   2.337   9.786
  837MPD2    N112349   1.326   1.986  10.060
  837MPD2    H712350   1.235   1.972  10.017
  838MPD2     C12351   0.143   0.235  12.199
  838MPD2    C112352   0.150   0.200  12.331
  838MPD2    C212353   0.041   0.144  12.388
  838MPD2    C312354   4.707   0.109  12.318
  838MPD2    C412355   4.706   0.141  12.183
  838MPD2    C512356   0.033   0.209  12.130
  838MPD2     H12357   0.038   0.126  12.495
  838MPD2    H112358   4.625   0.126  12.113
  838MPD2    H212359   0.228   0.285  12.154
  838MPD2    H312360   0.027   0.252  12.031
  838MPD2     N12361   4.600   0.050  12.384
  838MPD2    H512362   4.608   0.034  12.484
  838MPD2    N112363   0.272   0.210  12.407
  838MPD2    H712364   0.259   0.198  12.507
  839MPD2     C12365   4.627   4.412  12.122
  839MPD2    C112366   4.705   4.413  12.012
  839MPD2    C212367   0.036   4.493  12.008
  839MPD2    C312368   0.066   4.577  12.117
  839MPD2    C412369   4.767   4.573  12.231
  839MPD2    C512370   4.660   4.494  12.225
  839MPD2     H12371   0.095   4.483  11.918
  839MPD2    H112372   4.777   4.642  12.314
  839MPD2    H212373   4.543   4.343  12.127
  839MPD2    H312374   4.594   4.488  12.311
  839MPD2     N12375   0.171   4.665  12.124
  839MPD2    H512376   0.186   4.706  12.215
  839MPD2    N112377   4.674   4.339  11.892
  839MPD2    H712378   4.734   4.364  11.814
  840MPD2     C12379   0.075   2.643  10.485
  840MPD2    C112380   0.062   2.565  10.596
  840MPD2    C212381   0.164   2.564  10.689
  840MPD2    C312382   0.271   2.649  10.674
  840MPD2    C412383   0.279   2.727  10.566
  840MPD2    C512384   0.188   2.715  10.466
  840MPD2     H12385   0.164   2.509  10.782
  840MPD2    H112386   0.361   2.797  10.552
  840MPD2    H212387   4.774   2.656  10.415
  840MPD2    H312388   0.186   2.771  10.373
  840MPD2     N12389   0.372   2.668  10.772
  840MPD2    H512390   0.441   2.734  10.737
  840MPD2    N112391   4.722   2.491  10.610
  840MPD2    H712392   4.649   2.509  10.542
  841MPD2     C12393   4.324   1.767  15.483
  841MPD2    C112394   4.331   1.761  15.346
  841MPD2    C212395   4.347   1.878  15.281
  841MPD2    C312396   4.377   1.999  15.333
  841MPD2    C412397   4.379   1.995  15.472
  841MPD2    C512398   4.348   1.886  15.545
  841MPD2     H12399   4.348   1.864  15.173
  841MPD2    H112400   4.408   2.080  15.532
  841MPD2    H212401   4.313   1.678  15.544
  841MPD2    H312402   4.339   1.887  15.653
  841MPD2     N12403   4.413   2.104  15.252
  841MPD2    H512404   4.416   2.085  15.152
  841MPD2    N112405   4.316   1.644  15.273
  841MPD2    H712406   4.317   1.643  15.172
  842MPD2     C12407   0.666   3.221  17.178
  842MPD2    C112408   0.546   3.145  17.165
  842MPD2    C212409   0.508   3.054  17.272
  842MPD2    C312410   0.587   3.041  17.381
  842MPD2    C412411   0.694   3.124  17.398
  842MPD2    C512412   0.736   3.206  17.292
  842MPD2     H12413   0.402   3.035  17.283
  842MPD2    H112414   0.740   3.125  17.496
  842MPD2    H212415   0.697   3.281  17.093
  842MPD2    H312416   0.831   3.257  17.301
  842MPD2     N12417   0.522   3.004  17.502
  842MPD2    H512418   0.549   3.047  17.590
  842MPD2    N112419   0.470   3.160  17.051
  842MPD2    H712420   0.500   3.234  16.989
  843MPD2     C12421   2.255   4.054  18.094
  843MPD2    C112422   2.329   3.954  18.158
  843MPD2    C212423   2.444   3.996  18.225
  843MPD2    C312424   2.473   4.127  18.255
  843MPD2    C412425   2.387   4.220  18.202
  843MPD2    C512426   2.288   4.186  18.118
  843MPD2     H12427   2.508   3.918  18.264
  843MPD2    H112428   2.404   4.324  18.226
  843MPD2    H212429   2.166   4.023  18.040
  843MPD2    H312430   2.219   4.262  18.084
  843MPD2     N12431   2.593   4.167  18.332
  843MPD2    H512432   2.622   4.263  18.318
  843MPD2    N112433   2.272   3.824  18.156
  843MPD2    H712434   2.186   3.806  18.104
  844MPD2     C12435   0.971   2.643  16.725
  844MPD2    C112436   1.084   2.563  16.713
  844MPD2    C212437   1.208   2.618  16.754
  844MPD2    C312438   1.211   2.742  16.813
  844MPD2    C412439   1.096   2.817  16.815
  844MPD2    C512440   0.974   2.770  16.770
  844MPD2     H12441   1.302   2.569  16.732
  844MPD2    H112442   1.095   2.916  16.858
  844MPD2    H212443   0.872   2.611  16.694
  844MPD2    H312444   0.879   2.822  16.780
  844MPD2     N12445   1.338   2.792  16.852
  844MPD2    H512446   1.412   2.725  16.838
  844MPD2    N112447   1.089   2.437  16.646
  844MPD2    H712448   1.178   2.411  16.604
  845MPD2     C12449   1.544   3.765  17.092
  845MPD2    C112450   1.504   3.673  17.185
  845MPD2    C212451   1.523   3.539  17.161
  845MPD2    C312452   1.585   3.495  17.041
  845MPD2    C412453   1.639   3.589  16.953
  845MPD2    C512454   1.620   3.724  16.981
  845MPD2     H12455   1.488   3.464  17.231
  845MPD2    H112456   1.697   3.551  16.870
  845MPD2    H212457   1.541   3.871  17.114
  845MPD2    H312458   1.655   3.796  16.908
  845MPD2     N12459   1.580   3.356  17.007
  845MPD2    H512460   1.508   3.298  17.050
  845MPD2    N112461   1.443   3.729  17.303
  845MPD2    H712462   1.419   3.827  17.295
  846MPD2     C12463   2.801   3.722  14.029
  846MPD2    C112464   2.724   3.841  14.046
  846MPD2    C212465   2.691   3.885  14.176
  846MPD2    C312466   2.743   3.817  14.287
  846MPD2    C412467   2.820   3.702  14.265
  846MPD2    C512468   2.847   3.653  14.139
  846MPD2     H12469   2.629   3.974  14.177
  846MPD2    H112470   2.860   3.648  14.350
  846MPD2    H212471   2.826   3.677  13.934
  846MPD2    H312472   2.894   3.556  14.130
  846MPD2     N12473   2.693   3.862  14.415
  846MPD2    H512474   2.633   3.944  14.417
  846MPD2    N112475   2.695   3.920  13.930
  846MPD2    H712476   2.660   4.015  13.941
  847MPD2     C12477   2.725   0.182  14.556
  847MPD2    C112478   2.753   0.125  14.684
  847MPD2    C212479   2.839   0.020  14.700
  847MPD2    C312480   2.910   4.752  14.586
  847MPD2    C412481   2.888   0.036  14.466
  847MPD2    C512482   2.793   0.130  14.455
  847MPD2     H12483   2.848   4.750  14.796
  847MPD2    H112484   2.932   4.776  14.375
  847MPD2    H212485   2.653   0.261  14.538
  847MPD2    H312486   2.764   0.169  14.358
  847MPD2     N12487   3.011   4.646  14.597
  847MPD2    H512488   3.076   4.638  14.520
  847MPD2    N112489   2.700   0.176  14.806
  847MPD2    H712490   2.730   0.151  14.900
  848MPD2     C12491   0.721   3.187  16.602
  848MPD2    C112492   0.794   3.234  16.711
  848MPD2    C212493   0.858   3.360  16.702
  848MPD2    C312494   0.838   3.438  16.592
  848MPD2    C412495   0.766   3.395  16.483
  848MPD2    C512496   0.710   3.264  16.482
  848MPD2     H12497   0.914   3.395  16.788
  848MPD2    H112498   0.752   3.447  16.389
  848MPD2    H212499   0.657   3.100  16.616
  848MPD2    H312500   0.653   3.226  16.398
  848MPD2     N12501   0.885   3.570  16.586
  848MPD2    H512502   0.852   3.619  16.504
  848MPD2    N112503   0.808   3.164  16.832
  848MPD2    H712504   0.872   3.209  16.897
  849MPD2     C12505   4.300   2.835  14.738
  849MPD2    C112506   4.416   2.906  14.740
  849MPD2    C212507   4.526   2.856  14.815
  849MPD2    C312508   4.529   2.727  14.869
  849MPD2    C412509   4.407   2.655  14.856
  849MPD2    C512510   4.294   2.713  14.802
  849MPD2     H12511   4.627   2.896  14.812
  849MPD2    H112512   4.407   2.548  14.875
  849MPD2    H212513   4.207   2.865  14.691
  849MPD2    H312514   4.195   2.668  14.798
  849MPD2     N12515   4.654   2.667  14.902
  849MPD2    H512516   4.664   2.567  14.891
  849MPD2    N112517   4.429   3.017  14.655
  849MPD2    H712518   4.363   3.039  14.582
  850MPD2     C12519   2.976   0.825  14.918
  850MPD2    C112520   2.956   0.916  15.019
  850MPD2    C212521   3.071   0.982  15.069
  850MPD2    C312522   3.198   0.930  15.050
  850MPD2    C412523   3.212   0.836  14.949
  850MPD2    C512524   3.103   0.774  14.898
  850MPD2     H12525   3.063   1.060  15.143
  850MPD2    H112526   3.312   0.799  14.929
  850MPD2    H212527   2.888   0.791  14.865
  850MPD2    H312528   3.116   0.688  14.834
  850MPD2     N12529   3.311   0.966  15.123
  850MPD2    H512530   3.397   0.928  15.084
  850MPD2    N112531   2.821   0.950  15.043
  850MPD2    H712532   2.752   0.925  14.973
  851MPD2     C12533   3.351   0.869  15.721
  851MPD2    C112534   3.265   0.807  15.632
  851MPD2    C212535   3.253   0.668  15.624
  851MPD2    C312536   3.340   0.592  15.700
  851MPD2    C412537   3.434   0.654  15.779
  851MPD2    C512538   3.436   0.792  15.793
  851MPD2     H12539   3.206   0.626  15.536
  851MPD2    H112540   3.504   0.615  15.852
  851MPD2    H212541   3.353   0.976  15.739
  851MPD2    H312542   3.510   0.859  15.837
  851MPD2     N12543   3.327   0.452  15.687
  851MPD2    H512544   3.251   0.429  15.624
  851MPD2    N112545   3.184   0.897  15.559
  851MPD2    H712546   3.200   0.997  15.570
  852MPD2     C12547   2.494   3.339  10.521
  852MPD2    C112548   2.481   3.432  10.620
  852MPD2    C212549   2.501   3.565  10.592
  852MPD2    C312550   2.538   3.603  10.459
  852MPD2    C412551   2.536   3.510  10.358
  852MPD2    C512552   2.509   3.374  10.389
  852MPD2     H12553   2.489   3.634  10.675
  852MPD2    H112554   2.550   3.536  10.254
  852MPD2    H212555   2.494   3.235  10.552
  852MPD2    H312556   2.501   3.296  10.314
  852MPD2     N12557   2.574   3.734  10.440
  852MPD2    H512558   2.545   3.800  10.511
  852MPD2    N112559   2.455   3.399  10.753
  852MPD2    H712560   2.472   3.469  10.824
  853MPD2     C12561   4.544   3.196  12.817
  853MPD2    C112562   4.449   3.289  12.786
  853MPD2    C212563   4.411   3.309  12.654
  853MPD2    C312564   4.461   3.223  12.556
  853MPD2    C412565   4.547   3.126  12.592
  853MPD2    C512566   4.585   3.114  12.719
  853MPD2     H12567   4.339   3.386  12.627
  853MPD2    H112568   4.599   3.058  12.525
  853MPD2    H212569   4.572   3.167  12.917
  853MPD2    H312570   4.656   3.035  12.740
  853MPD2     N12571   4.442   3.242  12.420
  853MPD2    H512572   4.479   3.166  12.364
  853MPD2    N112573   4.401   3.367  12.895
  853MPD2    H712574   4.438   3.343  12.986
  854MPD2     C12575   1.077   3.262  13.118
  854MPD2    C112576   1.160   3.362  13.078
  854MPD2    C212577   1.291   3.360  13.132
  854MPD2    C312578   1.326   3.271  13.223
  854MPD2    C412579   1.238   3.172  13.264
  854MPD2    C512580   1.112   3.177  13.215
  854MPD2     H12581   1.361   3.435  13.096
  854MPD2    H112582   1.255   3.094  13.337
  854MPD2    H212583   0.973   3.256  13.087
  854MPD2    H312584   1.049   3.099  13.257
  854MPD2     N12585   1.451   3.276  13.279
  854MPD2    H512586   1.479   3.189  13.323
  854MPD2    N112587   1.112   3.460  12.986
  854MPD2    H712588   1.012   3.460  12.970
  855MPD2     C12589   1.259   3.247  13.877
  855MPD2    C112590   1.380   3.186  13.892
  855MPD2    C212591   1.491   3.241  13.819
  855MPD2    C312592   1.477   3.354  13.738
  855MPD2    C412593   1.350   3.405  13.713
  855MPD2    C512594   1.242   3.353  13.787
  855MPD2     H12595   1.588   3.194  13.828
  855MPD2    H112596   1.347   3.497  13.656
  855MPD2    H212597   1.165   3.218  13.922
  855MPD2    H312598   1.140   3.387  13.772
  855MPD2     N12599   1.583   3.405  13.653
  855MPD2    H512600   1.560   3.481  13.589
  855MPD2    N112601   1.402   3.080  13.971
  855MPD2    H712602   1.502   3.063  13.974
  856MPD2     C12603   3.884   3.872  14.582
  856MPD2    C112604   3.932   3.978  14.500
  856MPD2    C212605   3.841   4.067  14.450
  856MPD2    C312606   3.705   4.057  14.485
  856MPD2    C412607   3.662   3.955  14.564
  856MPD2    C512608   3.750   3.868  14.604
  856MPD2     H12609   3.876   4.144  14.382
  856MPD2    H112610   3.557   3.941  14.586
  856MPD2    H212611   3.941   3.788  14.620
  856MPD2    H312612   3.716   3.788  14.669
  856MPD2     N12613   3.612   4.151  14.447
  856MPD2    H512614   3.514   4.156  14.474
  856MPD2    N112615   4.072   4.006  14.482
  856MPD2    H712616   4.085   4.091  14.428
  857MPD2     C12617   0.238   1.764  13.443
  857MPD2    C112618   0.344   1.774  13.354
  857MPD2    C212619   0.370   1.897  13.298
  857MPD2    C312620   0.298   2.008  13.337
  857MPD2    C412621   0.190   2.002  13.417
  857MPD2    C512622   0.163   1.877  13.475
  857MPD2     H12623   0.454   1.911  13.230
  857MPD2    H112624   0.146   2.095  13.452
  857MPD2    H212625   0.190   1.671  13.472
  857MPD2    H312626   0.072   1.867  13.533
  857MPD2     N12627   0.360   2.132  13.294
  857MPD2    H512628   0.449   2.117  13.247
  857MPD2    N112629   0.416   1.662  13.322
  857MPD2    H712630   0.398   1.576  13.373
  858MPD2     C12631   1.245   0.546  17.042
  858MPD2    C112632   1.383   0.554  17.021
  858MPD2    C212633   1.458   0.641  17.107
  858MPD2    C312634   1.387   0.718  17.196
  858MPD2    C412635   1.249   0.721  17.195
  858MPD2    C512636   1.182   0.629  17.121
  858MPD2     H12637   1.566   0.650  17.098
  858MPD2    H112638   1.198   0.791  17.261
  858MPD2    H212639   1.190   0.475  16.981
  858MPD2    H312640   1.075   0.629  17.140
  858MPD2     N12641   1.450   0.809  17.287
  858MPD2    H512642   1.386   0.857  17.349
  858MPD2    N112643   1.443   0.481  16.914
  858MPD2    H712644   1.383   0.404  16.884
  859MPD2     C12645   0.195   2.374  15.906
  859MPD2    C112646   0.126   2.399  15.791
  859MPD2    C212647   0.091   2.289  15.713
  859MPD2    C312648   0.114   2.160  15.765
  859MPD2    C412649   0.168   2.132  15.890
  859MPD2    C512650   0.216   2.245  15.953
  859MPD2     H12651   0.048   2.303  15.614
  859MPD2    H112652   0.190   2.031  15.923
  859MPD2    H212653   0.230   2.456  15.967
  859MPD2    H312654   0.266   2.239  16.049
  859MPD2     N12655   0.063   2.050  15.705
  859MPD2    H512656   0.080   1.962  15.752
  859MPD2    N112657   0.106   2.538  15.757
  859MPD2    H712658   0.156   2.607  15.812
  860MPD2     C12659   2.469   2.999  11.944
  860MPD2    C112660   2.493   3.016  12.078
  860MPD2    C212661   2.398   2.985  12.171
  860MPD2    C312662   2.275   2.942  12.138
  860MPD2    C412663   2.256   2.911  12.002
  860MPD2    C512664   2.351   2.941  11.913
  860MPD2     H12665   2.418   2.996  12.277
  860MPD2    H112666   2.165   2.861  11.969
  860MPD2    H212667   2.539   3.015  11.863
  860MPD2    H312668   2.336   2.907  11.811
  860MPD2     N12669   2.181   2.928  12.238
  860MPD2    H512670   2.209   2.933  12.335
  860MPD2    N112671   2.619   3.074  12.126
  860MPD2    H712672   2.616   3.084  12.227
  861MPD2     C12673   1.004   1.344  11.558
  861MPD2    C112674   0.918   1.425  11.629
  861MPD2    C212675   0.801   1.470  11.568
  861MPD2    C312676   0.773   1.459  11.435
  861MPD2    C412677   0.868   1.382  11.362
  861MPD2    C512678   0.979   1.330  11.416
  861MPD2     H12679   0.727   1.522  11.628
  861MPD2    H112680   0.859   1.371  11.254
  861MPD2    H212681   1.094   1.302  11.601
  861MPD2    H312682   1.041   1.266  11.354
  861MPD2     N12683   0.664   1.519  11.363
  861MPD2    H512684   0.679   1.529  11.263
  861MPD2    N112685   0.935   1.446  11.764
  861MPD2    H712686   0.905   1.537  11.797
  862MPD2     C12687   0.649   1.491  10.770
  862MPD2    C112688   0.549   1.420  10.840
  862MPD2    C212689   0.520   1.287  10.817
  862MPD2    C312690   0.602   1.209  10.734
  862MPD2    C412691   0.703   1.281  10.666
  862MPD2    C512692   0.723   1.418  10.686
  862MPD2     H12693   0.438   1.243  10.873
  862MPD2    H112694   0.778   1.227  10.609
  862MPD2    H212695   0.667   1.598  10.774
  862MPD2    H312696   0.799   1.467  10.626
  862MPD2     N12697   0.590   1.072  10.706
  862MPD2    H512698   0.612   1.050  10.609
  862MPD2    N112699   0.472   1.483  10.936
  862MPD2    H712700   0.438   1.417  11.005
  863MPD2     C12701   4.518   4.162  17.194
  863MPD2    C112702   4.557   4.290  17.218
  863MPD2    C212703   4.658   4.311  17.306
  863MPD2    C312704   4.719   4.200  17.368
  863MPD2    C412705   4.671   4.068  17.348
  863MPD2    C512706   4.565   4.053  17.260
  863MPD2     H12707   4.678   4.414  17.331
  863MPD2    H112708   4.725   3.989  17.398
  863MPD2    H212709   4.438   4.144  17.124
  863MPD2    H312710   4.520   3.956  17.244
  863MPD2     N12711   0.055   4.207  17.448
  863MPD2    H512712   0.062   4.124  17.507
  863MPD2    N112713   4.486   4.384  17.144
  863MPD2    H712714   4.393   4.364  17.109
  864MPD2     C12715   4.749   1.329  17.213
  864MPD2    C112716   0.047   1.215  17.195
  864MPD2    C212717   0.182   1.228  17.165
  864MPD2    C312718   0.239   1.352  17.157
  864MPD2    C412719   0.160   1.463  17.182
  864MPD2    C512720   0.027   1.449  17.197
  864MPD2     H12721   0.250   1.144  17.152
  864MPD2    H112722   0.206   1.561  17.174
  864MPD2    H212723   4.648   1.324  17.251
  864MPD2    H312724   4.752   1.542  17.202
  864MPD2     N12725   0.374   1.369  17.114
  864MPD2    H512726   0.394   1.468  17.106
  864MPD2    N112727   4.765   1.088  17.209
  864MPD2    H712728   4.669   1.079  17.239
  865MPD2     C12729   0.132   1.130  16.409
  865MPD2    C112730   0.260   1.081  16.414
  865MPD2    C212731   0.345   1.140  16.502
  865MPD2    C312732   0.311   1.253  16.580
  865MPD2    C412733   0.186   1.308  16.564
  865MPD2    C512734   0.103   1.239  16.483
  865MPD2     H12735   0.444   1.099  16.518
  865MPD2    H112736   0.150   1.397  16.614
  865MPD2    H212737   0.054   1.089  16.346
  865MPD2    H312738   4.777   1.260  16.475
  865MPD2     N12739   0.413   1.321  16.662
  865MPD2    H512740   0.375   1.396  16.719
  865MPD2    N112741   0.293   0.961  16.344
  865MPD2    H712742   0.213   0.920  16.296
  866MPD2     C12743   1.556   1.746  12.069
  866MPD2    C112744   1.551   1.700  11.940
  866MPD2    C212745   1.425   1.702  11.877
  866MPD2    C312746   1.315   1.782  11.919
  866MPD2    C412747   1.337   1.852  12.036
  866MPD2    C512748   1.454   1.835  12.109
  866MPD2     H12749   1.413   1.657  11.779
  866MPD2    H112750   1.268   1.922  12.083
  866MPD2    H212751   1.650   1.743  12.123
  866MPD2    H312752   1.471   1.903  12.192
  866MPD2     N12753   1.196   1.808  11.850
  866MPD2    H512754   1.125   1.865  11.895
  866MPD2    N112755   1.664   1.623  11.898
  866MPD2    H712756   1.746   1.619  11.958
  867MPD2     C12757   3.590   1.026  16.944
  867MPD2    C112758   3.716   1.010  17.002
  867MPD2    C212759   3.776   1.123  17.057
  867MPD2    C312760   3.714   1.249  17.058
  867MPD2    C412761   3.586   1.256  17.001
  867MPD2    C512762   3.530   1.149  16.938
  867MPD2     H12763   3.876   1.110  17.096
  867MPD2    H112764   3.525   1.345  16.989
  867MPD2    H212765   3.546   0.943  16.890
  867MPD2    H312766   3.436   1.167  16.886
  867MPD2     N12767   3.774   1.363  17.117
  867MPD2    H512768   3.710   1.441  17.112
  867MPD2    N112769   3.772   0.877  16.998
  867MPD2    H712770   3.708   0.803  16.970
  868MPD2     C12771   0.813   4.145  13.411
  868MPD2    C112772   0.887   4.264  13.405
  868MPD2    C212773   0.836   4.368  13.461
  868MPD2    C312774   0.711   4.373  13.514
  868MPD2    C412775   0.628   4.268  13.504
  868MPD2    C512776   0.684   4.151  13.449
  868MPD2     H12777   0.881   4.463  13.489
  868MPD2    H112778   0.525   4.264  13.537
  868MPD2    H212779   0.849   4.047  13.382
  868MPD2    H312780   0.622   4.063  13.437
  868MPD2     N12781   0.675   4.490  13.586
  868MPD2    H512782   0.746   4.562  13.591
  868MPD2    N112783   1.022   4.257  13.363
  868MPD2    H712784   1.063   4.165  13.355
  869MPD2     C12785   1.762   2.637  19.243
  869MPD2    C112786   1.821   2.662  19.118
  869MPD2    C212787   1.957   2.697  19.119
  869MPD2    C312788   2.031   2.708  19.239
  869MPD2    C412789   1.966   2.681  19.362
  869MPD2    C512790   1.832   2.639  19.359
  869MPD2     H12791   1.997   2.741  19.029
  869MPD2    H112792   2.010   2.675  19.461
  869MPD2    H212793   1.658   2.636  19.274
  869MPD2    H312794   1.780   2.639  19.454
  869MPD2     N12795   2.160   2.757  19.253
  869MPD2    H512796   2.196   2.763  19.348
  869MPD2    N112797   1.733   2.703  19.018
  869MPD2    H712798   1.634   2.703  19.041
  870MPD2     C12799   1.964   1.861  19.302
  870MPD2    C112800   1.828   1.835  19.316
  870MPD2    C212801   1.742   1.838  19.207
  870MPD2    C312802   1.790   1.864  19.080
  870MPD2    C412803   1.920   1.903  19.068
  870MPD2    C512804   2.005   1.889  19.174
  870MPD2     H12805   1.636   1.821  19.224
  870MPD2    H112806   1.960   1.932  18.971
  870MPD2    H212807   2.037   1.874  19.381
  870MPD2    H312808   2.109   1.911  19.154
  870MPD2     N12809   1.699   1.884  18.974
  870MPD2    H512810   1.614   1.835  19.001
  870MPD2    N112811   1.786   1.817  19.448
  870MPD2    H712812   1.851   1.832  19.524
  871MPD2     C12813   2.965   0.986  16.520
  871MPD2    C112814   2.955   0.935  16.646
  871MPD2    C212815   3.029   0.827  16.688
  871MPD2    C312816   3.109   0.765  16.589
  871MPD2    C412817   3.110   0.809  16.457
  871MPD2    C512818   3.038   0.920  16.428
  871MPD2     H12819   3.039   0.793  16.790
  871MPD2    H112820   3.181   0.775  16.382
  871MPD2    H212821   2.926   1.086  16.507
  871MPD2    H312822   3.047   0.956  16.326
  871MPD2     N12823   3.190   0.659  16.636
  871MPD2    H512824   3.187   0.639  16.735
  871MPD2    N112825   2.870   1.010  16.730
  871MPD2    H712826   2.846   1.103  16.698
  872MPD2     C12827   3.670   3.258  14.514
  872MPD2    C112828   3.628   3.380  14.472
  872MPD2    C212829   3.492   3.402  14.475
  872MPD2    C312830   3.398   3.317  14.527
  872MPD2    C412831   3.449   3.198  14.580
  872MPD2    C512832   3.586   3.169  14.574
  872MPD2     H12833   3.464   3.497  14.431
  872MPD2    H112834   3.385   3.134  14.640
  872MPD2    H212835   3.777   3.243  14.508
  872MPD2    H312836   3.629   3.079  14.616
  872MPD2     N12837   3.262   3.348  14.549
  872MPD2    H512838   3.199   3.290  14.603
  872MPD2    N112839   3.716   3.482  14.420
  872MPD2    H712840   3.664   3.565  14.394
  873MPD2     C12841   0.932   3.333  18.813
  873MPD2    C112842   0.802   3.327  18.848
  873MPD2    C212843   0.737   3.206  18.820
  873MPD2    C312844   0.807   3.089  18.766
  873MPD2    C412845   0.948   3.103  18.743
  873MPD2    C512846   0.992   3.234  18.745
  873MPD2     H12847   0.637   3.196  18.860
  873MPD2    H112848   1.005   3.025  18.693
  873MPD2    H212849   0.980   3.429  18.827
  873MPD2    H312850   1.096   3.234  18.716
  873MPD2     N12851   0.751   2.960  18.769
  873MPD2    H512852   0.816   2.883  18.763
  873MPD2    N112853   0.746   3.430  18.917
  873MPD2    H712854   0.808   3.506  18.945
  874MPD2     C12855   0.332   3.580  16.333
  874MPD2    C112856   0.401   3.533  16.447
  874MPD2    C212857   0.509   3.611  16.494
  874MPD2    C312858   0.553   3.719  16.423
  874MPD2    C412859   0.491   3.758  16.308
  874MPD2    C512860   0.378   3.690  16.267
  874MPD2     H12861   0.558   3.589  16.588
  874MPD2    H112862   0.530   3.844  16.255
  874MPD2    H212863   0.257   3.521  16.283
  874MPD2    H312864   0.332   3.737  16.181
  874MPD2     N12865   0.658   3.795  16.484
  874MPD2    H512866   0.704   3.754  16.564
  874MPD2    N112867   0.344   3.426  16.523
  874MPD2    H712868   0.264   3.375  16.486
  875MPD2     C12869   1.636   1.819  14.743
  875MPD2    C112870   1.516   1.831  14.803
  875MPD2    C212871   1.509   1.840  14.941
  875MPD2    C312872   1.628   1.848  15.012
  875MPD2    C412873   1.746   1.833  14.953
  875MPD2    C512874   1.753   1.829  14.815
  875MPD2     H12875   1.416   1.851  14.996
  875MPD2    H112876   1.837   1.844  15.010
  875MPD2    H212877   1.643   1.820  14.635
  875MPD2    H312878   1.844   1.846  14.758
  875MPD2     N12879   1.625   1.872  15.150
  875MPD2    H512880   1.713   1.879  15.201
  875MPD2    N112881   1.397   1.847  14.730
  875MPD2    H712882   1.310   1.860  14.781
  876MPD2     C12883   0.063   2.975  16.378
  876MPD2    C112884   0.196   2.946  16.382
  876MPD2    C212885   0.240   2.824  16.434
  876MPD2    C312886   0.145   2.742  16.493
  876MPD2    C412887   0.015   2.773  16.486
  876MPD2    C512888   4.754   2.886  16.435
  876MPD2     H12889   0.345   2.796  16.439
  876MPD2    H112890   4.724   2.703  16.527
  876MPD2    H212891   0.023   3.064  16.331
  876MPD2    H312892   4.649   2.911  16.438
  876MPD2     N12893   0.195   2.615  16.536
  876MPD2    H512894   0.291   2.599  16.506
  876MPD2    N112895   0.278   3.046  16.319
  876MPD2    H712896   0.231   3.105  16.250
  877MPD2     C12897   0.111   3.478  15.818
  877MPD2    C112898   0.248   3.465  15.791
  877MPD2    C212899   0.296   3.484  15.664
  877MPD2    C312900   0.214   3.505  15.560
  877MPD2    C412901   0.081   3.519  15.580
  877MPD2    C512902   0.029   3.511  15.709
  877MPD2     H12903   0.400   3.464  15.643
  877MPD2    H112904   0.011   3.542  15.501
  877MPD2    H212905   0.065   3.474  15.916
  877MPD2    H312906   4.702   3.523  15.722
  877MPD2     N12907   0.255   3.520  15.427
  877MPD2    H512908   0.177   3.520  15.362
  877MPD2    N112909   0.340   3.432  15.895
  877MPD2    H712910   0.435   3.425  15.860
  878MPD2     C12911   4.695   2.851  13.729
  878MPD2    C112912   0.000   2.957  13.746
  878MPD2    C212913   4.760   3.022  13.862
  878MPD2    C312914   4.671   2.991  13.961
  878MPD2    C412915   4.596   2.874  13.942
  878MPD2    C512916   4.612   2.804  13.826
  878MPD2     H12917   0.049   3.103  13.882
  878MPD2    H112918   4.519   2.834  14.008
  878MPD2    H212919   4.699   2.790  13.639
  878MPD2    H312920   4.558   2.713  13.804
  878MPD2     N12921   4.671   3.068  14.080
  878MPD2    H512922   4.744   3.137  14.092
  878MPD2    N112923   0.085   2.986  13.644
  878MPD2    H712924   0.061   2.927  13.565
  879MPD2     C12925   0.570   4.456  17.433
  879MPD2    C112926   0.616   4.342  17.488
  879MPD2    C212927   0.573   4.223  17.419
  879MPD2    C312928   0.500   4.231  17.301
  879MPD2    C412929   0.458   4.358  17.252
  879MPD2    C512930   0.495   4.473  17.317
  879MPD2     H12931   0.598   4.125  17.457
  879MPD2    H112932   0.406   4.382  17.160
  879MPD2    H212933   0.600   4.554  17.468
  879MPD2    H312934   0.482   4.569  17.269
  879MPD2     N12935   0.475   4.119  17.220
  879MPD2    H512936   0.423   4.145  17.137
  879MPD2    N112937   0.690   4.342  17.607
  879MPD2    H712938   0.718   4.436  17.632
  880MPD2     C12939   1.600   1.202  18.791
  880MPD2    C112940   1.701   1.207  18.700
  880MPD2    C212941   1.821   1.138  18.718
  880MPD2    C312942   1.841   1.061  18.831
  880MPD2    C412943   1.734   1.055  18.922
  880MPD2    C512944   1.615   1.124  18.906
  880MPD2     H12945   1.899   1.139  18.643
  880MPD2    H112946   1.738   1.003  19.017
  880MPD2    H212947   1.506   1.255  18.781
  880MPD2    H312948   1.535   1.121  18.978
  880MPD2     N12949   1.968   1.009  18.868
  880MPD2    H512950   2.041   1.042  18.806
  880MPD2    N112951   1.672   1.298  18.593
  880MPD2    H712952   1.582   1.344  18.602
  881MPD2     C12953   1.765   2.003  17.772
  881MPD2    C112954   1.799   1.871  17.758
  881MPD2    C212955   1.767   1.781  17.856
  881MPD2    C312956   1.702   1.835  17.973
  881MPD2    C412957   1.670   1.970  17.984
  881MPD2    C512958   1.696   2.053  17.877
  881MPD2     H12959   1.786   1.675  17.848
  881MPD2    H112960   1.617   2.016  18.066
  881MPD2    H212961   1.771   2.068  17.685
  881MPD2    H312962   1.668   2.158  17.877
  881MPD2     N12963   1.671   1.758  18.082
  881MPD2    H512964   1.630   1.803  18.164
  881MPD2    N112965   1.848   1.840  17.629
  881MPD2    H712966   1.854   1.918  17.564
  882MPD2     C12967   0.237   3.503  14.563
  882MPD2    C112968   0.181   3.515  14.690
  882MPD2    C212969   0.042   3.511  14.695
  882MPD2    C312970   4.745   3.483  14.583
  882MPD2    C412971   0.026   3.463  14.466
  882MPD2    C512972   0.158   3.474  14.452
  882MPD2     H12973   4.770   3.514  14.790
  882MPD2    H112974   4.744   3.462  14.377
  882MPD2    H212975   0.345   3.507  14.558
  882MPD2    H312976   0.202   3.462  14.354
  882MPD2     N12977   4.603   3.480  14.586
  882MPD2    H512978   4.547   3.445  14.508
  882MPD2    N112979   0.269   3.539  14.798
  882MPD2    H712980   0.364   3.572  14.785
  883MPD2     C12981   2.278   3.485  16.743
  883MPD2    C112982   2.320   3.513  16.612
  883MPD2    C212983   2.434   3.589  16.590
  883MPD2    C312984   2.500   3.631  16.703
  883MPD2    C412985   2.463   3.603  16.832
  883MPD2    C512986   2.353   3.520  16.848
  883MPD2     H12987   2.468   3.617  16.491
  883MPD2    H112988   2.507   3.640  16.924
  883MPD2    H212989   2.198   3.413  16.756
  883MPD2    H312990   2.317   3.508  16.949
  883MPD2     N12991   2.615   3.715  16.684
  883MPD2    H512992   2.658   3.707  16.593
  883MPD2    N112993   2.249   3.472  16.494
  883MPD2    H712994   2.283   3.511  16.407
  884MPD2     C12995   4.223   4.129  15.779
  884MPD2    C112996   4.176   4.143  15.651
  884MPD2    C212997   4.041   4.174  15.624
  884MPD2    C312998   3.953   4.185  15.729
  884MPD2    C412999   4.009   4.158  15.857
  884MPD2    C513000   4.135   4.124  15.884
  884MPD2     H13001   4.021   4.198  15.520
  884MPD2    H113002   3.941   4.148  15.941
  884MPD2    H213003   4.329   4.109  15.788
  884MPD2    H313004   4.159   4.104  15.988
  884MPD2     N13005   3.816   4.206  15.708
  884MPD2    H513006   3.779   4.203  15.613
  884MPD2    N113007   4.254   4.138  15.537
  884MPD2    H713008   4.214   4.161  15.447
  885MPD2     C13009   2.487   4.568  18.406
  885MPD2    C113010   2.616   4.587  18.371
  885MPD2    C213011   2.640   4.655  18.253
  885MPD2    C313012   2.539   4.698  18.179
  885MPD2    C413013   2.401   4.682  18.219
  885MPD2    C513014   2.380   4.602  18.331
  885MPD2     H13015   2.741   4.651  18.213
  885MPD2    H113016   2.322   4.709  18.150
  885MPD2    H213017   2.468   4.525  18.504
  885MPD2    H313018   2.278   4.580  18.362
  885MPD2     N13019   2.566   4.752  18.051
  885MPD2    H513020   2.664   4.736  18.029
  885MPD2    N113021   2.717   4.555  18.466
  885MPD2    H713022   2.713   4.465  18.513
  886MPD2     C13023   3.776   2.945  15.675
  886MPD2    C113024   3.877   3.008  15.611
  886MPD2    C213025   3.886   3.144  15.634
  886MPD2    C313026   3.784   3.217  15.691
  886MPD2    C413027   3.666   3.153  15.732
  886MPD2    C513028   3.668   3.015  15.729
  886MPD2     H13029   3.978   3.195  15.608
  886MPD2    H113030   3.584   3.214  15.768
  886MPD2    H213031   3.764   2.837  15.677
  886MPD2    H313032   3.580   2.961  15.762
  886MPD2     N13033   3.792   3.358  15.699
  886MPD2    H513034   3.709   3.416  15.698
  886MPD2    N113035   3.994   2.940  15.562
  886MPD2    H713036   4.082   2.990  15.571
  887MPD2     C13037   4.581   2.812  15.943
  887MPD2    C113038   4.517   2.898  15.855
  887MPD2    C213039   4.525   3.032  15.879
  887MPD2    C313040   4.569   3.088  15.998
  887MPD2    C413041   4.623   3.000  16.092
  887MPD2    C513042   4.639   2.862  16.057
  887MPD2     H13043   4.478   3.101  15.811
  887MPD2    H113044   4.665   3.028  16.188
  887MPD2    H213045   4.594   2.705  15.929
  887MPD2    H313046   4.687   2.796  16.128
  887MPD2     N13047   4.540   3.222  16.022
  887MPD2    H513048   4.485   3.270  15.952
  887MPD2    N113049   4.437   2.857  15.747
  887MPD2    H713050   4.388   2.932  15.699
  888MPD2     C13051   1.270   2.968  15.080
  888MPD2    C113052   1.288   2.963  15.216
  888MPD2    C213053   1.362   3.054  15.278
  888MPD2    C313054   1.436   3.149  15.205
  888MPD2    C413055   1.439   3.138  15.069
  888MPD2    C513056   1.351   3.055  15.008
  888MPD2     H13057   1.374   3.060  15.386
  888MPD2    H113058   1.502   3.191  14.998
  888MPD2    H213059   1.232   2.887  15.019
  888MPD2    H313060   1.354   3.044  14.900
  888MPD2     N13061   1.513   3.247  15.269
  888MPD2    H513062   1.486   3.261  15.366
  888MPD2    N113063   1.226   2.863  15.294
  888MPD2    H713064   1.260   2.859  15.390
  889MPD2     C13065   0.522   3.007  13.222
  889MPD2    C113066   0.521   2.947  13.339
  889MPD2    C213067   0.547   3.008  13.457
  889MPD2    C313068   0.561   3.142  13.451
  889MPD2    C413069   0.548   3.213  13.332
  889MPD2    C513070   0.526   3.143  13.219
  889MPD2     H13071   0.560   2.952  13.549
  889MPD2    H113072   0.552   3.321  13.322
  889MPD2    H213073   0.496   2.954  13.131
  889MPD2    H313074   0.514   3.190  13.122
  889MPD2     N13075   0.588   3.219  13.573
  889MPD2    H513076   0.621   3.168  13.654
  889MPD2    N113077   0.522   2.805  13.346
  889MPD2    H713078   0.540   2.760  13.435
  890MPD2     C13079   0.301   4.133  14.941
  890MPD2    C113080   0.425   4.179  14.993
  890MPD2    C213081   0.447   4.154  15.129
  890MPD2    C313082   0.366   4.072  15.206
  890MPD2    C413083   0.249   4.021  15.145
  890MPD2    C513084   0.222   4.049  15.013
  890MPD2     H13085   0.530   4.200  15.182
  890MPD2    H113086   0.174   3.966  15.200
  890MPD2    H213087   0.281   4.146  14.835
  890MPD2    H313088   0.125   4.024  14.971
  890MPD2     N13089   0.409   4.047  15.339
  890MPD2    H513090   0.481   4.117  15.356
  890MPD2    N113091   0.517   4.258  14.919
  890MPD2    H713092   0.490   4.268  14.822
  891MPD2     C13093   2.769   2.579  16.747
  891MPD2    C113094   2.811   2.673  16.655
  891MPD2    C213095   2.943   2.716  16.659
  891MPD2    C313096   3.034   2.680  16.752
  891MPD2    C413097   2.991   2.576  16.842
  891MPD2    C513098   2.863   2.527  16.829
  891MPD2     H13099   2.980   2.795  16.595
  891MPD2    H113100   3.048   2.529  16.921
  891MPD2    H213101   2.669   2.538  16.743
  891MPD2    H313102   2.841   2.450  16.902
  891MPD2     N13103   3.154   2.740  16.761
  891MPD2    H513104   3.172   2.820  16.701
  891MPD2    N113105   2.716   2.729  16.567
  891MPD2    H713106   2.618   2.718  16.590
  892MPD2     C13107   4.183   3.833  15.377
  892MPD2    C113108   4.077   3.798  15.294
  892MPD2    C213109   4.103   3.726  15.178
  892MPD2    C313110   4.231   3.689  15.142
  892MPD2    C413111   4.329   3.722  15.230
  892MPD2    C513112   4.308   3.797  15.337
  892MPD2     H13113   4.018   3.695  15.118
  892MPD2    H113114   4.428   3.683  15.208
  892MPD2    H213115   4.152   3.892  15.463
  892MPD2    H313116   4.391   3.827  15.399
  892MPD2     N13117   4.265   3.605  15.032
  892MPD2    H513118   4.354   3.610  14.984
  892MPD2    N113119   3.939   3.832  15.311
  892MPD2    H713120   3.877   3.796  15.239
  893MPD2     C13121   0.446   2.117  19.264
  893MPD2    C113122   0.542   2.217  19.283
  893MPD2    C213123   0.516   2.319  19.372
  893MPD2    C313124   0.403   2.306  19.449
  893MPD2    C413125   0.309   2.204  19.433
  893MPD2    C513126   0.333   2.104  19.341
  893MPD2     H13127   0.573   2.411  19.375
  893MPD2    H113128   0.217   2.193  19.490
  893MPD2    H213129   0.465   2.040  19.190
  893MPD2    H313130   0.266   2.020  19.331
  893MPD2     N13131   0.374   2.402  19.545
  893MPD2    H513132   0.283   2.396  19.590
  893MPD2    N113133   0.634   2.233  19.172
  893MPD2    H713134   0.630   2.163  19.099
  894MPD2     C13135   4.119   0.239  19.218
  894MPD2    C113136   4.019   0.307  19.282
  894MPD2    C213137   4.023   0.450  19.287
  894MPD2    C313138   4.133   0.516  19.246
  894MPD2    C413139   4.243   0.442  19.193
  894MPD2    C513140   4.230   0.310  19.180
  894MPD2     H13141   3.942   0.503  19.337
  894MPD2    H113142   4.329   0.493  19.152
  894MPD2    H213143   4.114   0.134  19.191
  894MPD2    H313144   4.303   0.252  19.126
  894MPD2     N13145   4.150   0.659  19.265
  894MPD2    H513146   4.067   0.715  19.284
  894MPD2    N113147   3.904   0.244  19.338
  894MPD2    H713148   3.836   0.304  19.384
  895MPD2     C13149   3.258   3.202  14.189
  895MPD2    C113150   3.241   3.069  14.148
  895MPD2    C213151   3.345   2.979  14.161
  895MPD2    C313152   3.473   3.027  14.186
  895MPD2    C413153   3.494   3.163  14.203
  895MPD2    C513154   3.384   3.251  14.209
  895MPD2     H13155   3.334   2.877  14.126
  895MPD2    H113156   3.595   3.200  14.212
  895MPD2    H213157   3.185   3.282  14.184
  895MPD2    H313158   3.395   3.357  14.228
  895MPD2     N13159   3.592   2.956  14.181
  895MPD2    H513160   3.669   3.021  14.195
  895MPD2    N113161   3.124   3.019  14.082
  895MPD2    H713162   3.133   2.924  14.047
  896MPD2     C13163   0.660   1.068  19.733
  896MPD2    C113164   0.681   0.968  19.638
  896MPD2    C213165   0.573   0.930  19.559
  896MPD2    C313166   0.449   0.993  19.572
  896MPD2    C413167   0.434   1.093  19.661
  896MPD2    C513168   0.540   1.133  19.738
  896MPD2     H13169   0.578   0.839  19.501
  896MPD2    H113170   0.342   1.150  19.667
  896MPD2    H213171   0.738   1.106  19.798
  896MPD2    H313172   0.544   1.213  19.812
  896MPD2     N13173   0.334   0.937  19.502
  896MPD2    H513174   0.338   0.848  19.453
  896MPD2    N113175   0.810   0.912  19.633
  896MPD2    H713176   0.873   0.933  19.709
  897MPD2     C13177   2.002   2.031  10.825
  897MPD2    C113178   1.985   2.160  10.866
  897MPD2    C213179   1.887   2.192  10.962
  897MPD2    C313180   1.810   2.096  11.021
  897MPD2    C413181   1.848   1.962  11.002
  897MPD2    C513182   1.939   1.934  10.903
  897MPD2     H13183   1.857   2.294  10.983
  897MPD2    H113184   1.814   1.881  11.066
  897MPD2    H213185   2.079   1.998  10.757
  897MPD2    H313186   1.976   1.832  10.894
  897MPD2     N13187   1.701   2.129  11.093
  897MPD2    H513188   1.689   2.228  11.112
  897MPD2    N113189   2.064   2.263  10.801
  897MPD2    H713190   2.111   2.242  10.713
  898MPD2     C13191   3.741   2.885  17.710
  898MPD2    C113192   3.837   2.940  17.627
  898MPD2    C213193   3.821   3.069  17.593
  898MPD2    C313194   3.719   3.156  17.637
  898MPD2    C413195   3.623   3.093  17.704
  898MPD2    C513196   3.637   2.964  17.743
  898MPD2     H13197   3.903   3.113  17.537
  898MPD2    H113198   3.538   3.150  17.740
  898MPD2    H213199   3.741   2.786  17.754
  898MPD2    H313200   3.561   2.926  17.810
  898MPD2     N13201   3.723   3.296  17.606
  898MPD2    H513202   3.782   3.327  17.530
  898MPD2    N113203   3.967   2.894  17.631
  898MPD2    H713204   4.031   2.963  17.593
  899MPD2     C13205   0.228   3.740  17.882
  899MPD2    C113206   0.216   3.866  17.946
  899MPD2    C213207   0.193   3.867  18.083
  899MPD2    C313208   0.154   3.749  18.145
  899MPD2    C413209   0.169   3.631  18.077
  899MPD2    C513210   0.213   3.625  17.947
  899MPD2     H13211   0.206   3.963  18.132
  899MPD2    H113212   0.128   3.543  18.124
  899MPD2    H213213   0.242   3.744  17.775
  899MPD2    H313214   0.224   3.529  17.898
  899MPD2     N13215   0.121   3.728  18.282
  899MPD2    H513216   0.123   3.629  18.303
  899MPD2    N113217   0.234   3.985  17.867
  899MPD2    H713218   0.263   3.966  17.772
  900MPD2     C13219   4.163   0.921  13.001
  900MPD2    C113220   4.093   0.797  13.011
  900MPD2    C213221   3.985   0.773  12.928
  900MPD2    C313222   3.945   0.856  12.827
  900MPD2    C413223   4.025   0.968  12.814
  900MPD2    C513224   4.130   1.007  12.896
  900MPD2     H13225   3.929   0.681  12.940
  900MPD2    H113226   4.016   1.035  12.729
  900MPD2    H213227   4.250   0.935  13.064
  900MPD2    H313228   4.181   1.102  12.886
  900MPD2     N13229   3.844   0.822  12.740
  900MPD2    H513230   3.790   0.740  12.766
  900MPD2    N113231   4.147   0.698  13.100
  900MPD2    H713232   4.235   0.720  13.145
  901MPD2     C13233   4.003   4.489  13.152
  901MPD2    C113234   4.133   4.477  13.193
  901MPD2    C213235   4.194   4.598  13.225
  901MPD2    C313236   4.127   4.723  13.244
  901MPD2    C413237   3.999   4.723  13.214
  901MPD2    C513238   3.934   4.607  13.175
  901MPD2     H13239   4.301   4.602  13.245
  901MPD2    H113240   3.935   0.030  13.221
  901MPD2    H213241   3.953   4.401  13.112
  901MPD2    H313242   3.828   4.608  13.152
  901MPD2     N13243   4.202   0.059  13.282
  901MPD2    H513244   4.302   0.053  13.268
  901MPD2    N113245   4.205   4.352  13.205
  901MPD2    H713246   4.166   4.269  13.162
  902MPD2     C13247   3.272   3.597  13.455
  902MPD2    C113248   3.200   3.656  13.360
  902MPD2    C213249   3.248   3.671  13.230
  902MPD2    C313250   3.371   3.607  13.199
  902MPD2    C413251   3.445   3.557  13.302
  902MPD2    C513252   3.399   3.549  13.428
  902MPD2     H13253   3.184   3.709  13.152
  902MPD2    H113254   3.539   3.509  13.279
  902MPD2    H213255   3.249   3.577  13.559
  902MPD2    H313256   3.444   3.492  13.508
  902MPD2     N13257   3.439   3.629  13.075
  902MPD2    H513258   3.535   3.597  13.076
  902MPD2    N113259   3.074   3.707  13.406
  902MPD2    H713260   3.041   3.654  13.486
  903MPD2     C13261   3.155   3.900  12.382
  903MPD2    C113262   3.253   3.806  12.416
  903MPD2    C213263   3.253   3.680  12.359
  903MPD2    C313264   3.144   3.652  12.278
  903MPD2    C413265   3.046   3.741  12.244
  903MPD2    C513266   3.063   3.872  12.290
  903MPD2     H13267   3.330   3.610  12.389
  903MPD2    H113268   2.962   3.718  12.180
  903MPD2    H213269   3.161   4.002  12.417
  903MPD2    H313270   2.997   3.950  12.254
  903MPD2     N13271   3.122   3.508  12.248
  903MPD2    H513272   3.182   3.446  12.301
  903MPD2    N113273   3.354   3.847  12.510
  903MPD2    H713274   3.338   3.922  12.576
  904MPD2     C13275   3.047   2.509  14.172
  904MPD2    C113276   3.031   2.403  14.258
  904MPD2    C213277   3.142   2.372  14.343
  904MPD2    C313278   3.251   2.455  14.349
  904MPD2    C413279   3.254   2.569  14.269
  904MPD2    C513280   3.154   2.593  14.175
  904MPD2     H13281   3.152   2.273  14.386
  904MPD2    H113282   3.339   2.635  14.263
  904MPD2    H213283   2.971   2.531  14.098
  904MPD2    H313284   3.159   2.678  14.108
  904MPD2     N13285   3.351   2.416  14.438
  904MPD2    H513286   3.349   2.321  14.474
  904MPD2    N113287   2.924   2.308  14.247
  904MPD2    H713288   2.942   2.209  14.262
  905MPD2     C13289   2.873   2.524  13.636
  905MPD2    C113290   2.893   2.602  13.749
  905MPD2    C213291   3.016   2.654  13.776
  905MPD2    C313292   3.119   2.629  13.688
  905MPD2    C413293   3.101   2.555  13.572
  905MPD2    C513294   2.983   2.496  13.556
  905MPD2     H13295   3.026   2.716  13.864
  905MPD2    H113296   3.187   2.537  13.508
  905MPD2    H213297   2.776   2.485  13.609
  905MPD2    H313298   2.952   2.432  13.474
  905MPD2     N13299   3.257   2.650  13.733
  905MPD2    H513300   3.318   2.599  13.670
  905MPD2    N113301   2.765   2.621  13.827
  905MPD2    H713302   2.692   2.554  13.803
  906MPD2     C13303   0.538   2.729  11.612
  906MPD2    C113304   0.486   2.636  11.531
  906MPD2    C213305   0.390   2.551  11.585
  906MPD2    C313306   0.339   2.564  11.717
  906MPD2    C413307   0.384   2.674  11.794
  906MPD2    C513308   0.490   2.745  11.740
  906MPD2     H13309   0.349   2.479  11.516
  906MPD2    H113310   0.354   2.689  11.897
  906MPD2    H213311   0.621   2.789  11.576
  906MPD2    H313312   0.543   2.809  11.809
  906MPD2     N13313   0.236   2.485  11.770
  906MPD2    H513314   0.173   2.520  11.841
  906MPD2    N113315   0.504   2.630  11.385
  906MPD2    H713316   0.466   2.550  11.336
  907MPD2     C13317   3.851   1.758  15.872
  907MPD2    C113318   3.972   1.697  15.822
  907MPD2    C213319   4.074   1.681  15.906
  907MPD2    C313320   4.069   1.719  16.041
  907MPD2    C413321   3.946   1.772  16.086
  907MPD2    C513322   3.842   1.793  16.002
  907MPD2     H13323   4.160   1.627  15.867
  907MPD2    H113324   3.934   1.808  16.188
  907MPD2    H213325   3.765   1.753  15.806
  907MPD2    H313326   3.757   1.846  16.043
  907MPD2     N13327   4.182   1.684  16.119
  907MPD2    H513328   4.256   1.632  16.073
  907MPD2    N113329   3.980   1.636  15.698
  907MPD2    H713330   4.060   1.575  15.682
  908MPD2     C13331   1.896   2.398   9.949
  908MPD2    C113332   1.897   2.287  10.029
  908MPD2    C213333   1.927   2.313  10.164
  908MPD2    C313334   1.955   2.435  10.211
  908MPD2    C413335   1.955   2.538  10.126
  908MPD2    C513336   1.924   2.524   9.994
  908MPD2     H13337   1.929   2.228  10.231
  908MPD2    H113338   1.983   2.640  10.150
  908MPD2    H213339   1.872   2.391   9.844
  908MPD2    H313340   1.916   2.606   9.923
  908MPD2     N13341   1.972   2.453  10.348
  908MPD2    H513342   1.972   2.375  10.414
  908MPD2    N113343   1.855   2.163   9.978
  908MPD2    H713344   1.822   2.167   9.882
  909MPD2     C13345   2.230   0.544  11.871
  909MPD2    C113346   2.225   0.681  11.864
  909MPD2    C213347   2.220   0.754  11.981
  909MPD2    C313348   2.213   0.692  12.103
  909MPD2    C413349   2.207   0.554  12.108
  909MPD2    C513350   2.209   0.480  11.995
  909MPD2     H13351   2.231   0.862  11.978
  909MPD2    H113352   2.196   0.497  12.199
  909MPD2    H213353   2.255   0.484  11.784
  909MPD2    H313354   2.204   0.373  12.010
  909MPD2     N13355   2.206   0.779  12.214
  909MPD2    H513356   2.202   0.877  12.186
  909MPD2    N113357   2.266   0.755  11.752
  909MPD2    H713358   2.282   0.855  11.760
  910MPD2     C13359   3.471   2.520  16.604
  910MPD2    C113360   3.481   2.390  16.562
  910MPD2    C213361   3.451   2.357  16.429
  910MPD2    C313362   3.407   2.453  16.344
  910MPD2    C413363   3.401   2.582  16.389
  910MPD2    C513364   3.428   2.615  16.519
  910MPD2     H13365   3.457   2.252  16.404
  910MPD2    H113366   3.361   2.662  16.328
  910MPD2    H213367   3.474   2.544  16.710
  910MPD2    H313368   3.406   2.717  16.548
  910MPD2     N13369   3.363   2.429  16.205
  910MPD2    H513370   3.311   2.505  16.163
  910MPD2    N113371   3.540   2.303  16.650
  910MPD2    H713372   3.565   2.212  16.614
  911MPD2     C13373   1.446   2.565  16.376
  911MPD2    C113374   1.481   2.633  16.484
  911MPD2    C213375   1.413   2.748  16.527
  911MPD2    C313376   1.295   2.776  16.451
  911MPD2    C413377   1.255   2.691  16.345
  911MPD2    C513378   1.330   2.584  16.310
  911MPD2     H13379   1.452   2.815  16.602
  911MPD2    H113380   1.170   2.711  16.281
  911MPD2    H213381   1.511   2.482  16.350
  911MPD2    H313382   1.303   2.524  16.224
  911MPD2     N13383   1.211   2.884  16.463
  911MPD2    H513384   1.121   2.892  16.417
  911MPD2    N113385   1.600   2.584  16.549
  911MPD2    H713386   1.648   2.515  16.492
  912MPD2     C13387   1.054   2.811  15.997
  912MPD2    C113388   0.980   2.801  16.118
  912MPD2    C213389   0.960   2.679  16.176
  912MPD2    C313390   1.010   2.564  16.122
  912MPD2    C413391   1.078   2.569  16.000
  912MPD2    C513392   1.095   2.693  15.940
  912MPD2     H13393   0.901   2.678  16.267
  912MPD2    H113394   1.124   2.480  15.959
  912MPD2    H213395   1.070   2.904  15.944
  912MPD2    H313396   1.143   2.698  15.843
  912MPD2     N13397   0.994   2.444  16.200
  912MPD2    H513398   0.939   2.461  16.284
  912MPD2    N113399   0.957   2.929  16.180
  912MPD2    H713400   0.977   3.014  16.129
  913MPD2     C13401   1.715   3.878  11.104
  913MPD2    C113402   1.795   3.986  11.136
  913MPD2    C213403   1.788   4.102  11.062
  913MPD2    C313404   1.705   4.114  10.953
  913MPD2    C413405   1.624   4.002  10.921
  913MPD2    C513406   1.625   3.893  11.004
  913MPD2     H13407   1.823   4.195  11.105
  913MPD2    H113408   1.561   3.995  10.833
  913MPD2    H213409   1.727   3.788  11.163
  913MPD2    H313410   1.563   3.806  10.990
  913MPD2     N13411   1.695   4.217  10.862
  913MPD2    H513412   1.615   4.210  10.800
  913MPD2    N113413   1.884   3.963  11.252
  913MPD2    H713414   1.881   3.874  11.301
  914MPD2     C13415   4.331   4.171  12.403
  914MPD2    C113416   4.296   4.267  12.494
  914MPD2    C213417   4.318   4.256  12.634
  914MPD2    C313418   4.382   4.146  12.681
  914MPD2    C413419   4.420   4.046  12.592
  914MPD2    C513420   4.402   4.061  12.458
  914MPD2     H13421   4.282   4.335  12.698
  914MPD2    H113422   4.460   3.953  12.629
  914MPD2    H213423   4.319   4.192  12.297
  914MPD2    H313424   4.431   3.985  12.386
  914MPD2     N13425   4.402   4.137  12.820
  914MPD2    H513426   4.388   4.219  12.878
  914MPD2    N113427   4.250   4.387  12.436
  914MPD2    H713428   4.275   4.407  12.340
  915MPD2     C13429   2.774   3.843  15.795
  915MPD2    C113430   2.702   3.943  15.739
  915MPD2    C213431   2.617   4.017  15.828
  915MPD2    C313432   2.615   3.992  15.959
  915MPD2    C413433   2.686   3.885  16.015
  915MPD2    C513434   2.765   3.816  15.927
  915MPD2     H13435   2.559   4.100  15.791
  915MPD2    H113436   2.689   3.840  16.113
  915MPD2    H213437   2.843   3.783  15.737
  915MPD2    H313438   2.813   3.731  15.974
  915MPD2     N13439   2.531   4.069  16.048
  915MPD2    H513440   2.474   4.139  16.001
  915MPD2    N113441   2.694   3.943  15.597
  915MPD2    H713442   2.766   3.903  15.538
  916MPD2     C13443   0.527   2.385  16.094
  916MPD2    C113444   0.528   2.268  16.175
  916MPD2    C213445   0.616   2.169  16.146
  916MPD2    C313446   0.704   2.175  16.045
  916MPD2    C413447   0.703   2.290  15.964
  916MPD2    C513448   0.610   2.390  15.990
  916MPD2     H13449   0.608   2.075  16.199
  916MPD2    H113450   0.764   2.292  15.875
  916MPD2    H213451   0.463   2.470  16.115
  916MPD2    H313452   0.594   2.473  15.922
  916MPD2     N13453   0.774   2.054  16.004
  916MPD2    H513454   0.747   1.970  16.054
  916MPD2    N113455   0.437   2.273  16.279
  916MPD2    H713456   0.376   2.354  16.277
  917MPD2     C13457   0.836   0.117  11.734
  917MPD2    C113458   0.880   0.150  11.861
  917MPD2    C213459   0.956   0.269  11.872
  917MPD2    C313460   0.993   0.339  11.758
  917MPD2    C413461   0.958   0.286  11.635
  917MPD2    C513462   0.882   0.178  11.627
  917MPD2     H13463   0.983   0.303  11.971
  917MPD2    H113464   0.982   0.346  11.548
  917MPD2    H213465   0.777   0.026  11.734
  917MPD2    H313466   0.849   0.132  11.535
  917MPD2     N13467   1.058   0.461  11.754
  917MPD2    H513468   1.087   0.487  11.660
  917MPD2    N113469   0.831   0.072  11.970
  917MPD2    H713470   0.774   4.774  11.939
  918MPD2     C13471   0.812   0.435  12.863
  918MPD2    C113472   0.919   0.360  12.828
  918MPD2    C213473   0.905   0.259  12.742
  918MPD2    C313474   0.778   0.220  12.697
  918MPD2    C413475   0.667   0.290  12.737
  918MPD2    C513476   0.688   0.396  12.822
  918MPD2     H13477   0.998   0.206  12.726
  918MPD2    H113478   0.567   0.271  12.699
  918MPD2    H213479   0.834   0.522  12.924
  918MPD2    H313480   0.597   0.449  12.847
  918MPD2     N13481   0.781   0.124  12.598
  918MPD2    H513482   0.872   0.093  12.565
  918MPD2    N113483   1.056   0.393  12.863
  918MPD2    H713484   1.117   0.317  12.833
  919MPD2     C13485   1.605   3.748  12.346
  919MPD2    C113486   1.568   3.636  12.268
  919MPD2    C213487   1.588   3.645  12.134
  919MPD2    C313488   1.660   3.747  12.073
  919MPD2    C413489   1.697   3.857  12.153
  919MPD2    C513490   1.665   3.854  12.286
  919MPD2     H13491   1.562   3.554  12.081
  919MPD2    H113492   1.757   3.942  12.121
  919MPD2    H213493   1.574   3.755  12.450
  919MPD2    H313494   1.687   3.944  12.342
  919MPD2     N13495   1.675   3.760  11.937
  919MPD2    H513496   1.687   3.858  11.912
  919MPD2    N113497   1.507   3.523  12.329
  919MPD2    H713498   1.493   3.440  12.272
  920MPD2     C13499   1.462   4.426  11.238
  920MPD2    C113500   1.348   4.346  11.239
  920MPD2    C213501   1.367   4.219  11.295
  920MPD2    C313502   1.480   4.181  11.368
  920MPD2    C413503   1.591   4.266  11.358
  920MPD2    C513504   1.581   4.382  11.289
  920MPD2     H13505   1.281   4.154  11.282
  920MPD2    H113506   1.691   4.240  11.392
  920MPD2    H213507   1.471   4.520  11.184
  920MPD2    H313508   1.673   4.432  11.260
  920MPD2     N13509   1.496   4.049  11.425
  920MPD2    H513510   1.414   3.990  11.417
  920MPD2    N113511   1.226   4.390  11.183
  920MPD2    H713512   1.153   4.320  11.179
  921MPD2     C13513   2.225   3.065  16.840
  921MPD2    C113514   2.230   2.951  16.762
  921MPD2    C213515   2.164   2.840  16.803
  921MPD2    C313516   2.098   2.833  16.923
  921MPD2    C413517   2.090   2.944  17.002
  921MPD2    C513518   2.154   3.062  16.957
  921MPD2     H13519   2.155   2.759  16.732
  921MPD2    H113520   2.046   2.940  17.101
  921MPD2    H213521   2.266   3.161  16.813
  921MPD2    H313522   2.149   3.145  17.027
  921MPD2     N13523   2.022   2.720  16.952
  921MPD2    H513524   1.968   2.728  17.037
  921MPD2    N113525   2.288   2.963  16.624
  921MPD2    H713526   2.346   3.046  16.622
  922MPD2     C13527   3.236   0.732  17.552
  922MPD2    C113528   3.105   0.768  17.570
  922MPD2    C213529   3.009   0.671  17.600
  922MPD2    C313530   3.035   0.536  17.609
  922MPD2    C413531   3.165   0.502  17.580
  922MPD2    C513532   3.261   0.598  17.549
  922MPD2     H13533   2.914   0.708  17.635
  922MPD2    H113534   3.195   0.398  17.574
  922MPD2    H213535   3.314   0.804  17.534
  922MPD2    H313536   3.365   0.568  17.537
  922MPD2     N13537   2.935   0.441  17.630
  922MPD2    H513538   2.839   0.475  17.625
  922MPD2    N113539   3.066   0.904  17.581
  922MPD2    H713540   2.974   0.928  17.616
  923MPD2     C13541   4.256   3.003   9.072
  923MPD2    C113542   4.248   3.105   9.158
  923MPD2    C213543   4.335   3.098   9.266
  923MPD2    C313544   4.427   2.995   9.283
  923MPD2    C413545   4.444   2.900   9.187
  923MPD2    C513546   4.364   2.909   9.073
  923MPD2     H13547   4.333   3.174   9.343
  923MPD2    H113548   4.524   2.826   9.185
  923MPD2    H213549   4.201   2.990   8.980
  923MPD2    H313550   4.383   2.832   8.999
  923MPD2     N13551   4.508   2.983   9.404
  923MPD2    H513552   4.573   2.905   9.399
  923MPD2    N113553   4.151   3.214   9.139
  923MPD2    H713554   4.085   3.199   9.063
  924MPD2     C13555   4.112   1.026  16.170
  924MPD2    C113556   4.174   1.062  16.283
  924MPD2    C213557   4.285   1.142  16.284
  924MPD2    C313558   4.325   1.200  16.169
  924MPD2    C413559   4.258   1.177  16.047
  924MPD2    C513560   4.150   1.084  16.052
  924MPD2     H13561   4.324   1.172  16.380
  924MPD2    H113562   4.282   1.229  15.955
  924MPD2    H213563   4.019   0.970  16.162
  924MPD2    H313564   4.097   1.066  15.959
  924MPD2     N13565   4.425   1.300  16.158
  924MPD2    H513566   4.429   1.341  16.065
  924MPD2    N113567   4.133   0.985  16.397
  924MPD2    H713568   4.032   0.986  16.391
  925MPD2     C13569   3.262   3.622  15.208
  925MPD2    C113570   3.126   3.614  15.184
  925MPD2    C213571   3.043   3.649  15.288
  925MPD2    C313572   3.085   3.649  15.419
  925MPD2    C413573   3.220   3.649  15.441
  925MPD2    C513574   3.307   3.634  15.337
  925MPD2     H13575   2.936   3.650  15.270
  925MPD2    H113576   3.255   3.664  15.543
  925MPD2    H213577   3.332   3.607  15.127
  925MPD2    H313578   3.411   3.608  15.352
  925MPD2     N13579   2.997   3.639  15.528
  925MPD2    H513580   3.035   3.622  15.621
  925MPD2    N113581   3.073   3.601  15.057
  925MPD2    H713582   2.972   3.594  15.052
  926MPD2     C13583   1.872   1.947  13.503
  926MPD2    C113584   1.784   2.057  13.502
  926MPD2    C213585   1.831   2.172  13.431
  926MPD2    C313586   1.953   2.170  13.367
  926MPD2    C413587   2.036   2.064  13.383
  926MPD2    C513588   1.989   1.955  13.449
  926MPD2     H13589   1.777   2.266  13.439
  926MPD2    H113590   2.140   2.076  13.354
  926MPD2    H213591   1.835   1.852  13.541
  926MPD2    H313592   2.066   1.878  13.447
  926MPD2     N13593   1.992   2.272  13.278
  926MPD2    H513594   2.086   2.268  13.241
  926MPD2    N113595   1.646   2.046  13.537
  926MPD2    H713596   1.589   2.127  13.513
  927MPD2     C13597   1.161   4.232  18.218
  927MPD2    C113598   1.271   4.305  18.245
  927MPD2    C213599   1.366   4.318  18.142
  927MPD2    C313600   1.358   4.250  18.028
  927MPD2    C413601   1.254   4.171  18.002
  927MPD2    C513602   1.155   4.167  18.100
  927MPD2     H13603   1.451   4.383  18.159
  927MPD2    H113604   1.234   4.102  17.921
  927MPD2    H213605   1.078   4.213  18.286
  927MPD2    H313606   1.069   4.104  18.079
  927MPD2     N13607   1.461   4.279  17.927
  927MPD2    H513608   1.527   4.355  17.937
  927MPD2    N113609   1.274   4.375  18.369
  927MPD2    H713610   1.186   4.372  18.419
  928MPD2     C13611   3.767   2.373  18.838
  928MPD2    C113612   3.821   2.500  18.830
  928MPD2    C213613   3.947   2.508  18.778
  928MPD2    C313614   4.012   2.399  18.721
  928MPD2    C413615   3.948   2.278  18.716
  928MPD2    C513616   3.828   2.270  18.775
  928MPD2     H13617   3.992   2.607  18.777
  928MPD2    H113618   3.990   2.181  18.690
  928MPD2    H213619   3.673   2.348  18.886
  928MPD2    H313620   3.778   2.174  18.771
  928MPD2     N13621   4.137   2.404  18.659
  928MPD2    H513622   4.158   2.324  18.599
  928MPD2    N113623   3.759   2.606  18.895
  928MPD2    H713624   3.667   2.581  18.931
  929MPD2     C13625   4.137   2.989  10.150
  929MPD2    C113626   4.043   2.909  10.210
  929MPD2    C213627   3.947   2.836  10.137
  929MPD2    C313628   3.944   2.838   9.999
  929MPD2    C413629   4.040   2.917   9.938
  929MPD2    C513630   4.143   2.976  10.012
  929MPD2     H13631   3.891   2.757  10.185
  929MPD2    H113632   4.037   2.940   9.832
  929MPD2    H213633   4.211   3.040  10.211
  929MPD2    H313634   4.216   3.033   9.956
  929MPD2     N13635   3.849   2.769   9.921
  929MPD2    H513636   3.863   2.768   9.821
  929MPD2    N113637   4.053   2.900  10.354
  929MPD2    H713638   4.119   2.959  10.403
  930MPD2     C13639   1.228   4.704  14.333
  930MPD2    C113640   1.337   4.721  14.250
  930MPD2    C213641   1.347   4.629  14.145
  930MPD2    C313642   1.260   4.521  14.124
  930MPD2    C413643   1.152   4.508  14.208
  930MPD2    C513644   1.127   4.611  14.297
  930MPD2     H13645   1.440   4.637  14.090
  930MPD2    H113646   1.079   4.429  14.213
  930MPD2    H213647   1.217   4.776  14.413
  930MPD2    H313648   1.035   4.615  14.354
  930MPD2     N13649   1.279   4.417  14.033
  930MPD2    H513650   1.221   4.335  14.043
  930MPD2    N113651   1.409   0.059  14.259
  930MPD2    H713652   1.404   0.117  14.342
  931MPD2     C13653   1.824   4.364  18.969
  931MPD2    C113654   1.697   4.304  18.975
  931MPD2    C213655   1.677   4.193  19.053
  931MPD2    C313656   1.786   4.131  19.113
  931MPD2    C413657   1.908   4.185  19.105
  931MPD2    C513658   1.932   4.301  19.034
  931MPD2     H13659   1.581   4.143  19.047
  931MPD2    H113660   1.991   4.146  19.162
  931MPD2    H213661   1.849   4.448  18.906
  931MPD2    H313662   2.029   4.349  19.037
  931MPD2     N13663   1.778   4.007  19.179
  931MPD2    H513664   1.866   3.960  19.196
  931MPD2    N113665   1.603   4.363  18.889
  931MPD2    H713666   1.640   4.446  18.845
  932MPD2     C13667   2.911   4.015  11.768
  932MPD2    C113668   3.015   3.979  11.687
  932MPD2    C213669   3.074   3.862  11.713
  932MPD2    C313670   3.036   3.782  11.822
  932MPD2    C413671   2.932   3.826  11.905
  932MPD2    C513672   2.873   3.948  11.881
  932MPD2     H13673   3.167   3.845  11.660
  932MPD2    H113674   2.898   3.773  11.994
  932MPD2    H213675   2.852   4.105  11.754
  932MPD2    H313676   2.795   3.992  11.942
  932MPD2     N13677   3.084   3.652  11.837
  932MPD2    H513678   3.085   3.615  11.932
  932MPD2    N113679   3.068   4.064  11.588
  932MPD2    H713680   3.160   4.033  11.559
  933MPD2     C13681   3.796   3.504  19.135
  933MPD2    C113682   3.808   3.406  19.035
  933MPD2    C213683   3.865   3.453  18.917
  933MPD2    C313684   3.890   3.592  18.898
  933MPD2    C413685   3.864   3.679  18.998
  933MPD2    C513686   3.827   3.632  19.120
  933MPD2     H13687   3.894   3.380  18.843
  933MPD2    H113688   3.878   3.786  18.986
  933MPD2    H213689   3.754   3.467  19.228
  933MPD2    H313690   3.831   3.709  19.197
  933MPD2     N13691   3.944   3.642  18.775
  933MPD2    H513692   3.933   3.580  18.695
  933MPD2    N113693   3.755   3.278  19.059
  933MPD2    H713694   3.710   3.260  19.148
  934MPD2     C13695   0.747   1.164  20.237
  934MPD2    C113696   0.810   1.045  20.193
  934MPD2    C213697   0.738   0.961  20.115
  934MPD2    C313698   0.601   0.981  20.090
  934MPD2    C413699   0.540   1.090  20.152
  934MPD2    C513700   0.615   1.183  20.218
  934MPD2     H13701   0.785   0.874  20.070
  934MPD2    H113702   0.433   1.097  20.135
  934MPD2    H213703   0.798   1.235  20.302
  934MPD2    H313704   0.572   1.275  20.256
  934MPD2     N13705   0.515   0.893  20.018
  934MPD2    H513706   0.414   0.905  20.020
  934MPD2    N113707   0.943   1.018  20.228
  934MPD2    H713708   0.984   0.934  20.187
  935MPD2     C13709   0.602   4.774  19.623
  935MPD2    C113710   0.472   0.023  19.598
  935MPD2    C213711   0.425   0.141  19.657
  935MPD2    C313712   0.500   0.212  19.741
  935MPD2    C413713   0.622   0.163  19.782
  935MPD2    C513714   0.670   0.053  19.721
  935MPD2     H13715   0.321   0.165  19.637
  935MPD2    H113716   0.690   0.213  19.849
  935MPD2    H213717   0.648   4.693  19.568
  935MPD2    H313718   0.768   0.025  19.758
  935MPD2     N13719   0.464   0.332  19.805
  935MPD2    H513720   0.535   0.380  19.859
  935MPD2    N113721   0.388   4.734  19.510
  935MPD2    H713722   0.290   4.730  19.536
  936MPD2     C13723   3.755   1.583  12.824
  936MPD2    C113724   3.870   1.637  12.889
  936MPD2    C213725   3.916   1.754  12.839
  936MPD2    C313726   3.856   1.822  12.740
  936MPD2    C413727   3.742   1.776  12.682
  936MPD2    C513728   3.697   1.655  12.727
  936MPD2     H13729   3.993   1.802  12.897
  936MPD2    H113730   3.694   1.831  12.602
  936MPD2    H213731   3.710   1.487  12.846
  936MPD2    H313732   3.622   1.599  12.671
  936MPD2     N13733   3.909   1.942  12.686
  936MPD2    H513734   3.837   2.011  12.668
  936MPD2    N113735   3.921   1.595  13.011
  936MPD2    H713736   4.009   1.630  13.046
  937MPD2     C13737   1.552   2.852  12.176
  937MPD2    C113738   1.557   2.991  12.162
  937MPD2    C213739   1.636   3.052  12.073
  937MPD2    C313740   1.710   2.972  11.990
  937MPD2    C413741   1.709   2.838  12.000
  937MPD2    C513742   1.636   2.778  12.095
  937MPD2     H13743   1.645   3.160  12.065
  937MPD2    H113744   1.759   2.771  11.930
  937MPD2    H213745   1.518   2.805  12.267
  937MPD2    H313746   1.633   2.671  12.113
  937MPD2     N13747   1.797   3.043  11.900
  937MPD2    H513748   1.791   3.144  11.906
  937MPD2    N113749   1.482   3.085  12.235
  937MPD2    H713750   1.476   3.179  12.197
  938MPD2     C13751   4.631   4.216  18.936
  938MPD2    C113752   4.574   4.334  18.970
  938MPD2    C213753   4.494   4.327  19.083
  938MPD2    C313754   4.463   4.209  19.148
  938MPD2    C413755   4.518   4.090  19.101
  938MPD2    C513756   4.595   4.097  18.992
  938MPD2     H13757   4.453   4.415  19.131
  938MPD2    H113758   4.491   3.989  19.130
  938MPD2    H213759   4.694   4.216  18.848
  938MPD2    H313760   4.632   4.004  18.951
  938MPD2     N13761   4.371   4.194  19.260
  938MPD2    H513762   4.362   4.098  19.292
  938MPD2    N113763   4.595   4.458  18.908
  938MPD2    H713764   4.579   4.545  18.958
  939MPD2     C13765   0.896   0.559  19.176
  939MPD2    C113766   0.863   0.675  19.110
  939MPD2    C213767   0.928   0.701  18.990
  939MPD2    C313768   1.006   0.609  18.922
  939MPD2    C413769   1.028   0.496  18.992
  939MPD2    C513770   0.977   0.471  19.115
  939MPD2     H13771   0.901   0.790  18.935
  939MPD2    H113772   1.094   0.423  18.946
  939MPD2    H213773   0.853   0.519  19.267
  939MPD2    H313774   0.994   0.376  19.164
  939MPD2     N13775   1.057   0.657  18.801
  939MPD2    H513776   1.006   0.730  18.752
  939MPD2    N113777   0.778   0.775  19.172
  939MPD2    H713778   0.769   0.771  19.273
  940MPD2     C13779   4.549   2.158  13.733
  940MPD2    C113780   4.500   2.028  13.731
  940MPD2    C213781   4.502   1.956  13.613
  940MPD2    C313782   4.564   2.009  13.501
  940MPD2    C413783   4.617   2.137  13.508
  940MPD2    C513784   4.607   2.209  13.622
  940MPD2     H13785   4.465   1.854  13.609
  940MPD2    H113786   4.669   2.169  13.418
  940MPD2    H213787   4.545   2.224  13.819
  940MPD2    H313788   4.646   2.310  13.625
  940MPD2     N13789   4.592   1.930  13.386
  940MPD2    H513790   4.647   1.967  13.309
  940MPD2    N113791   4.440   1.971  13.847
  940MPD2    H713792   4.393   1.882  13.837
  941MPD2     C13793   3.439   1.201   9.906
  941MPD2    C113794   3.550   1.145   9.961
  941MPD2    C213795   3.537   1.020  10.021
  941MPD2    C313796   3.409   0.970  10.058
  941MPD2    C413797   3.297   1.039  10.012
  941MPD2    C513798   3.312   1.151   9.938
  941MPD2     H13799   3.628   0.973  10.056
  941MPD2    H113800   3.195   1.014  10.040
  941MPD2    H213801   3.424   1.290   9.846
  941MPD2    H313802   3.227   1.205   9.897
  941MPD2     N13803   3.391   0.866  10.145
  941MPD2    H513804   3.299   0.826  10.158
  941MPD2    N113805   3.674   1.214   9.965
  941MPD2    H713806   3.739   1.175  10.033
  942MPD2     C13807   3.041   2.949   9.078
  942MPD2    C113808   3.089   2.817   9.056
  942MPD2    C213809   3.223   2.806   9.024
  942MPD2    C313810   3.302   2.915   9.001
  942MPD2    C413811   3.246   3.043   9.007
  942MPD2    C513812   3.122   3.051   9.043
  942MPD2     H13813   3.264   2.706   9.036
  942MPD2    H113814   3.301   3.136   9.000
  942MPD2    H213815   2.943   2.972   9.119
  942MPD2    H313816   3.081   3.151   9.047
  942MPD2     N13817   3.438   2.907   8.966
  942MPD2    H513818   3.493   2.991   8.984
  942MPD2    N113819   3.019   2.698   9.091
  942MPD2    H713820   3.066   2.608   9.082
  943MPD2     C13821   1.977   0.725  10.037
  943MPD2    C113822   2.106   0.762  10.071
  943MPD2    C213823   2.146   0.889  10.027
  943MPD2    C313824   2.054   0.979   9.981
  943MPD2    C413825   1.923   0.938   9.957
  943MPD2    C513826   1.888   0.809   9.979
  943MPD2     H13827   2.252   0.911  10.015
  943MPD2    H113828   1.842   1.005   9.928
  943MPD2    H213829   1.939   0.626  10.060
  943MPD2    H313830   1.782   0.789   9.970
  943MPD2     N13831   2.084   1.112   9.944
  943MPD2    H513832   2.018   1.161   9.885
  943MPD2    N113833   2.185   0.665  10.138
  943MPD2    H713834   2.139   0.575  10.149
  944MPD2     C13835   1.800   4.720  11.471
  944MPD2    C113836   1.873   0.051  11.438
  944MPD2    C213837   1.832   0.174  11.472
  944MPD2    C313838   1.724   0.190  11.556
  944MPD2    C413839   1.643   0.078  11.578
  944MPD2    C513840   1.675   4.738  11.527
  944MPD2     H13841   1.894   0.257  11.440
  944MPD2    H113842   1.553   0.092  11.637
  944MPD2    H213843   1.829   4.618  11.447
  944MPD2    H313844   1.610   4.653  11.542
  944MPD2     N13845   1.697   0.318  11.615
  944MPD2    H513846   1.771   0.384  11.596
  944MPD2    N113847   2.002   0.023  11.375
  944MPD2    H713848   2.037   4.708  11.377
    1TCq1    O113849   0.623   0.344  14.640
    1TCq1    C113850   0.635   0.448  14.547
    1TCq1    O213851   0.546   0.506  14.487
    1TCq1    C213852   0.763   0.499  14.568
    1TCq1    C313853   0.860   0.404  14.560
    1TCq1    C413854   0.972   0.423  14.639
    1TCq1    C513855   0.972   0.520  14.733
    1TCq1    C613856   0.871   0.610  14.747
    1TCq1    C713857   0.767   0.603  14.656
    1TCq1    C813858   0.882   0.713  14.844
    1TCq1    O413859   0.966   0.703  14.933
    1TCq1    C913860   1.089   0.339  14.622
    1TCq1    O513861   1.198   0.380  14.667
    1TCq1    O613862   1.074   0.233  14.557
    1TCq1    H113863   0.703   0.328  14.695
    1TCq1    H213864   0.850   0.314  14.500
    1TCq1    H313865   1.050   0.528  14.807
    1TCq1    H413866   0.676   0.660  14.666
    2MPD2     C13867   0.770   1.158  15.061
    2MPD2    C113868   0.715   1.164  14.933
    2MPD2    C213869   0.717   1.045  14.856
    2MPD2    C313870   0.781   0.929  14.905
    2MPD2    C413871   0.834   0.933  15.034
    2MPD2    C513872   0.819   1.044  15.106
    2MPD2     H13873   0.677   1.036  14.756
    2MPD2    H113874   0.875   0.847  15.086
    2MPD2    H213875   0.780   1.242  15.129
    2MPD2    H313876   0.874   1.057  15.199
    2MPD2     N13877   0.795   0.819  14.819
    2MPD2    H513878   0.722   0.816  14.749
    2MPD2    N113879   0.654   1.287  14.901
    2MPD2    H713880   0.672   1.370  14.956
    3TMC2    C113881   0.538   1.446  14.761
    3TMC2    C213882   0.588   1.551  14.831
    3TMC2    C313883   0.562   1.675  14.787
    3TMC2    C413884   0.469   1.469  14.641
    3TMC2    C513885   0.447   1.598  14.605
    3TMC2    C613886   0.488   1.706  14.674
    3TMC2     C13887   0.580   1.310  14.784
    3TMC2     O13888   0.539   1.218  14.714
    3TMC2     H13889   0.634   1.536  14.928
    3TMC2    H113890   0.417   1.390  14.588
    3TMC2    H213891   0.459   1.810  14.662
    3TMC2    C713892   0.360   1.620  14.493
    3TMC2    C813893   0.609   1.783  14.864
    3TMC2    O113894   0.289   1.526  14.450
    3TMC2    O213895   0.546   1.889  14.868
    3TMC2    O513896   0.714   1.753  14.935
    3TMC2    H513897   0.757   1.674  14.896
    4TMC2    C113898   0.281   2.475  14.004
    4TMC2    C213899   0.403   2.536  13.988
    4TMC2    C313900   0.519   2.466  13.996
    4TMC2    C413901   0.278   2.347  14.049
    4TMC2    C513902   0.393   2.270  14.047
    4TMC2    C613903   0.516   2.328  14.018
    4TMC2     C13904   0.162   2.562  14.036
    4TMC2     O13905   0.180   2.676  14.082
    4TMC2     H13906   0.404   2.643  13.970
    4TMC2    H113907   0.179   2.312  14.077
    4TMC2    H213908   0.606   2.267  14.023
    4TMC2    C713909   0.391   2.155  14.130
    4TMC2    C813910   0.643   2.538  13.988
    4TMC2    O113911   0.496   2.122  14.188
    4TMC2    O213912   0.648   2.644  13.923
    4TMC2    O513913   0.714   2.512  14.094
    4TMC2    H513914   0.690   2.433  14.147
    5MPD2     C13915   4.446   2.600  14.121
    5MPD2    C113916   4.462   2.527  13.998
    5MPD2    C213917   4.595   2.498  13.964
    5MPD2    C313918   4.704   2.536  14.039
    5MPD2    C413919   4.686   2.615  14.150
    5MPD2    C513920   4.557   2.640  14.191
    5MPD2     H13921   4.617   2.435  13.879
    5MPD2    H113922   4.768   2.636  14.218
    5MPD2    H213923   4.351   2.633  14.162
    5MPD2    H313924   4.537   2.685  14.288
    5MPD2     N13925   0.050   2.500  13.992
    5MPD2    H513926   0.058   2.425  13.924
    5MPD2    N113927   4.348   2.483  13.925
    5MPD2    H713928   4.260   2.487  13.976
    6MPD1     C13929   3.357   3.812  13.798
    6MPD1    C113930   3.460   3.821  13.708
    6MPD1    C213931   3.547   3.713  13.694
    6MPD1    C313932   3.519   3.589  13.751
    6MPD1    C413933   3.417   3.584  13.846
    6MPD1    C513934   3.336   3.690  13.864
    6MPD1     H13935   3.631   3.725  13.626
    6MPD1    H113936   3.390   3.492  13.897
    6MPD1    H213937   3.297   3.899  13.822
    6MPD1    H313938   3.259   3.677  13.940
    6MPD1     N13939   3.592   3.470  13.731
    6MPD1    H513940   3.554   3.383  13.768
    6MPD1    N113941   3.474   3.946  13.652
    6MPD1    H613942   3.382   3.989  13.643
    6MPD1    H713943   3.520   3.947  13.561
    7MPD2     C13944   3.674   2.891  13.724
    7MPD2    C113945   3.787   2.861  13.802
    7MPD2    C213946   3.829   2.732  13.805
    7MPD2    C313947   3.773   2.640  13.715
    7MPD2    C413948   3.664   2.672  13.631
    7MPD2    C513949   3.620   2.801  13.634
    7MPD2     H13950   3.911   2.699  13.868
    7MPD2    H113951   3.616   2.598  13.568
    7MPD2    H213952   3.638   2.993  13.716
    7MPD2    H313953   3.538   2.833  13.571
    7MPD2     N13954   3.832   2.516  13.710
    7MPD2    H513955   3.809   2.462  13.627
    7MPD2    N113956   3.836   2.938  13.912
    7MPD2    H713957   3.883   2.887  13.986
    8TMC3    C113958   4.008   2.360  13.737
    8TMC3    C213959   4.127   2.372  13.803
    8TMC3    C313960   4.235   2.411  13.727
    8TMC3    C413961   3.993   2.366  13.600
    8TMC3    C513962   4.104   2.393  13.531
    8TMC3    C613963   4.228   2.415  13.588
    8TMC3     C13964   3.917   2.455  13.802
    8TMC3     O13965   3.949   2.488  13.915
    8TMC3     H13966   4.136   2.363  13.911
    8TMC3    H113967   3.900   2.334  13.555
    8TMC3    H213968   4.318   2.433  13.530
    8TMC3    C713969   4.082   2.472  13.407
    8TMC3    C813970   4.360   2.454  13.792
    8TMC3    O113971   4.174   2.539  13.362
    8TMC3    O213972   4.456   2.465  13.710
    9TMC3    C113973   3.752   3.322  13.650
    9TMC3    C213974   3.806   3.271  13.540
    9TMC3    C313975   3.885   3.158  13.544
    9TMC3    C413976   3.777   3.263  13.776
    9TMC3    C513977   3.847   3.146  13.785
    9TMC3    C613978   3.907   3.099  13.667
    9TMC3     C13979   3.695   3.460  13.642
    9TMC3     O13980   3.737   3.544  13.561
    9TMC3     H13981   3.791   3.308  13.439
    9TMC3    H113982   3.750   3.312  13.869
    9TMC3    H213983   3.969   3.011  13.681
    9TMC3    C713984   3.845   3.079  13.909
    9TMC3    C813985   3.862   3.071  13.429
    9TMC3    O113986   3.859   3.152  14.005
    9TMC3    O213987   3.782   3.111  13.343
   10MPD2     C13988   3.790   2.603  13.240
   10MPD2    C113989   3.899   2.602  13.319
   10MPD2    C213990   3.939   2.715  13.385
   10MPD2    C313991   3.874   2.836  13.360
   10MPD2    C413992   3.755   2.832  13.291
   10MPD2    C513993   3.712   2.713  13.238
   10MPD2     H13994   4.028   2.700  13.445
   10MPD2    H113995   3.691   2.919  13.286
   10MPD2    H213996   3.760   2.514  13.187
   10MPD2    H313997   3.629   2.707  13.168
   10MPD2     N13998   3.915   2.947  13.441
   10MPD2    H513999   3.995   2.937  13.503
   10MPD2    N114000   3.952   2.479  13.368
   10MPD2    H714001   3.894   2.396  13.363
   11MPD2     C14002   0.167   1.722  14.294
   11MPD2    C114003   0.282   1.784  14.333
   11MPD2    C214004   0.314   1.908  14.277
   11MPD2    C314005   0.244   1.966  14.170
   11MPD2    C414006   0.129   1.896  14.126
   11MPD2    C514007   0.098   1.770  14.186
   11MPD2     H14008   0.405   1.958  14.308
   11MPD2    H114009   0.069   1.932  14.043
   11MPD2    H214010   0.120   1.633  14.334
   11MPD2    H314011   0.019   1.710  14.141
   11MPD2     N14012   0.281   2.084  14.105
   11MPD2    H514013   0.222   2.117  14.030
   11MPD2    N114014   0.367   1.744  14.434
   11MPD2    H714015   0.456   1.792  14.443
    1MPD1     C14016   2.321   2.931  17.370
    1MPD1    C114017   2.399   3.046  17.394
    1MPD1    C214018   2.479   3.088  17.289
    1MPD1    C314019   2.484   3.027  17.164
    1MPD1    C414020   2.418   2.911  17.150
    1MPD1    C514021   2.331   2.867  17.249
    1MPD1     H14022   2.539   3.174  17.314
    1MPD1    H114023   2.407   2.862  17.054
    1MPD1    H214024   2.254   2.886  17.443
    1MPD1    H314025   2.265   2.783  17.233
    1MPD1     N14026   2.552   3.082  17.053
    1MPD1    H514027   2.554   3.019  16.973
    1MPD1    N114028   2.415   3.092  17.525
    1MPD1    H614029   2.334   3.085  17.587
    1MPD1    H714030   2.447   3.188  17.533
    2MPD1     C14031   3.221   3.822  17.031
    2MPD1    C114032   3.106   3.829  17.101
    2MPD1    C214033   3.003   3.737  17.068
    2MPD1    C314034   3.012   3.662  16.949
    2MPD1    C414035   3.131   3.658  16.885
    2MPD1    C514036   3.231   3.744  16.919
    2MPD1     H14037   2.907   3.732  17.119
    2MPD1    H114038   3.151   3.596  16.799
    2MPD1    H214039   3.301   3.890  17.060
    2MPD1    H314040   3.315   3.749  16.851
    2MPD1     N14041   2.908   3.565  16.916
    2MPD1    H514042   2.828   3.553  16.977
    2MPD1    N114043   3.105   3.895  17.225
    2MPD1    H614044   3.175   3.966  17.245
    2MPD1    H714045   3.013   3.931  17.249
    3TMC3    C114046   2.790   3.398  16.802
    3TMC3    C214047   2.725   3.365  16.688
    3TMC3    C314048   2.632   3.262  16.695
    3TMC3    C414049   2.763   3.335  16.923
    3TMC3    C514050   2.677   3.227  16.924
    3TMC3    C614051   2.606   3.196  16.812
    3TMC3     C14052   2.902   3.487  16.797
    3TMC3     O14053   2.971   3.503  16.698
    3TMC3     H14054   2.742   3.434  16.607
    3TMC3    H114055   2.827   3.358  17.008
    3TMC3    H214056   2.527   3.122  16.818
    3TMC3    C714057   2.606   3.205  17.046
    3TMC3    C814058   2.553   3.238  16.580
    3TMC3    O114059   2.622   3.292  17.131
    3TMC3    O214060   2.462   3.159  16.600
    4MPD1     C14061   2.431   3.316  16.088
    4MPD1    C114062   2.562   3.351  16.103
    4MPD1    C214063   2.608   3.359  16.234
    4MPD1    C314064   2.542   3.292  16.341
    4MPD1    C414065   2.424   3.239  16.322
    4MPD1    C514066   2.365   3.258  16.194
    4MPD1     H14067   2.708   3.388  16.265
    4MPD1    H114068   2.356   3.199  16.397
    4MPD1    H214069   2.380   3.314  15.992
    4MPD1    H314070   2.264   3.224  16.174
    4MPD1     N14071   2.602   3.296  16.469
    4MPD1    H514072   2.698   3.329  16.469
    4MPD1    N114073   2.620   3.423  15.997
    4MPD1    H614074   2.722   3.430  15.996
    4MPD1    H714075   2.595   3.378  15.909
    1TCq1    O114076   4.241   2.919  11.811
    1TCq1    C114077   4.158   3.010  11.860
    1TCq1    O214078   4.149   3.053  11.976
    1TCq1    C214079   4.053   3.030  11.761
    1TCq1    C314080   4.044   2.950  11.648
    1TCq1    C414081   3.961   2.982  11.544
    1TCq1    C514082   3.887   3.100  11.555
    1TCq1    C614083   3.917   3.185  11.658
    1TCq1    C714084   4.003   3.153  11.762
    1TCq1    C814085   3.834   3.307  11.678
    1TCq1    O414086   3.870   3.370  11.774
    1TCq1    C914087   3.914   2.888  11.452
    1TCq1    O514088   3.830   2.929  11.367
    1TCq1    O614089   3.958   2.770  11.463
    1TCq1    H114090   4.254   2.933  11.715
    1TCq1    H214091   4.084   2.850  11.659
    1TCq1    H314092   3.822   3.127  11.473
    1TCq1    H414093   4.023   3.222  11.844
    2MPD1     C14094   3.441   3.625  11.612
    2MPD1    C114095   3.449   3.547  11.500
    2MPD1    C214096   3.553   3.449  11.496
    2MPD1    C314097   3.632   3.425  11.604
    2MPD1    C414098   3.618   3.501  11.719
    2MPD1    C514099   3.525   3.605  11.719
    2MPD1     H14100   3.569   3.391  11.406
    2MPD1    H114101   3.674   3.480  11.809
    2MPD1    H214102   3.362   3.699  11.619
    2MPD1    H314103   3.507   3.667  11.806
    2MPD1     N14104   3.728   3.326  11.595
    2MPD1    H514105   3.726   3.268  11.512
    2MPD1    N114106   3.391   3.593  11.380
    2MPD1    H614107   3.392   3.512  11.318
    2MPD1    H714108   3.293   3.613  11.397
    1TCq1    O114109   1.562   4.120  20.079
    1TCq1    C114110   1.576   4.166  19.953
    1TCq1    O214111   1.504   4.247  19.897
    1TCq1    C214112   1.707   4.131  19.896
    1TCq1    C314113   1.755   4.014  19.935
    1TCq1    C414114   1.873   3.976  19.883
    1TCq1    C514115   1.956   4.076  19.836
    1TCq1    C614116   1.912   4.206  19.816
    1TCq1    C714117   1.781   4.234  19.842
    1TCq1    C814118   2.007   4.310  19.775
    1TCq1    O414119   2.127   4.286  19.774
    1TCq1    C914120   1.931   3.859  19.935
    1TCq1    O514121   2.057   3.847  19.936
    1TCq1    O614122   1.853   3.759  19.950
    1TCq1    H114123   1.644   4.076  20.112
    1TCq1    H214124   1.692   3.939  19.981
    1TCq1    H314125   2.058   4.047  19.813
    1TCq1    H414126   1.732   4.330  19.839
    2MPD1     C14127   2.126   0.016  19.629
    2MPD1    C114128   1.992   4.777  19.627
    2MPD1    C214129   1.942   4.655  19.667
    2MPD1    C314130   2.017   4.542  19.701
    2MPD1    C414131   2.150   4.562  19.707
    2MPD1    C514132   2.199   4.690  19.669
    2MPD1     H14133   1.834   4.656  19.679
    2MPD1    H114134   2.225   4.488  19.733
    2MPD1    H214135   2.172   0.112  19.610
    2MPD1    H314136   2.307   4.687  19.657
    2MPD1     N14137   1.944   4.422  19.735
    2MPD1    H514138   1.843   4.417  19.725
    2MPD1    N114139   1.903   0.108  19.620
    2MPD1    H614140   1.938   0.162  19.542
    2MPD1    H714141   1.808   0.080  19.596
    1MPD1     C14142   0.353   2.639  12.628
    1MPD1    C114143   0.431   2.629  12.514
    1MPD1    C214144   0.478   2.748  12.453
    1MPD1    C314145   0.452   2.875  12.520
    1MPD1    C414146   0.382   2.874  12.641
    1MPD1    C514147   0.319   2.763  12.691
    1MPD1     H14148   0.537   2.740  12.363
    1MPD1    H114149   0.354   2.973  12.674
    1MPD1    H214150   0.309   2.546  12.663
    1MPD1    H314151   0.252   2.777  12.775
    1MPD1     N14152   0.521   2.986  12.476
    1MPD1    H514153   0.603   2.974  12.417
    1MPD1    N114154   0.436   2.501  12.446
    1MPD1    H614155   0.451   2.426  12.513
    1MPD1    H714156   0.511   2.498  12.377
    2MPD1     C14157   0.145   3.535  11.944
    2MPD1    C114158   0.094   3.542  11.810
    2MPD1    C214159   0.148   3.458  11.712
    2MPD1    C314160   0.252   3.370  11.747
    2MPD1    C414161   0.303   3.370  11.872
    2MPD1    C514162   0.249   3.450  11.971
    2MPD1     H14163   0.103   3.467  11.614
    2MPD1    H114164   0.371   3.290  11.900
    2MPD1    H214165   0.114   3.601  12.024
    2MPD1    H314166   0.288   3.437  12.071
    2MPD1     N14167   0.304   3.268  11.656
    2MPD1    H514168   0.384   3.213  11.686
    2MPD1    N114169   4.780   3.640  11.776
    2MPD1    H614170   4.729   3.619  11.690
    2MPD1    H714171   4.718   3.654  11.856
    3MPD1     C14172   4.762   2.796  10.835
    3MPD1    C114173   4.753   2.737  10.960
    3MPD1    C214174   0.059   2.777  11.059
    3MPD1    C314175   0.168   2.869  11.034
    3MPD1    C414176   0.172   2.927  10.911
    3MPD1    C514177   0.081   2.890  10.810
    3MPD1     H14178   0.055   2.742  11.161
    3MPD1    H114179   0.241   3.007  10.887
    3MPD1    H214180   4.696   2.775  10.752
    3MPD1    H314181   0.076   2.941  10.714
    3MPD1     N14182   0.240   2.918  11.144
    3MPD1    H514183   0.208   2.893  11.237
    3MPD1    N114184   4.648   2.655  10.997
    3MPD1    H614185   4.696   2.583  11.051
    3MPD1    H714186   4.597   2.618  10.917
    4MPD2     C14187   0.641   3.459  11.954
    4MPD2    C114188   0.735   3.512  12.036
    4MPD2    C214189   0.855   3.555  11.989
    4MPD2    C314190   0.889   3.535  11.858
    4MPD2    C414191   0.798   3.474  11.772
    4MPD2    C514192   0.676   3.439  11.821
    4MPD2     H14193   0.935   3.596  12.049
    4MPD2    H114194   0.811   3.445  11.668
    4MPD2    H214195   0.547   3.414  11.984
    4MPD2    H314196   0.608   3.399  11.747
    4MPD2     N14197   1.025   3.549  11.811
    4MPD2    H514198   1.041   3.519  11.715
    4MPD2    N114199   0.711   3.521  12.178
    4MPD2    H714200   0.797   3.550  12.224
    5TMC3    C114201   0.626   3.430  12.381
    5TMC3    C214202   0.528   3.333  12.412
    5TMC3    C314203   0.572   3.213  12.449
    5TMC3    C414204   0.759   3.408  12.396
    5TMC3    C514205   0.798   3.280  12.406
    5TMC3    C614206   0.700   3.180  12.432
    5TMC3     C14207   0.598   3.473  12.244
    5TMC3     O14208   0.489   3.431  12.202
    5TMC3     H14209   0.423   3.356  12.423
    5TMC3    H114210   0.836   3.484  12.403
    5TMC3    H214211   0.732   3.083  12.469
    5TMC3    C714212   0.926   3.243  12.352
    5TMC3    C814213   0.482   3.113  12.504
    5TMC3    O114214   0.996   3.337  12.324
    5TMC3    O214215   0.382   3.161  12.555
    6TMC3    C114216   0.350   3.165  11.455
    6TMC3    C214217   0.294   3.094  11.349
    6TMC3    C314218   0.392   3.051  11.264
    6TMC3    C414219   0.479   3.197  11.475
    6TMC3    C514220   0.568   3.152  11.382
    6TMC3    C614221   0.526   3.081  11.275
    6TMC3     C14222   0.253   3.237  11.536
    6TMC3     O14223   0.138   3.251  11.495
    6TMC3     H14224   0.187   3.080  11.343
    6TMC3    H114225   0.523   3.239  11.564
    6TMC3    H214226   0.595   3.057  11.195
    6TMC3    C714227   0.708   3.170  11.414
    6TMC3    C814228   0.347   3.004  11.135
    6TMC3    O114229   0.744   3.270  11.470
    6TMC3    O214230   0.427   3.023  11.042
    7MPD2     C14231   1.196   2.959  12.005
    7MPD2    C114232   1.204   3.093  12.035
    7MPD2    C214233   1.117   3.143  12.129
    7MPD2    C314234   1.029   3.066  12.196
    7MPD2    C414235   1.030   2.927  12.172
    7MPD2    C514236   1.105   2.879  12.066
    7MPD2     H14237   1.130   3.248  12.150
    7MPD2    H114238   0.958   2.860  12.216
    7MPD2    H214239   1.248   2.909  11.924
    7MPD2    H314240   1.085   2.777  12.036
    7MPD2     N14241   0.935   3.113  12.301
    7MPD2    H514242   0.862   3.051  12.334
    7MPD2    N114243   1.306   3.174  11.975
    7MPD2    H714244   1.349   3.124  11.898
    8TMC3    C114245   1.365   3.386  11.889
    8TMC3    C214246   1.344   3.322  11.773
    8TMC3    C314247   1.279   3.393  11.680
    8TMC3    C414248   1.322   3.512  11.916
    8TMC3    C514249   1.250   3.580  11.817
    8TMC3    C614250   1.236   3.522  11.694
    8TMC3     C14251   1.338   3.305  12.009
    8TMC3     O14252   1.340   3.360  12.122
    8TMC3     H14253   1.379   3.221  11.756
    8TMC3    H114254   1.330   3.561  12.013
    8TMC3    H214255   1.191   3.585  11.618
    8TMC3    C714256   1.121   3.631  11.865
    8TMC3    C814257   1.192   3.321  11.579
    8TMC3    O114258   1.127   3.703  11.962
    8TMC3    O214259   1.103   3.397  11.538
    9MPD2     C14260   1.154   2.958  11.539
    9MPD2    C114261   1.118   3.093  11.530
    9MPD2    C214262   0.996   3.126  11.483
    9MPD2    C314263   0.911   3.029  11.432
    9MPD2    C414264   0.950   2.900  11.440
    9MPD2    C514265   1.067   2.863  11.499
    9MPD2     H14266   0.969   3.231  11.479
    9MPD2    H114267   0.879   2.819  11.427
    9MPD2    H214268   1.249   2.935  11.587
    9MPD2    H314269   1.079   2.757  11.516
    9MPD2     N14270   0.778   3.053  11.396
    9MPD2    H514271   0.730   2.990  11.333
    9MPD2    N114272   1.202   3.186  11.592
    9MPD2    H714273   1.276   3.133  11.637
    1MPD1     C14274   0.796   2.280  17.128
    1MPD1    C114275   0.810   2.289  16.991
    1MPD1    C214276   0.742   2.204  16.904
    1MPD1    C314277   0.656   2.115  16.958
    1MPD1    C414278   0.630   2.112  17.097
    1MPD1    C514279   0.705   2.192  17.178
    1MPD1     H14280   0.761   2.202  16.797
    1MPD1    H114281   0.562   2.045  17.148
    1MPD1    H214282   0.853   2.342  17.196
    1MPD1    H314283   0.694   2.188  17.286
    1MPD1     N14284   0.574   2.031  16.878
    1MPD1    H514285   0.523   1.956  16.924
    1MPD1    N114286   0.915   2.364  16.930
    1MPD1    H614287   0.942   2.446  16.984
    1MPD1    H714288   0.893   2.398  16.837
    2TMC2    C114289   0.454   1.738  16.526
    2TMC2    C214290   0.373   1.667  16.608
    2TMC2    C314291   0.342   1.727  16.727
    2TMC2    C414292   0.512   1.856  16.560
    2TMC2    C514293   0.495   1.903  16.693
    2TMC2    C614294   0.404   1.839  16.772
    2TMC2     C14295   0.464   1.687  16.396
    2TMC2     O14296   0.432   1.572  16.373
    2TMC2     H14297   0.324   1.575  16.579
    2TMC2    H114298   0.587   1.904  16.499
    2TMC2    H214299   0.381   1.873  16.872
    2TMC2    C714300   0.577   2.012  16.741
    2TMC2    C814301   0.270   1.647  16.828
    2TMC2    O114302   0.636   2.074  16.653
    2TMC2    O214303   0.268   1.525  16.828
    2TMC2    O514304   0.160   1.722  16.858
    2TMC2    H514305   0.159   1.815  16.828
    3MPD1     C14306   0.570   1.718  15.904
    3MPD1    C114307   0.536   1.841  15.953
    3MPD1    C214308   0.503   1.847  16.083
    3MPD1    C314309   0.525   1.746  16.169
    3MPD1    C414310   0.575   1.626  16.125
    3MPD1    C514311   0.597   1.611  15.991
    3MPD1     H14312   0.457   1.939  16.117
    3MPD1    H114313   0.595   1.540  16.188
    3MPD1    H214314   0.585   1.706  15.797
    3MPD1    H314315   0.628   1.514  15.953
    3MPD1     N14316   0.495   1.780  16.303
    3MPD1    H514317   0.464   1.875  16.322
    3MPD1    N114318   0.497   1.944  15.863
    3MPD1    H614319   0.487   2.038  15.901
    3MPD1    H714320   0.535   1.938  15.769
    1TCq1    O114321   3.145   0.906  13.286
    1TCq1    C114322   3.110   0.788  13.347
    1TCq1    O214323   2.999   0.735  13.335
    1TCq1    C214324   3.198   0.770  13.465
    1TCq1    C314325   3.138   0.733  13.578
    1TCq1    C414326   3.204   0.762  13.694
    1TCq1    C514327   3.332   0.814  13.693
    1TCq1    C614328   3.393   0.841  13.575
    1TCq1    C714329   3.325   0.824  13.457
    1TCq1    C814330   3.533   0.893  13.566
    1TCq1    O414331   3.565   0.938  13.458
    1TCq1    C914332   3.142   0.737  13.822
    1TCq1    O514333   3.223   0.734  13.916
    1TCq1    O614334   3.021   0.706  13.816
    1TCq1    H114335   3.242   0.919  13.295
    1TCq1    H214336   3.035   0.700  13.575
    1TCq1    H314337   3.376   0.840  13.789
    1TCq1    H414338   3.377   0.842  13.364
    2MPD2     C14339   3.796   1.021  13.611
    2MPD2    C114340   3.732   0.941  13.704
    2MPD2    C214341   3.794   0.923  13.827
    2MPD2    C314342   3.913   0.979  13.861
    2MPD2    C414343   3.978   1.056  13.766
    2MPD2    C514344   3.916   1.079  13.645
    2MPD2     H14345   3.737   0.868  13.901
    2MPD2    H114346   4.073   1.104  13.786
    2MPD2    H214347   3.755   1.054  13.516
    2MPD2    H314348   3.972   1.149  13.584
    2MPD2     N14349   3.963   0.958  13.996
    2MPD2    H514350   3.948   0.869  14.042
    2MPD2    N114351   3.606   0.880  13.684
    2MPD2    H714352   3.569   0.825  13.761
    3TCq1    O114353   4.453   1.209  14.222
    3TCq1    C114354   4.474   1.079  14.242
    3TCq1    O214355   4.572   1.009  14.214
    3TCq1    C214356   4.338   1.028  14.267
    3TCq1    C314357   4.336   0.902  14.316
    3TCq1    C414358   4.232   0.819  14.288
    3TCq1    C514359   4.126   0.870  14.220
    3TCq1    C614360   4.132   0.996  14.163
    3TCq1    C714361   4.236   1.082  14.195
    3TCq1    C814362   4.042   1.049  14.059
    3TCq1    O414363   4.064   1.163  14.021
    3TCq1    C914364   4.240   0.678  14.321
    3TCq1    O514365   4.198   0.608  14.227
    3TCq1    O614366   4.324   0.636  14.406
    3TCq1    H114367   4.386   1.247  14.284
    3TCq1    H214368   4.414   0.857  14.376
    3TCq1    H314369   4.050   0.796  14.200
    3TCq1    H414370   4.245   1.178  14.145
    1MPD2     C14371   3.041   2.202  15.167
    1MPD2    C114372   2.967   2.087  15.176
    1MPD2    C214373   3.033   1.969  15.122
    1MPD2    C314374   3.164   1.976  15.076
    1MPD2    C414375   3.231   2.094  15.070
    1MPD2    C514376   3.161   2.203  15.107
    1MPD2     H14377   2.986   1.871  15.122
    1MPD2    H114378   3.331   2.100  15.029
    1MPD2    H214379   2.991   2.294  15.195
    1MPD2    H314380   3.214   2.296  15.123
    1MPD2     N14381   3.227   1.860  15.024
    1MPD2    H514382   3.328   1.860  15.033
    1MPD2    N114383   2.837   2.078  15.216
    1MPD2    H714384   2.796   2.169  15.233
    2TMC3    C114385   2.619   1.978  15.246
    2TMC3    C214386   2.563   1.850  15.261
    2TMC3    C314387   2.468   1.813  15.168
    2TMC3    C414388   2.562   2.066  15.163
    2TMC3    C514389   2.457   2.033  15.076
    2TMC3    C614390   2.410   1.906  15.077
    2TMC3     C14391   2.763   1.962  15.235
    2TMC3     O14392   2.792   1.845  15.217
    2TMC3     H14393   2.601   1.767  15.319
    2TMC3    H114394   2.596   2.169  15.168
    2TMC3    H214395   2.349   1.874  14.993
    2TMC3    C714396   2.438   2.105  14.957
    2TMC3    C814397   2.472   1.675  15.127
    2TMC3    O114398   2.350   2.069  14.880
    2TMC3    O214399   2.382   1.634  15.057
    3TCq1    O114400   2.910   3.157  14.609
    3TCq1    C114401   3.022   3.105  14.656
    3TCq1    O214402   3.121   3.170  14.686
    3TCq1    C214403   2.973   2.994  14.735
    3TCq1    C314404   3.041   2.969  14.849
    3TCq1    C414405   2.999   2.863  14.927
    3TCq1    C514406   2.892   2.786  14.888
    3TCq1    C614407   2.829   2.817  14.774
    3TCq1    C714408   2.875   2.914  14.697
    3TCq1    C814409   2.723   2.733  14.726
    3TCq1    O414410   2.656   2.770  14.629
    3TCq1    C914411   3.063   2.832  15.048
    3TCq1    O514412   3.147   2.914  15.088
    3TCq1    O614413   3.041   2.721  15.101
    3TCq1    H114414   2.830   3.103  14.593
    3TCq1    H214415   3.128   3.027  14.877
    3TCq1    H314416   2.846   2.719  14.960
    3TCq1    H414417   2.840   2.917  14.595
    4MPD2     C14418   2.537   2.508  14.645
    4MPD2    C114419   2.630   2.502  14.744
    4MPD2    C214420   2.630   2.392  14.831
    4MPD2    C314421   2.529   2.299  14.832
    4MPD2    C414422   2.440   2.306  14.727
    4MPD2    C514423   2.447   2.405  14.636
    4MPD2     H14424   2.686   2.393  14.924
    4MPD2    H114425   2.358   2.236  14.719
    4MPD2    H214426   2.537   2.576  14.561
    4MPD2    H314427   2.378   2.413  14.553
    4MPD2     N14428   2.532   2.201  14.936
    4MPD2    H514429   2.589   2.230  15.015
    4MPD2    N114430   2.719   2.604  14.779
    4MPD2    H714431   2.804   2.582  14.831
    5MPD2     C14432   2.582   1.428  14.981
    5MPD2    C114433   2.652   1.503  15.074
    5MPD2    C214434   2.778   1.465  15.106
    5MPD2    C314435   2.838   1.357  15.042
    5MPD2    C414436   2.770   1.283  14.947
    5MPD2    C514437   2.641   1.316  14.924
    5MPD2     H14438   2.830   1.541  15.162
    5MPD2    H114439   2.817   1.200  14.895
    5MPD2    H214440   2.481   1.449  14.947
    5MPD2    H314441   2.572   1.259  14.863
    5MPD2     N14442   2.981   1.330  15.044
    5MPD2    H514443   3.016   1.274  14.967
    5MPD2    N114444   2.602   1.627  15.129
    5MPD2    H714445   2.674   1.673  15.183
    6TCq2    C114446   3.059   1.375  15.150
    6TCq2    O214447   3.026   1.427  15.254
    6TCq2    C214448   3.191   1.420  15.098
    6TCq2    C314449   3.289   1.431  15.191
    6TCq2    C414450   3.384   1.529  15.186
    6TCq2    C514451   3.357   1.635  15.105
    6TCq2    C614452   3.246   1.630  15.018
    6TCq2    C714453   3.174   1.519  15.003
    6TCq2    C814454   3.164   1.748  14.985
    6TCq2    O414455   3.057   1.739  14.930
    6TCq2    C914456   3.491   1.534  15.273
    6TCq2    O514457   3.591   1.596  15.232
    6TCq2    O614458   3.480   1.472  15.381
    6TCq2    H214459   3.308   1.368  15.277
    6TCq2    H314460   3.426   1.718  15.102
    6TCq2    H414461   3.090   1.513  14.934
  945SOL     OW14462   2.302   3.603  19.666
  945SOL    HW114463   2.250   3.680  19.687
  945SOL    HW214464   2.238   3.535  19.647
  946SOL     OW14465   0.935   3.713   4.587
  946SOL    HW114466   0.873   3.693   4.657
  946SOL    HW214467   0.990   3.635   4.580
  947SOL     OW14468   0.993   0.628  23.925
  947SOL    HW114469   0.949   0.712  23.915
  947SOL    HW214470   1.086   0.650  23.928
  948SOL     OW14471   0.608   0.861  28.321
  948SOL    HW114472   0.592   0.906  28.404
  948SOL    HW214473   0.676   0.797  28.341
  949SOL     OW14474   0.360   2.941  20.659
  949SOL    HW114475   0.433   2.926  20.599
  949SOL    HW214476   0.402   2.967  20.741
  950SOL     OW14477   3.684   2.183   8.694
  950SOL    HW114478   3.642   2.103   8.725
  950SOL    HW214479   3.625   2.253   8.721
  951SOL     OW14480   3.267   4.047  21.774
  951SOL    HW114481   3.358   4.022  21.758
  951SOL    HW214482   3.216   3.970  21.748
  952SOL     OW14483   0.783   3.284  10.860
  952SOL    HW114484   0.737   3.205  10.888
  952SOL    HW214485   0.725   3.324  10.795
  953SOL     OW14486   4.444   3.855   2.684
  953SOL    HW114487   4.385   3.923   2.717
  953SOL    HW214488   4.512   3.848   2.751
  954SOL     OW14489   2.097   2.001  26.717
  954SOL    HW114490   2.164   1.932  26.717
  954SOL    HW214491   2.062   1.999  26.806
  955SOL     OW14492   1.299   3.146   4.069
  955SOL    HW114493   1.245   3.075   4.035
  955SOL    HW214494   1.381   3.140   4.019
  956SOL     OW14495   4.672   4.719   1.450
  956SOL    HW114496   4.695   4.756   1.535
  956SOL    HW214497   4.613   4.646   1.470
  957SOL     OW14498   2.812   3.406  22.676
  957SOL    HW114499   2.784   3.497  22.664
  957SOL    HW214500   2.808   3.391  22.770
  958SOL     OW14501   4.493   3.825   7.669
  958SOL    HW114502   4.420   3.827   7.731
  958SOL    HW214503   4.454   3.795   7.587
  959SOL     OW14504   4.737   2.074   4.872
  959SOL    HW114505   4.777   2.044   4.954
  959SOL    HW214506   4.667   2.011   4.855
  960SOL     OW14507   0.642   1.389  20.857
  960SOL    HW114508   0.583   1.336  20.804
  960SOL    HW214509   0.603   1.477  20.855
  961SOL     OW14510   0.882   0.906   2.095
  961SOL    HW114511   0.805   0.890   2.041
  961SOL    HW214512   0.881   1.000   2.113
  962SOL     OW14513   1.603   0.162   5.360
  962SOL    HW114514   1.689   0.134   5.390
  962SOL    HW214515   1.611   0.167   5.265
  963SOL     OW14516   4.322   3.939   0.846
  963SOL    HW114517   4.271   3.955   0.925
  963SOL    HW214518   4.262   3.960   0.774
  964SOL     OW14519   3.584   1.006   0.382
  964SOL    HW114520   3.587   0.910   0.380
  964SOL    HW214521   3.520   1.027   0.450
  965SOL     OW14522   0.574   4.779   3.088
  965SOL    HW114523   0.630   0.008   3.165
  965SOL    HW214524   0.540   4.690   3.093
  966SOL     OW14525   3.299   4.442  21.287
  966SOL    HW114526   3.260   4.372  21.339
  966SOL    HW214527   3.374   4.401  21.244
  967SOL     OW14528   3.247   3.958   2.227
  967SOL    HW114529   3.231   3.864   2.238
  967SOL    HW214530   3.168   4.000   2.260
  968SOL     OW14531   3.243   0.053  27.506
  968SOL    HW114532   3.153   0.029  27.526
  968SOL    HW214533   3.237   0.141  27.468
  969SOL     OW14534   3.714   3.389   1.049
  969SOL    HW114535   3.782   3.322   1.059
  969SOL    HW214536   3.762   3.469   1.027
  970SOL     OW14537   3.306   1.836  22.643
  970SOL    HW114538   3.365   1.911  22.644
  970SOL    HW214539   3.357   1.764  22.681
  971SOL     OW14540   4.282   3.281   2.119
  971SOL    HW114541   4.250   3.201   2.077
  971SOL    HW214542   4.377   3.272   2.119
  972SOL     OW14543   0.218   1.928  21.069
  972SOL    HW114544   0.275   1.853  21.053
  972SOL    HW214545   0.172   1.941  20.986
  973SOL     OW14546   3.903   0.088   1.410
  973SOL    HW114547   3.840   0.021   1.383
  973SOL    HW214548   3.988   0.053   1.382
  974SOL     OW14549   3.033   0.155  26.438
  974SOL    HW114550   2.981   0.235  26.431
  974SOL    HW214551   3.017   0.110  26.355
  975SOL     OW14552   3.622   4.038  26.795
  975SOL    HW114553   3.590   3.956  26.832
  975SOL    HW214554   3.715   4.022  26.778
  976SOL     OW14555   3.548   2.775  21.805
  976SOL    HW114556   3.481   2.735  21.749
  976SOL    HW214557   3.604   2.702  21.831
  977SOL     OW14558   1.365   2.153  28.486
  977SOL    HW114559   1.329   2.135  28.399
  977SOL    HW214560   1.430   2.084  28.500
  978SOL     OW14561   0.708   0.249   9.183
  978SOL    HW114562   0.685   0.272   9.273
  978SOL    HW214563   0.736   0.332   9.143
  979SOL     OW14564   0.194   2.632  25.639
  979SOL    HW114565   0.258   2.564  25.618
  979SOL    HW214566   0.150   2.650  25.556
  980SOL     OW14567   3.139   0.287  26.048
  980SOL    HW114568   3.117   0.224  26.116
  980SOL    HW214569   3.170   0.234  25.975
  981SOL     OW14570   1.378   3.223  20.464
  981SOL    HW114571   1.471   3.201  20.463
  981SOL    HW214572   1.376   3.319  20.465
  982SOL     OW14573   1.419   2.026   8.537
  982SOL    HW114574   1.416   1.966   8.612
  982SOL    HW214575   1.345   1.999   8.482
  983SOL     OW14576   2.234   3.032  26.333
  983SOL    HW114577   2.145   3.017  26.300
  983SOL    HW214578   2.289   2.973  26.282
  984SOL     OW14579   3.893   1.698  18.578
  984SOL    HW114580   3.974   1.661  18.543
  984SOL    HW214581   3.890   1.667  18.668
  985SOL     OW14582   1.648   3.750  22.354
  985SOL    HW114583   1.560   3.724  22.380
  985SOL    HW214584   1.705   3.706  22.416
  986SOL     OW14585   0.047   3.621  24.681
  986SOL    HW114586   0.130   3.665  24.701
  986SOL    HW214587   0.036   3.633  24.587
  987SOL     OW14588   4.578   0.616   9.155
  987SOL    HW114589   4.551   0.534   9.113
  987SOL    HW214590   4.632   0.659   9.089
  988SOL     OW14591   1.687   2.183   5.541
  988SOL    HW114592   1.747   2.182   5.467
  988SOL    HW214593   1.741   2.160   5.616
  989SOL     OW14594   3.900   3.028  27.282
  989SOL    HW114595   3.903   3.008  27.376
  989SOL    HW214596   3.848   2.957  27.244
  990SOL     OW14597   3.417   3.295  22.238
  990SOL    HW114598   3.507   3.312  22.266
  990SOL    HW214599   3.386   3.227  22.298
  991SOL     OW14600   2.943   0.697  18.272
  991SOL    HW114601   3.017   0.636  18.278
  991SOL    HW214602   2.868   0.646  18.302
  992SOL     OW14603   3.528   2.861   2.028
  992SOL    HW114604   3.453   2.904   1.988
  992SOL    HW214605   3.491   2.812   2.101
  993SOL     OW14606   0.582   1.510   1.429
  993SOL    HW114607   0.605   1.533   1.339
  993SOL    HW214608   0.516   1.575   1.455
  994SOL     OW14609   1.279   3.173  20.754
  994SOL    HW114610   1.354   3.139  20.803
  994SOL    HW214611   1.283   3.268  20.767
  995SOL     OW14612   0.088   0.404   5.032
  995SOL    HW114613   0.083   0.497   5.053
  995SOL    HW214614   0.070   0.400   4.938
  996SOL     OW14615   4.693   0.617   0.429
  996SOL    HW114616   4.668   0.614   0.521
  996SOL    HW214617   0.003   0.585   0.428
  997SOL     OW14618   3.000   1.930  23.640
  997SOL    HW114619   3.039   1.843  23.633
  997SOL    HW214620   2.980   1.954  23.550
  998SOL     OW14621   1.733   3.323  27.700
  998SOL    HW114622   1.696   3.239  27.673
  998SOL    HW214623   1.812   3.332  27.647
  999SOL     OW14624   1.413   2.855   9.874
  999SOL    HW114625   1.428   2.762   9.856
  999SOL    HW214626   1.499   2.896   9.867
 1000SOL     OW14627   0.376   2.559   7.602
 1000SOL    HW114628   0.341   2.599   7.681
 1000SOL    HW214629   0.311   2.493   7.578
 1001SOL     OW14630   3.505   0.254  23.329
 1001SOL    HW114631   3.576   0.193  23.311
 1001SOL    HW214632   3.537   0.338  23.295
 1002SOL     OW14633   0.962   1.897   5.663
 1002SOL    HW114634   0.978   1.954   5.588
 1002SOL    HW214635   0.983   1.809   5.632
 1003SOL     OW14636   0.466   0.131   6.972
 1003SOL    HW114637   0.394   0.191   6.993
 1003SOL    HW214638   0.435   0.080   6.897
 1004SOL     OW14639   4.777   0.079  26.087
 1004SOL    HW114640   4.714   0.133  26.135
 1004SOL    HW214641   4.727   0.003  26.058
 1005SOL     OW14642   2.012   4.379   8.682
 1005SOL    HW114643   1.982   4.295   8.647
 1005SOL    HW214644   2.010   4.438   8.607
 1006SOL     OW14645   0.001   3.412   7.592
 1006SOL    HW114646   4.707   3.450   7.638
 1006SOL    HW214647   0.076   3.464   7.621
 1007SOL     OW14648   1.016   0.082   0.143
 1007SOL    HW114649   0.944   0.143   0.157
 1007SOL    HW214650   1.031   0.083   0.048
 1008SOL     OW14651   2.946   0.604  21.237
 1008SOL    HW114652   3.033   0.619  21.199
 1008SOL    HW214653   2.964   0.582  21.328
 1009SOL     OW14654   2.638   0.657   3.680
 1009SOL    HW114655   2.626   0.671   3.586
 1009SOL    HW214656   2.569   0.710   3.721
 1010SOL     OW14657   0.558   1.947   3.953
 1010SOL    HW114658   0.521   1.871   3.998
 1010SOL    HW214659   0.568   2.013   4.021
 1011SOL     OW14660   1.498   0.847   8.393
 1011SOL    HW114661   1.489   0.937   8.423
 1011SOL    HW214662   1.521   0.798   8.472
 1012SOL     OW14663   0.348   2.281  10.171
 1012SOL    HW114664   0.333   2.357  10.227
 1012SOL    HW214665   0.440   2.259  10.185
 1013SOL     OW14666   1.369   2.939  25.982
 1013SOL    HW114667   1.364   3.009  26.047
 1013SOL    HW214668   1.343   2.981  25.900
 1014SOL     OW14669   1.617   0.272  27.663
 1014SOL    HW114670   1.702   0.266  27.619
 1014SOL    HW214671   1.612   0.363  27.691
 1015SOL     OW14672   2.336   3.904  25.519
 1015SOL    HW114673   2.328   3.924  25.612
 1015SOL    HW214674   2.414   3.849  25.513
 1016SOL     OW14675   2.873   4.289   1.944
 1016SOL    HW114676   2.779   4.286   1.926
 1016SOL    HW214677   2.899   4.197   1.950
 1017SOL     OW14678   0.750   0.591   4.861
 1017SOL    HW114679   0.736   0.620   4.771
 1017SOL    HW214680   0.777   0.670   4.908
 1018SOL     OW14681   2.597   1.101  17.855
 1018SOL    HW114682   2.520   1.102  17.799
 1018SOL    HW214683   2.564   1.125  17.942
 1019SOL     OW14684   1.665   4.569   6.427
 1019SOL    HW114685   1.692   4.646   6.376
 1019SOL    HW214686   1.676   4.595   6.518
 1020SOL     OW14687   0.245   1.474  18.501
 1020SOL    HW114688   0.326   1.466  18.451
 1020SOL    HW214689   0.274   1.483  18.592
 1021SOL     OW14690   2.729   2.728   8.859
 1021SOL    HW114691   2.750   2.765   8.945
 1021SOL    HW214692   2.727   2.633   8.873
 1022SOL     OW14693   4.133   1.592  26.672
 1022SOL    HW114694   4.058   1.639  26.636
 1022SOL    HW214695   4.171   1.547  26.597
 1023SOL     OW14696   4.140   4.296   1.365
 1023SOL    HW114697   4.083   4.221   1.378
 1023SOL    HW214698   4.134   4.316   1.272
 1024SOL     OW14699   3.512   0.560  21.279
 1024SOL    HW114700   3.492   0.607  21.198
 1024SOL    HW214701   3.506   0.467  21.256
 1025SOL     OW14702   1.959   3.370   3.150
 1025SOL    HW114703   1.896   3.440   3.131
 1025SOL    HW214704   1.915   3.290   3.123
 1026SOL     OW14705   0.346   1.327   2.022
 1026SOL    HW114706   0.417   1.290   1.969
 1026SOL    HW214707   0.373   1.418   2.037
 1027SOL     OW14708   0.134   3.717  20.504
 1027SOL    HW114709   0.215   3.689  20.462
 1027SOL    HW214710   0.079   3.748  20.432
 1028SOL     OW14711   0.583   0.527   4.287
 1028SOL    HW114712   0.615   0.451   4.336
 1028SOL    HW214713   0.650   0.541   4.220
 1029SOL     OW14714   1.517   3.188   6.807
 1029SOL    HW114715   1.493   3.149   6.891
 1029SOL    HW214716   1.536   3.280   6.827
 1030SOL     OW14717   3.565   2.135   1.598
 1030SOL    HW114718   3.617   2.170   1.670
 1030SOL    HW214719   3.575   2.199   1.527
 1031SOL     OW14720   3.432   3.485   6.776
 1031SOL    HW114721   3.421   3.390   6.778
 1031SOL    HW214722   3.345   3.519   6.798
 1032SOL     OW14723   3.470   1.235   8.817
 1032SOL    HW114724   3.435   1.297   8.753
 1032SOL    HW214725   3.507   1.164   8.764
 1033SOL     OW14726   1.609   4.348  28.337
 1033SOL    HW114727   1.538   4.355  28.273
 1033SOL    HW214728   1.602   4.428  28.390
 1034SOL     OW14729   0.966   1.739   2.339
 1034SOL    HW114730   1.053   1.759   2.304
 1034SOL    HW214731   0.959   1.793   2.418
 1035SOL     OW14732   1.989   2.634  11.624
 1035SOL    HW114733   1.956   2.698  11.688
 1035SOL    HW214734   2.058   2.587  11.671
 1036SOL     OW14735   3.916   4.555   3.771
 1036SOL    HW114736   3.954   4.544   3.684
 1036SOL    HW214737   3.971   4.502   3.829
 1037SOL     OW14738   1.939   4.773  22.847
 1037SOL    HW114739   2.027   4.736  22.836
 1037SOL    HW214740   1.894   4.754  22.764
 1038SOL     OW14741   2.626   3.576   7.315
 1038SOL    HW114742   2.705   3.630   7.316
 1038SOL    HW214743   2.592   3.582   7.404
 1039SOL     OW14744   0.169   3.670   4.045
 1039SOL    HW114745   0.150   3.579   4.069
 1039SOL    HW214746   0.245   3.664   3.988
 1040SOL     OW14747   3.616   3.048  24.093
 1040SOL    HW114748   3.630   3.099  24.173
 1040SOL    HW214749   3.698   2.999  24.082
 1041SOL     OW14750   2.109   2.720   0.386
 1041SOL    HW114751   2.075   2.631   0.394
 1041SOL    HW214752   2.032   2.775   0.372
 1042SOL     OW14753   2.142   1.973  28.034
 1042SOL    HW114754   2.071   1.911  28.016
 1042SOL    HW214755   2.169   2.004  27.948
 1043SOL     OW14756   2.520   1.328  17.482
 1043SOL    HW114757   2.522   1.264  17.411
 1043SOL    HW214758   2.610   1.333  17.513
 1044SOL     OW14759   2.884   1.346  23.741
 1044SOL    HW114760   2.949   1.289  23.700
 1044SOL    HW214761   2.840   1.389  23.668
 1045SOL     OW14762   1.879   0.237   3.583
 1045SOL    HW114763   1.970   0.245   3.555
 1045SOL    HW214764   1.884   0.218   3.677
 1046SOL     OW14765   0.703   0.612  20.958
 1046SOL    HW114766   0.649   0.536  20.935
 1046SOL    HW214767   0.694   0.620  21.053
 1047SOL     OW14768   1.890   2.559   0.676
 1047SOL    HW114769   1.934   2.644   0.678
 1047SOL    HW214770   1.863   2.547   0.585
 1048SOL     OW14771   2.868   2.961  22.996
 1048SOL    HW114772   2.801   2.976  23.062
 1048SOL    HW214773   2.820   2.959  22.913
 1049SOL     OW14774   1.111   0.340  24.191
 1049SOL    HW114775   1.038   0.288  24.158
 1049SOL    HW214776   1.133   0.299  24.275
 1050SOL     OW14777   0.083   3.182  28.238
 1050SOL    HW114778   0.020   3.254  28.247
 1050SOL    HW214779   0.033   3.111  28.198
 1051SOL     OW14780   4.148   3.027  19.809
 1051SOL    HW114781   4.194   3.062  19.886
 1051SOL    HW214782   4.091   3.098  19.780
 1052SOL     OW14783   0.054   4.207   6.823
 1052SOL    HW114784   0.134   4.194   6.873
 1052SOL    HW214785   4.771   4.147   6.862
 1053SOL     OW14786   2.399   2.872  26.146
 1053SOL    HW114787   2.415   2.959  26.108
 1053SOL    HW214788   2.473   2.819  26.115
 1054SOL     OW14789   3.579   3.293  21.704
 1054SOL    HW114790   3.601   3.318  21.614
 1054SOL    HW214791   3.509   3.353  21.729
 1055SOL     OW14792   1.604   3.726   6.686
 1055SOL    HW114793   1.662   3.685   6.750
 1055SOL    HW214794   1.612   3.671   6.608
 1056SOL     OW14795   1.987   2.768  21.813
 1056SOL    HW114796   1.911   2.823  21.793
 1056SOL    HW214797   2.058   2.805  21.761
 1057SOL     OW14798   1.893   4.080   2.014
 1057SOL    HW114799   1.946   4.021   1.961
 1057SOL    HW214800   1.957   4.132   2.062
 1058SOL     OW14801   3.614   4.070  23.105
 1058SOL    HW114802   3.685   4.076  23.041
 1058SOL    HW214803   3.553   4.139  23.080
 1059SOL     OW14804   1.273   0.725  17.602
 1059SOL    HW114805   1.221   0.652  17.568
 1059SOL    HW214806   1.248   0.800  17.547
 1060SOL     OW14807   1.613   0.692   7.124
 1060SOL    HW114808   1.661   0.619   7.085
 1060SOL    HW214809   1.527   0.689   7.082
 1061SOL     OW14810   3.250   0.579   6.891
 1061SOL    HW114811   3.232   0.564   6.984
 1061SOL    HW214812   3.253   0.492   6.852
 1062SOL     OW14813   4.168   3.574   8.931
 1062SOL    HW114814   4.140   3.641   8.869
 1062SOL    HW214815   4.176   3.620   9.014
 1063SOL     OW14816   1.190   3.655  22.256
 1063SOL    HW114817   1.217   3.691  22.171
 1063SOL    HW214818   1.245   3.701  22.320
 1064SOL     OW14819   1.510   3.804   9.720
 1064SOL    HW114820   1.557   3.888   9.721
 1064SOL    HW214821   1.419   3.828   9.705
 1065SOL     OW14822   0.428   0.722  10.533
 1065SOL    HW114823   0.482   0.773  10.593
 1065SOL    HW214824   0.482   0.647  10.509
 1066SOL     OW14825   1.304   0.261   5.973
 1066SOL    HW114826   1.344   0.254   6.060
 1066SOL    HW214827   1.211   0.248   5.989
 1067SOL     OW14828   3.975   4.335  19.938
 1067SOL    HW114829   4.040   4.397  19.905
 1067SOL    HW214830   3.940   4.376  20.017
 1068SOL     OW14831   0.573   2.263  22.035
 1068SOL    HW114832   0.580   2.323  21.961
 1068SOL    HW214833   0.645   2.288  22.093
 1069SOL     OW14834   3.988   2.534   3.267
 1069SOL    HW114835   4.069   2.483   3.274
 1069SOL    HW214836   3.943   2.497   3.191
 1070SOL     OW14837   4.009   2.351   3.508
 1070SOL    HW114838   4.080   2.323   3.450
 1070SOL    HW214839   3.969   2.425   3.463
 1071SOL     OW14840   1.943   1.476  19.553
 1071SOL    HW114841   1.958   1.570  19.540
 1071SOL    HW214842   1.855   1.461  19.518
 1072SOL     OW14843   0.885   3.366  10.131
 1072SOL    HW114844   0.966   3.323  10.103
 1072SOL    HW214845   0.911   3.419  10.206
 1073SOL     OW14846   3.951   4.604   2.863
 1073SOL    HW114847   3.915   4.637   2.780
 1073SOL    HW214848   3.923   4.513   2.867
 1074SOL     OW14849   0.886   2.291  22.493
 1074SOL    HW114850   0.826   2.267  22.564
 1074SOL    HW214851   0.947   2.217  22.486
 1075SOL     OW14852   2.117   0.846   7.781
 1075SOL    HW114853   2.149   0.828   7.693
 1075SOL    HW214854   2.052   0.778   7.797
 1076SOL     OW14855   0.940   3.493   3.975
 1076SOL    HW114856   1.029   3.520   3.997
 1076SOL    HW214857   0.902   3.466   4.059
 1077SOL     OW14858   4.774   3.323  20.946
 1077SOL    HW114859   4.774   3.357  21.036
 1077SOL    HW214860   0.061   3.374  20.902
 1078SOL     OW14861   2.834   1.692  18.090
 1078SOL    HW114862   2.826   1.762  18.025
 1078SOL    HW214863   2.826   1.611  18.039
 1079SOL     OW14864   1.396   0.312  25.682
 1079SOL    HW114865   1.347   0.355  25.612
 1079SOL    HW214866   1.329   0.286  25.745
 1080SOL     OW14867   4.033   3.545   0.576
 1080SOL    HW114868   3.976   3.617   0.603
 1080SOL    HW214869   4.007   3.526   0.486
 1081SOL     OW14870   4.058   3.354  20.088
 1081SOL    HW114871   4.011   3.425  20.044
 1081SOL    HW214872   4.064   3.382  20.179
 1082SOL     OW14873   3.419   3.238   3.183
 1082SOL    HW114874   3.472   3.175   3.231
 1082SOL    HW214875   3.465   3.250   3.100
 1083SOL     OW14876   1.911   2.960   9.467
 1083SOL    HW114877   1.999   2.998   9.467
 1083SOL    HW214878   1.925   2.866   9.477
 1084SOL     OW14879   2.404   2.565   4.954
 1084SOL    HW114880   2.478   2.620   4.928
 1084SOL    HW214881   2.346   2.624   5.002
 1085SOL     OW14882   0.679   3.030   9.696
 1085SOL    HW114883   0.764   2.988   9.712
 1085SOL    HW214884   0.689   3.072   9.611
 1086SOL     OW14885   3.713   4.171  27.967
 1086SOL    HW114886   3.640   4.198  27.912
 1086SOL    HW214887   3.784   4.231  27.944
 1087SOL     OW14888   3.835   0.952  20.484
 1087SOL    HW114889   3.918   0.999  20.480
 1087SOL    HW214890   3.772   1.017  20.514
 1088SOL     OW14891   4.278   0.266   5.431
 1088SOL    HW114892   4.281   0.359   5.452
 1088SOL    HW214893   4.251   0.224   5.513
 1089SOL     OW14894   0.491   4.019  22.404
 1089SOL    HW114895   0.453   4.020  22.316
 1089SOL    HW214896   0.498   4.111  22.428
 1090SOL     OW14897   2.582   1.417  20.268
 1090SOL    HW114898   2.592   1.346  20.205
 1090SOL    HW214899   2.624   1.385  20.348
 1091SOL     OW14900   4.527   0.147  22.627
 1091SOL    HW114901   4.471   0.096  22.685
 1091SOL    HW214902   4.549   0.087  22.556
 1092SOL     OW14903   1.599   2.412   6.782
 1092SOL    HW114904   1.642   2.384   6.863
 1092SOL    HW214905   1.663   2.393   6.713
 1093SOL     OW14906   0.598   3.913  10.685
 1093SOL    HW114907   0.521   3.857  10.693
 1093SOL    HW214908   0.568   3.999  10.714
 1094SOL     OW14909   0.752   2.696  20.279
 1094SOL    HW114910   0.814   2.624  20.283
 1094SOL    HW214911   0.797   2.764  20.229
 1095SOL     OW14912   4.475   3.272  25.152
 1095SOL    HW114913   4.449   3.180  25.150
 1095SOL    HW214914   4.408   3.317  25.100
 1096SOL     OW14915   2.119   2.229   2.125
 1096SOL    HW114916   2.172   2.151   2.139
 1096SOL    HW214917   2.102   2.263   2.213
 1097SOL     OW14918   2.975   0.500  23.947
 1097SOL    HW114919   2.901   0.440  23.944
 1097SOL    HW214920   2.935   0.586  23.960
 1098SOL     OW14921   2.701   2.088   2.419
 1098SOL    HW114922   2.754   2.168   2.419
 1098SOL    HW214923   2.655   2.090   2.503
 1099SOL     OW14924   1.548   1.093  22.325
 1099SOL    HW114925   1.536   1.109  22.231
 1099SOL    HW214926   1.529   1.000  22.336
 1100SOL     OW14927   0.893   3.548  28.438
 1100SOL    HW114928   0.886   3.575  28.346
 1100SOL    HW214929   0.806   3.565  28.475
 1101SOL     OW14930   2.897   3.164   2.445
 1101SOL    HW114931   2.824   3.161   2.384
 1101SOL    HW214932   2.968   3.204   2.395
 1102SOL     OW14933   0.450   0.147  28.456
 1102SOL    HW114934   0.404   0.068  28.483
 1102SOL    HW214935   0.438   0.208   0.009
 1103SOL     OW14936   4.740   1.770   8.289
 1103SOL    HW114937   0.048   1.748   8.319
 1103SOL    HW214938   4.750   1.855   8.247
 1104SOL     OW14939   0.953   0.359  17.975
 1104SOL    HW114940   1.017   0.397  17.914
 1104SOL    HW214941   0.915   0.434  18.020
 1105SOL     OW14942   1.793   1.788  21.886
 1105SOL    HW114943   1.752   1.769  21.970
 1105SOL    HW214944   1.834   1.874  21.898
 1106SOL     OW14945   2.223   0.079  27.692
 1106SOL    HW114946   2.217   0.013  27.623
 1106SOL    HW214947   2.261   0.033  27.767
 1107SOL     OW14948   3.342   1.533   5.498
 1107SOL    HW114949   3.336   1.449   5.453
 1107SOL    HW214950   3.274   1.587   5.458
 1108SOL     OW14951   2.946   3.903  27.092
 1108SOL    HW114952   3.017   3.939  27.039
 1108SOL    HW214953   2.963   3.936  27.180
 1109SOL     OW14954   3.206   1.262  19.761
 1109SOL    HW114955   3.175   1.195  19.821
 1109SOL    HW214956   3.127   1.294  19.717
 1110SOL     OW14957   3.873   3.234   1.570
 1110SOL    HW114958   3.830   3.166   1.622
 1110SOL    HW214959   3.813   3.250   1.497
 1111SOL     OW14960   3.041   0.008   8.810
 1111SOL    HW114961   3.013   0.004   8.901
 1111SOL    HW214962   3.113   0.072   8.810
 1112SOL     OW14963   2.302   4.191  25.944
 1112SOL    HW114964   2.343   4.234  26.019
 1112SOL    HW214965   2.223   4.151  25.979
 1113SOL     OW14966   3.480   1.164   4.882
 1113SOL    HW114967   3.411   1.098   4.876
 1113SOL    HW214968   3.434   1.244   4.909
 1114SOL     OW14969   0.209   3.542  26.192
 1114SOL    HW114970   0.135   3.486  26.217
 1114SOL    HW214971   0.285   3.502  26.235
 1115SOL     OW14972   1.392   4.488   6.832
 1115SOL    HW114973   1.393   4.442   6.748
 1115SOL    HW214974   1.322   4.447   6.882
 1116SOL     OW14975   4.326   2.638  20.617
 1116SOL    HW114976   4.299   2.550  20.643
 1116SOL    HW214977   4.293   2.647  20.527
 1117SOL     OW14978   2.515   0.126   2.848
 1117SOL    HW114979   2.543   0.071   2.921
 1117SOL    HW214980   2.521   0.069   2.771
 1118SOL     OW14981   0.688   0.160   1.772
 1118SOL    HW114982   0.619   0.219   1.803
 1118SOL    HW214983   0.647   0.074   1.768
 1119SOL     OW14984   1.747   3.880  22.627
 1119SOL    HW114985   1.682   3.911  22.690
 1119SOL    HW214986   1.701   3.878  22.543
 1120SOL     OW14987   4.230   1.571  24.081
 1120SOL    HW114988   4.157   1.525  24.123
 1120SOL    HW214989   4.210   1.567  23.987
 1121SOL     OW14990   4.292   3.710  24.574
 1121SOL    HW114991   4.385   3.720  24.596
 1121SOL    HW214992   4.252   3.673  24.653
 1122SOL     OW14993   1.618   2.042  21.716
 1122SOL    HW114994   1.611   2.045  21.621
 1122SOL    HW214995   1.708   2.014  21.733
 1123SOL     OW14996   4.570   1.128   7.827
 1123SOL    HW114997   4.560   1.201   7.888
 1123SOL    HW214998   4.665   1.114   7.822
 1124SOL     OW14999   3.948   0.914  27.725
 1124SOL    HW115000   3.986   0.971  27.792
 1124SOL    HW215001   3.931   0.973  27.651
 1125SOL     OW15002   1.459   1.262  23.121
 1125SOL    HW115003   1.538   1.217  23.091
 1125SOL    HW215004   1.437   1.218  23.203
 1126SOL     OW15005   3.689   4.669  28.252
 1126SOL    HW115006   3.746   4.600  28.286
 1126SOL    HW215007   3.706   4.744  28.309
 1127SOL     OW15008   0.291   1.199  11.774
 1127SOL    HW115009   0.317   1.187  11.865
 1127SOL    HW215010   0.286   1.294  11.763
 1128SOL     OW15011   3.433   2.952  25.626
 1128SOL    HW115012   3.423   2.857  25.638
 1128SOL    HW215013   3.361   2.976  25.568
 1129SOL     OW15014   1.880   2.616   5.393
 1129SOL    HW115015   1.934   2.643   5.467
 1129SOL    HW215016   1.924   2.538   5.358
 1130SOL     OW15017   2.503   2.087  17.093
 1130SOL    HW115018   2.553   2.161  17.058
 1130SOL    HW215019   2.414   2.101  17.060
 1131SOL     OW15020   1.974   3.047   7.896
 1131SOL    HW115021   2.031   3.117   7.864
 1131SOL    HW215022   2.011   3.022   7.981
 1132SOL     OW15023   0.102   0.155  25.235
 1132SOL    HW115024   0.116   0.181  25.326
 1132SOL    HW215025   0.190   0.155  25.196
 1133SOL     OW15026   0.642   2.263  26.951
 1133SOL    HW115027   0.691   2.188  26.984
 1133SOL    HW215028   0.550   2.238  26.963
 1134SOL     OW15029   0.540   4.591   9.419
 1134SOL    HW115030   0.525   4.502   9.388
 1134SOL    HW215031   0.610   4.624   9.363
 1135SOL     OW15032   1.987   3.362   3.577
 1135SOL    HW115033   1.902   3.328   3.548
 1135SOL    HW215034   1.981   3.361   3.673
 1136SOL     OW15035   1.500   3.861  26.880
 1136SOL    HW115036   1.486   3.882  26.972
 1136SOL    HW215037   1.585   3.900  26.860
 1137SOL     OW15038   4.110   2.061  19.517
 1137SOL    HW115039   4.171   2.073  19.444
 1137SOL    HW215040   4.165   2.070  19.595
 1138SOL     OW15041   2.851   4.463  22.103
 1138SOL    HW115042   2.886   4.504  22.182
 1138SOL    HW215043   2.833   4.373  22.128
 1139SOL     OW15044   4.148   0.228  24.943
 1139SOL    HW115045   4.173   0.153  24.889
 1139SOL    HW215046   4.104   0.189  25.019
 1140SOL     OW15047   3.003   0.152  21.397
 1140SOL    HW115048   3.066   0.191  21.458
 1140SOL    HW215049   2.918   0.183  21.427
 1141SOL     OW15050   4.221   1.259  26.370
 1141SOL    HW115051   4.263   1.291  26.450
 1141SOL    HW215052   4.162   1.329  26.344
 1142SOL     OW15053   3.625   2.532   5.065
 1142SOL    HW115054   3.578   2.570   4.991
 1142SOL    HW215055   3.676   2.461   5.027
 1143SOL     OW15056   3.659   4.113   7.001
 1143SOL    HW115057   3.640   4.027   6.963
 1143SOL    HW215058   3.647   4.174   6.929
 1144SOL     OW15059   2.762   3.951   4.456
 1144SOL    HW115060   2.701   3.925   4.387
 1144SOL    HW215061   2.712   3.940   4.537
 1145SOL     OW15062   4.432   4.753  26.446
 1145SOL    HW115063   4.494   4.684  26.422
 1145SOL    HW215064   4.399   4.727  26.532
 1146SOL     OW15065   1.068   1.213   8.163
 1146SOL    HW115066   1.034   1.300   8.183
 1146SOL    HW215067   1.099   1.220   8.073
 1147SOL     OW15068   2.920   3.651   4.532
 1147SOL    HW115069   2.913   3.733   4.484
 1147SOL    HW215070   2.996   3.662   4.589
 1148SOL     OW15071   1.719   4.168  21.019
 1148SOL    HW115072   1.774   4.207  20.951
 1148SOL    HW215073   1.780   4.118  21.073
 1149SOL     OW15074   2.562   4.191   9.562
 1149SOL    HW115075   2.559   4.231   9.649
 1149SOL    HW215076   2.502   4.117   9.568
 1150SOL     OW15077   3.591   3.621   6.974
 1150SOL    HW115078   3.535   3.571   6.914
 1150SOL    HW215079   3.647   3.555   7.015
 1151SOL     OW15080   3.350   1.568   7.593
 1151SOL    HW115081   3.280   1.601   7.649
 1151SOL    HW215082   3.339   1.473   7.595
 1152SOL     OW15083   3.189   4.433   5.900
 1152SOL    HW115084   3.142   4.453   5.981
 1152SOL    HW215085   3.262   4.378   5.928
 1153SOL     OW15086   2.601   1.625   8.368
 1153SOL    HW115087   2.615   1.530   8.371
 1153SOL    HW215088   2.682   1.660   8.331
 1154SOL     OW15089   0.648   2.979  24.526
 1154SOL    HW115090   0.727   2.935  24.495
 1154SOL    HW215091   0.640   2.952  24.617
 1155SOL     OW15092   2.521   2.086  22.138
 1155SOL    HW115093   2.454   2.021  22.116
 1155SOL    HW215094   2.584   2.038  22.192
 1156SOL     OW15095   2.465   0.671  19.800
 1156SOL    HW115096   2.402   0.613  19.841
 1156SOL    HW215097   2.412   0.731  19.748
 1157SOL     OW15098   2.149   2.834   6.304
 1157SOL    HW115099   2.150   2.859   6.212
 1157SOL    HW215100   2.125   2.914   6.350
 1158SOL     OW15101   0.766   2.699   1.122
 1158SOL    HW115102   0.697   2.697   1.188
 1158SOL    HW215103   0.735   2.640   1.053
 1159SOL     OW15104   1.645   3.720   1.197
 1159SOL    HW115105   1.696   3.644   1.170
 1159SOL    HW215106   1.625   3.705   1.289
 1160SOL     OW15107   3.658   3.689  23.592
 1160SOL    HW115108   3.583   3.651  23.639
 1160SOL    HW215109   3.664   3.778  23.626
 1161SOL     OW15110   2.288   1.416  24.367
 1161SOL    HW115111   2.211   1.387  24.417
 1161SOL    HW215112   2.317   1.496  24.411
 1162SOL     OW15113   2.028   3.002  27.147
 1162SOL    HW115114   2.022   3.063  27.074
 1162SOL    HW215115   2.122   2.993  27.163
 1163SOL     OW15116   0.241   0.543  12.289
 1163SOL    HW115117   0.174   0.483  12.323
 1163SOL    HW215118   0.299   0.559  12.363
 1164SOL     OW15119   3.891   1.109   4.808
 1164SOL    HW115120   3.922   1.112   4.718
 1164SOL    HW215121   3.851   1.022   4.816
 1165SOL     OW15122   4.643   4.055  27.037
 1165SOL    HW115123   4.705   4.128  27.039
 1165SOL    HW215124   4.574   4.083  26.977
 1166SOL     OW15125   3.651   1.582  17.800
 1166SOL    HW115126   3.685   1.616  17.883
 1166SOL    HW215127   3.680   1.491  17.797
 1167SOL     OW15128   0.236   1.751   0.577
 1167SOL    HW115129   0.322   1.717   0.603
 1167SOL    HW215130   0.255   1.833   0.531
 1168SOL     OW15131   1.009   2.009   0.998
 1168SOL    HW115132   1.058   2.055   0.929
 1168SOL    HW215133   0.969   2.079   1.050
 1169SOL     OW15134   3.335   2.349  23.884
 1169SOL    HW115135   3.336   2.278  23.820
 1169SOL    HW215136   3.392   2.319  23.955
 1170SOL     OW15137   2.670   2.818  18.336
 1170SOL    HW115138   2.650   2.890  18.276
 1170SOL    HW215139   2.667   2.858  18.423
 1171SOL     OW15140   1.757   2.215  21.949
 1171SOL    HW115141   1.776   2.187  21.859
 1171SOL    HW215142   1.842   2.239  21.986
 1172SOL     OW15143   3.357   1.768  25.851
 1172SOL    HW115144   3.350   1.704  25.780
 1172SOL    HW215145   3.273   1.763  25.896
 1173SOL     OW15146   2.226   2.330  26.359
 1173SOL    HW115147   2.251   2.382  26.282
 1173SOL    HW215148   2.197   2.395  26.423
 1174SOL     OW15149   2.224   4.685   4.539
 1174SOL    HW115150   2.194   4.661   4.451
 1174SOL    HW215151   2.231   0.000   4.537
 1175SOL     OW15152   0.950   0.395   0.629
 1175SOL    HW115153   0.959   0.321   0.569
 1175SOL    HW215154   0.929   0.355   0.714
 1176SOL     OW15155   3.449   2.664   5.851
 1176SOL    HW115156   3.370   2.708   5.883
 1176SOL    HW215157   3.521   2.719   5.882
 1177SOL     OW15158   2.276   2.454  25.018
 1177SOL    HW115159   2.270   2.364  25.049
 1177SOL    HW215160   2.236   2.452  24.931
 1178SOL     OW15161   3.418   2.679  24.497
 1178SOL    HW115162   3.397   2.716  24.583
 1178SOL    HW215163   3.511   2.656  24.502
 1179SOL     OW15164   4.415   0.719   1.757
 1179SOL    HW115165   4.434   0.788   1.693
 1179SOL    HW215166   4.500   0.678   1.775
 1180SOL     OW15167   2.926   0.479  22.033
 1180SOL    HW115168   2.897   0.568  22.013
 1180SOL    HW215169   2.845   0.427  22.033
 1181SOL     OW15170   1.450   3.555   4.292
 1181SOL    HW115171   1.464   3.474   4.244
 1181SOL    HW215172   1.358   3.553   4.317
 1182SOL     OW15173   2.063   3.386   6.667
 1182SOL    HW115174   2.135   3.335   6.705
 1182SOL    HW215175   1.984   3.350   6.708
 1183SOL     OW15176   2.793   1.085   4.141
 1183SOL    HW115177   2.859   1.127   4.086
 1183SOL    HW215178   2.842   1.021   4.193
 1184SOL     OW15179   2.448   3.037   1.484
 1184SOL    HW115180   2.369   2.990   1.457
 1184SOL    HW215181   2.415   3.113   1.532
 1185SOL     OW15182   1.585   1.945   0.301
 1185SOL    HW115183   1.674   1.914   0.319
 1185SOL    HW215184   1.568   2.008   0.371
 1186SOL     OW15185   3.495   0.250   9.269
 1186SOL    HW115186   3.460   0.306   9.339
 1186SOL    HW215187   3.493   0.162   9.306
 1187SOL     OW15188   0.698   1.323   1.627
 1187SOL    HW115189   0.773   1.302   1.571
 1187SOL    HW215190   0.644   1.381   1.574
 1188SOL     OW15191   1.550   4.720   3.334
 1188SOL    HW115192   1.497   4.727   3.254
 1188SOL    HW215193   1.586   4.631   3.331
 1189SOL     OW15194   4.062   0.859  18.945
 1189SOL    HW115195   4.147   0.885  18.909
 1189SOL    HW215196   4.061   0.764  18.937
 1190SOL     OW15197   0.109   2.730  26.423
 1190SOL    HW115198   0.112   2.774  26.338
 1190SOL    HW215199   0.177   2.663  26.417
 1191SOL     OW15200   2.080   1.232   4.356
 1191SOL    HW115201   2.046   1.320   4.343
 1191SOL    HW215202   2.009   1.174   4.330
 1192SOL     OW15203   1.685   2.263  20.612
 1192SOL    HW115204   1.740   2.295  20.684
 1192SOL    HW215205   1.746   2.245  20.541
 1193SOL     OW15206   0.033   3.898  20.983
 1193SOL    HW115207   0.007   3.814  21.020
 1193SOL    HW215208   4.773   3.899  20.896
 1194SOL     OW15209   4.376   0.744   8.357
 1194SOL    HW115210   4.326   0.747   8.275
 1194SOL    HW215211   4.467   0.753   8.330
 1195SOL     OW15212   2.478   1.682   4.586
 1195SOL    HW115213   2.472   1.776   4.605
 1195SOL    HW215214   2.409   1.642   4.639
 1196SOL     OW15215   0.908   4.673   6.435
 1196SOL    HW115216   0.962   4.615   6.381
 1196SOL    HW215217   0.967   4.702   6.505
 1197SOL     OW15218   1.745   4.165   8.743
 1197SOL    HW115219   1.753   4.135   8.652
 1197SOL    HW215220   1.723   4.258   8.736
 1198SOL     OW15221   2.318   2.148  25.059
 1198SOL    HW115222   2.394   2.193  25.096
 1198SOL    HW215223   2.258   2.136  25.133
 1199SOL     OW15224   2.670   1.481   3.603
 1199SOL    HW115225   2.706   1.568   3.621
 1199SOL    HW215226   2.593   1.498   3.549
 1200SOL     OW15227   4.391   2.659  16.319
 1200SOL    HW115228   4.428   2.593  16.260
 1200SOL    HW215229   4.301   2.671  16.289
 1201SOL     OW15230   2.700   2.242   2.678
 1201SOL    HW115231   2.681   2.279   2.764
 1201SOL    HW215232   2.780   2.191   2.690
 1202SOL     OW15233   3.626   3.036  28.077
 1202SOL    HW115234   3.580   2.978  28.138
 1202SOL    HW215235   3.616   3.123  28.116
 1203SOL     OW15236   1.346   4.334   6.595
 1203SOL    HW115237   1.334   4.249   6.552
 1203SOL    HW215238   1.381   4.391   6.526
 1204SOL     OW15239   1.854   1.858  22.512
 1204SOL    HW115240   1.804   1.777  22.513
 1204SOL    HW215241   1.798   1.920  22.465
 1205SOL     OW15242   3.937   3.296   6.693
 1205SOL    HW115243   4.026   3.330   6.687
 1205SOL    HW215244   3.927   3.271   6.785
 1206SOL     OW15245   0.397   0.727   4.057
 1206SOL    HW115246   0.488   0.726   4.086
 1206SOL    HW215247   0.383   0.817   4.027
 1207SOL     OW15248   2.970   1.607  10.229
 1207SOL    HW115249   3.058   1.588  10.197
 1207SOL    HW215250   2.981   1.619  10.323
 1208SOL     OW15251   1.155   1.428   6.402
 1208SOL    HW115252   1.210   1.493   6.445
 1208SOL    HW215253   1.143   1.462   6.313
 1209SOL     OW15254   1.977   4.433   2.198
 1209SOL    HW115255   1.962   4.364   2.262
 1209SOL    HW215256   1.890   4.467   2.178
 1210SOL     OW15257   2.532   2.192  26.159
 1210SOL    HW115258   2.437   2.182  26.151
 1210SOL    HW215259   2.543   2.260  26.226
 1211SOL     OW15260   3.091   0.122  23.682
 1211SOL    HW115261   3.044   0.196  23.644
 1211SOL    HW215262   3.176   0.123  23.638
 1212SOL     OW15263   3.897   1.894   8.630
 1212SOL    HW115264   3.946   1.815   8.653
 1212SOL    HW215265   3.857   1.923   8.712
 1213SOL     OW15266   0.238   4.584   5.045
 1213SOL    HW115267   0.151   4.593   5.083
 1213SOL    HW215268   0.295   4.634   5.104
 1214SOL     OW15269   2.031   2.250  22.325
 1214SOL    HW115270   2.057   2.341  22.312
 1214SOL    HW215271   2.098   2.199  22.279
 1215SOL     OW15272   2.424   1.820   9.804
 1215SOL    HW115273   2.347   1.771   9.832
 1215SOL    HW215274   2.481   1.820   9.881
 1216SOL     OW15275   3.478   1.609  26.229
 1216SOL    HW115276   3.430   1.527  26.222
 1216SOL    HW215277   3.414   1.677  26.208
 1217SOL     OW15278   0.667   4.528   2.854
 1217SOL    HW115279   0.754   4.507   2.888
 1217SOL    HW215280   0.684   4.580   2.776
 1218SOL     OW15281   0.260   2.226   3.668
 1218SOL    HW115282   0.249   2.317   3.694
 1218SOL    HW215283   0.264   2.178   3.751
 1219SOL     OW15284   2.247   4.220  22.205
 1219SOL    HW115285   2.265   4.126  22.195
 1219SOL    HW215286   2.321   4.263  22.162
 1220SOL     OW15287   4.060   1.541   2.230
 1220SOL    HW115288   4.014   1.458   2.215
 1220SOL    HW215289   4.151   1.523   2.206
 1221SOL     OW15290   3.418   3.916   4.851
 1221SOL    HW115291   3.406   3.911   4.756
 1221SOL    HW215292   3.479   3.845   4.872
 1222SOL     OW15293   3.512   4.395   4.457
 1222SOL    HW115294   3.430   4.437   4.482
 1222SOL    HW215295   3.575   4.467   4.450
 1223SOL     OW15296   3.909   2.287  26.785
 1223SOL    HW115297   3.874   2.366  26.744
 1223SOL    HW215298   3.862   2.215  26.743
 1224SOL     OW15299   2.255   2.435  20.350
 1224SOL    HW115300   2.182   2.441  20.412
 1224SOL    HW215301   2.269   2.525  20.321
 1225SOL     OW15302   3.290   0.086  27.829
 1225SOL    HW115303   3.198   0.081  27.802
 1225SOL    HW215304   3.312   0.179  27.823
 1226SOL     OW15305   0.070   2.420  19.523
 1226SOL    HW115306   0.075   2.382  19.435
 1226SOL    HW215307   0.067   2.515  19.508
 1227SOL     OW15308   1.964   3.169   9.065
 1227SOL    HW115309   1.962   3.252   9.018
 1227SOL    HW215310   2.010   3.189   9.147
 1228SOL     OW15311   2.606   2.103   0.753
 1228SOL    HW115312   2.608   2.159   0.831
 1228SOL    HW215313   2.531   2.135   0.703
 1229SOL     OW15314   4.763   1.044   1.651
 1229SOL    HW115315   4.774   1.139   1.656
 1229SOL    HW215316   0.038   1.010   1.722
 1230SOL     OW15317   3.196   4.035  27.017
 1230SOL    HW115318   3.229   4.093  26.948
 1230SOL    HW215319   3.254   3.959  27.014
 1231SOL     OW15320   4.338   2.479  24.694
 1231SOL    HW115321   4.433   2.491  24.691
 1231SOL    HW215322   4.315   2.445  24.607
 1232SOL     OW15323   2.852   0.729  21.000
 1232SOL    HW115324   2.904   0.710  21.078
 1232SOL    HW215325   2.889   0.810  20.965
 1233SOL     OW15326   0.542   0.855  26.299
 1233SOL    HW115327   0.481   0.782  26.309
 1233SOL    HW215328   0.529   0.885  26.209
 1234SOL     OW15329   3.922   1.434  10.790
 1234SOL    HW115330   3.892   1.344  10.777
 1234SOL    HW215331   3.846   1.488  10.769
 1235SOL     OW15332   4.044   2.097   3.629
 1235SOL    HW115333   3.952   2.078   3.648
 1235SOL    HW215334   4.045   2.190   3.608
 1236SOL     OW15335   1.776   2.789   6.194
 1236SOL    HW115336   1.727   2.863   6.231
 1236SOL    HW215337   1.836   2.829   6.131
 1237SOL     OW15338   4.557   2.088   5.226
 1237SOL    HW115339   4.522   2.175   5.245
 1237SOL    HW215340   4.494   2.050   5.165
 1238SOL     OW15341   3.453   2.875   0.180
 1238SOL    HW115342   3.493   2.806   0.126
 1238SOL    HW215343   3.426   2.830   0.260
 1239SOL     OW15344   3.680   1.014  21.015
 1239SOL    HW115345   3.599   0.996  21.063
 1239SOL    HW215346   3.693   1.108  21.023
 1240SOL     OW15347   1.791   4.698  25.116
 1240SOL    HW115348   1.834   4.613  25.122
 1240SOL    HW215349   1.857   4.756  25.078
 1241SOL     OW15350   3.157   3.480   4.414
 1241SOL    HW115351   3.173   3.563   4.459
 1241SOL    HW215352   3.132   3.419   4.484
 1242SOL     OW15353   4.356   3.802   2.143
 1242SOL    HW115354   4.411   3.880   2.145
 1242SOL    HW215355   4.392   3.749   2.072
 1243SOL     OW15356   2.699   2.965   9.286
 1243SOL    HW115357   2.733   2.906   9.219
 1243SOL    HW215358   2.635   3.019   9.240
 1244SOL     OW15359   2.563   3.007   1.805
 1244SOL    HW115360   2.539   2.923   1.843
 1244SOL    HW215361   2.649   2.992   1.766
 1245SOL     OW15362   0.314   3.030  26.821
 1245SOL    HW115363   0.286   2.990  26.739
 1245SOL    HW215364   0.241   3.016  26.881
 1246SOL     OW15365   1.312   4.778   8.998
 1246SOL    HW115366   1.234   4.762   9.051
 1246SOL    HW215367   1.315   0.093   8.988
 1247SOL     OW15368   2.511   3.238   7.718
 1247SOL    HW115369   2.537   3.178   7.648
 1247SOL    HW215370   2.593   3.265   7.759
 1248SOL     OW15371   1.580   1.172  25.084
 1248SOL    HW115372   1.499   1.150  25.038
 1248SOL    HW215373   1.648   1.168  25.017
 1249SOL     OW15374   2.585   1.596   5.041
 1249SOL    HW115375   2.603   1.690   5.040
 1249SOL    HW215376   2.509   1.585   4.983
 1250SOL     OW15377   1.400   2.853  10.660
 1250SOL    HW115378   1.309   2.843  10.633
 1250SOL    HW215379   1.423   2.768  10.697
 1251SOL     OW15380   0.532   4.613   3.350
 1251SOL    HW115381   0.505   4.549   3.284
 1251SOL    HW215382   0.458   4.674   3.355
 1252SOL     OW15383   2.142   2.847   1.643
 1252SOL    HW115384   2.124   2.910   1.713
 1252SOL    HW215385   2.085   2.875   1.571
 1253SOL     OW15386   1.236   3.394  24.803
 1253SOL    HW115387   1.248   3.301  24.785
 1253SOL    HW215388   1.324   3.431  24.795
 1254SOL     OW15389   1.530   3.351   8.414
 1254SOL    HW115390   1.532   3.424   8.476
 1254SOL    HW215391   1.522   3.273   8.469
 1255SOL     OW15392   0.730   1.164  23.750
 1255SOL    HW115393   0.744   1.225  23.822
 1255SOL    HW215394   0.669   1.099  23.785
 1256SOL     OW15395   1.720   2.981   1.192
 1256SOL    HW115396   1.796   3.035   1.170
 1256SOL    HW215397   1.743   2.893   1.162
 1257SOL     OW15398   1.169   4.634   5.818
 1257SOL    HW115399   1.155   4.685   5.738
 1257SOL    HW215400   1.261   4.647   5.839
 1258SOL     OW15401   2.378   4.504   7.780
 1258SOL    HW115402   2.374   4.447   7.703
 1258SOL    HW215403   2.459   4.479   7.825
 1259SOL     OW15404   3.482   0.098   4.016
 1259SOL    HW115405   3.454   0.109   3.925
 1259SOL    HW215406   3.419   0.037   4.054
 1260SOL     OW15407   4.614   4.725   7.297
 1260SOL    HW115408   4.577   0.033   7.302
 1260SOL    HW215409   4.655   4.721   7.211
 1261SOL     OW15410   3.157   1.249  23.568
 1261SOL    HW115411   3.225   1.286  23.512
 1261SOL    HW215412   3.076   1.291  23.539
 1262SOL     OW15413   2.213   3.886   3.724
 1262SOL    HW115414   2.301   3.888   3.761
 1262SOL    HW215415   2.222   3.927   3.638
 1263SOL     OW15416   3.398   2.033   6.505
 1263SOL    HW115417   3.396   1.994   6.418
 1263SOL    HW215418   3.350   2.115   6.495
 1264SOL     OW15419   3.733   2.832   7.403
 1264SOL    HW115420   3.645   2.808   7.374
 1264SOL    HW215421   3.720   2.911   7.456
 1265SOL     OW15422   3.594   1.379   9.539
 1265SOL    HW115423   3.620   1.390   9.630
 1265SOL    HW215424   3.501   1.356   9.543
 1266SOL     OW15425   4.520   1.102  20.111
 1266SOL    HW115426   4.498   1.193  20.130
 1266SOL    HW215427   4.467   1.080  20.034
 1267SOL     OW15428   0.623   4.326   8.374
 1267SOL    HW115429   0.626   4.394   8.441
 1267SOL    HW215430   0.548   4.350   8.319
 1268SOL     OW15431   1.365   2.100  20.847
 1268SOL    HW115432   1.290   2.083  20.790
 1268SOL    HW215433   1.429   2.033  20.824
 1269SOL     OW15434   4.275   2.515   8.915
 1269SOL    HW115435   4.261   2.567   8.836
 1269SOL    HW215436   4.210   2.445   8.910
 1270SOL     OW15437   1.391   4.653  23.962
 1270SOL    HW115438   1.337   4.584  24.002
 1270SOL    HW215439   1.415   4.710  24.035
 1271SOL     OW15440   1.384   0.064  22.015
 1271SOL    HW115441   1.290   0.065  22.035
 1271SOL    HW215442   1.391   0.013  21.934
 1272SOL     OW15443   3.132   0.715  27.008
 1272SOL    HW115444   3.177   0.666  27.076
 1272SOL    HW215445   3.192   0.786  26.986
 1273SOL     OW15446   0.243   3.339  22.289
 1273SOL    HW115447   0.282   3.367  22.206
 1273SOL    HW215448   0.149   3.334  22.270
 1274SOL     OW15449   3.703   4.401   9.122
 1274SOL    HW115450   3.613   4.421   9.147
 1274SOL    HW215451   3.756   4.435   9.194
 1275SOL     OW15452   2.162   1.768  25.769
 1275SOL    HW115453   2.114   1.727  25.697
 1275SOL    HW215454   2.195   1.694  25.820
 1276SOL     OW15455   1.347   2.898   8.912
 1276SOL    HW115456   1.367   2.806   8.897
 1276SOL    HW215457   1.362   2.940   8.827
 1277SOL     OW15458   0.007   3.503   8.334
 1277SOL    HW115459   0.052   3.584   8.312
 1277SOL    HW215460   0.077   3.442   8.357
 1278SOL     OW15461   4.060   2.805  18.996
 1278SOL    HW115462   4.068   2.900  18.990
 1278SOL    HW215463   4.006   2.781  18.920
 1279SOL     OW15464   3.092   2.441  20.062
 1279SOL    HW115465   3.087   2.475  20.151
 1279SOL    HW215466   3.077   2.347  20.072
 1280SOL     OW15467   2.934   2.421   0.501
 1280SOL    HW115468   2.968   2.349   0.447
 1280SOL    HW215469   2.901   2.485   0.438
 1281SOL     OW15470   2.147   1.992   0.554
 1281SOL    HW115471   2.181   2.003   0.465
 1281SOL    HW215472   2.127   2.081   0.584
 1282SOL     OW15473   4.167   1.642   1.059
 1282SOL    HW115474   4.091   1.592   1.028
 1282SOL    HW215475   4.168   1.627   1.154
 1283SOL     OW15476   2.078   2.176   6.075
 1283SOL    HW115477   2.171   2.197   6.075
 1283SOL    HW215478   2.074   2.084   6.101
 1284SOL     OW15479   1.275   4.702  25.420
 1284SOL    HW115480   1.285   4.687  25.514
 1284SOL    HW215481   1.303   4.620  25.379
 1285SOL     OW15482   4.011   0.476  26.458
 1285SOL    HW115483   3.918   0.486  26.436
 1285SOL    HW215484   4.017   0.502  26.550
 1286SOL     OW15485   4.405   1.199   3.349
 1286SOL    HW115486   4.312   1.185   3.365
 1286SOL    HW215487   4.439   1.111   3.331
 1287SOL     OW15488   2.870   1.723   8.767
 1287SOL    HW115489   2.817   1.734   8.846
 1287SOL    HW215490   2.864   1.629   8.748
 1288SOL     OW15491   3.547   1.953  28.474
 1288SOL    HW115492   3.481   1.990  28.415
 1288SOL    HW215493   3.622   1.934  28.417
 1289SOL     OW15494   4.066   2.966  22.335
 1289SOL    HW115495   3.974   2.988  22.318
 1289SOL    HW215496   4.064   2.915  22.416
 1290SOL     OW15497   3.247   0.244  24.922
 1290SOL    HW115498   3.268   0.268  25.012
 1290SOL    HW215499   3.280   0.317  24.870
 1291SOL     OW15500   1.560   4.106   6.828
 1291SOL    HW115501   1.583   4.160   6.752
 1291SOL    HW215502   1.495   4.045   6.794
 1292SOL     OW15503   3.597   2.567  24.228
 1292SOL    HW115504   3.628   2.606  24.310
 1292SOL    HW215505   3.677   2.547  24.179
 1293SOL     OW15506   2.202   4.516  18.831
 1293SOL    HW115507   2.123   4.484  18.787
 1293SOL    HW215508   2.274   4.477  18.782
 1294SOL     OW15509   3.058   3.274   4.581
 1294SOL    HW115510   3.051   3.222   4.501
 1294SOL    HW215511   3.066   3.209   4.651
 1295SOL     OW15512   0.881   1.083  24.014
 1295SOL    HW115513   0.790   1.104  24.035
 1295SOL    HW215514   0.930   1.106  24.093
 1296SOL     OW15515   0.350   0.107  23.151
 1296SOL    HW115516   0.270   0.105  23.098
 1296SOL    HW215517   0.318   0.108  23.241
 1297SOL     OW15518   0.523   0.341   0.805
 1297SOL    HW115519   0.454   0.286   0.843
 1297SOL    HW215520   0.477   0.417   0.770
 1298SOL     OW15521   3.454   1.483   8.349
 1298SOL    HW115522   3.476   1.462   8.440
 1298SOL    HW215523   3.535   1.519   8.312
 1299SOL     OW15524   0.588   4.144   9.477
 1299SOL    HW115525   0.583   4.164   9.570
 1299SOL    HW215526   0.620   4.054   9.473
 1300SOL     OW15527   0.245   3.451   9.903
 1300SOL    HW115528   0.277   3.509   9.834
 1300SOL    HW215529   0.159   3.486   9.926
 1301SOL     OW15530   2.146   3.224   3.328
 1301SOL    HW115531   2.069   3.276   3.306
 1301SOL    HW215532   2.201   3.283   3.379
 1302SOL     OW15533   1.467   2.266   2.827
 1302SOL    HW115534   1.510   2.182   2.839
 1302SOL    HW215535   1.395   2.265   2.890
 1303SOL     OW15536   1.811   2.793   1.404
 1303SOL    HW115537   1.764   2.794   1.321
 1303SOL    HW215538   1.871   2.867   1.399
 1304SOL     OW15539   4.503   1.251   2.676
 1304SOL    HW115540   4.548   1.167   2.681
 1304SOL    HW215541   4.505   1.285   2.765
 1305SOL     OW15542   0.732   3.558   5.864
 1305SOL    HW115543   0.825   3.538   5.857
 1305SOL    HW215544   0.691   3.474   5.884
 1306SOL     OW15545   0.139   1.681  26.805
 1306SOL    HW115546   0.234   1.682  26.796
 1306SOL    HW215547   0.109   1.759  26.759
 1307SOL     OW15548   4.362   1.832   9.547
 1307SOL    HW115549   4.418   1.858   9.620
 1307SOL    HW215550   4.274   1.858   9.574
 1308SOL     OW15551   0.795   3.182  26.486
 1308SOL    HW115552   0.708   3.220  26.474
 1308SOL    HW215553   0.812   3.136  26.404
 1309SOL     OW15554   2.800   4.321   7.225
 1309SOL    HW115555   2.840   4.379   7.289
 1309SOL    HW215556   2.719   4.365   7.201
 1310SOL     OW15557   3.349   2.478   3.201
 1310SOL    HW115558   3.369   2.410   3.265
 1310SOL    HW215559   3.406   2.459   3.127
 1311SOL     OW15560   2.731   1.181   6.715
 1311SOL    HW115561   2.803   1.118   6.720
 1311SOL    HW215562   2.713   1.205   6.806
 1312SOL     OW15563   4.452   0.077  27.677
 1312SOL    HW115564   4.470   0.171  27.685
 1312SOL    HW215565   4.461   0.059  27.583
 1313SOL     OW15566   4.026   4.093   8.582
 1313SOL    HW115567   3.972   4.161   8.542
 1313SOL    HW215568   4.099   4.082   8.521
 1314SOL     OW15569   2.158   0.951  26.773
 1314SOL    HW115570   2.084   0.984  26.722
 1314SOL    HW215571   2.180   0.867  26.732
 1315SOL     OW15572   2.787   3.295   7.750
 1315SOL    HW115573   2.820   3.346   7.676
 1315SOL    HW215574   2.865   3.272   7.801
 1316SOL     OW15575   2.023   1.456  22.726
 1316SOL    HW115576   2.041   1.535  22.675
 1316SOL    HW215577   2.049   1.478  22.815
 1317SOL     OW15578   3.665   2.744  26.260
 1317SOL    HW115579   3.579   2.785  26.251
 1317SOL    HW215580   3.672   2.686  26.184
 1318SOL     OW15581   0.761   4.532   1.604
 1318SOL    HW115582   0.750   4.535   1.699
 1318SOL    HW215583   0.698   4.465   1.575
 1319SOL     OW15584   4.561   3.295  22.780
 1319SOL    HW115585   4.620   3.318  22.852
 1319SOL    HW215586   4.547   3.378  22.734
 1320SOL     OW15587   4.195   0.866   6.952
 1320SOL    HW115588   4.275   0.832   6.992
 1320SOL    HW215589   4.184   0.953   6.991
 1321SOL     OW15590   3.020   1.478  22.270
 1321SOL    HW115591   3.047   1.419  22.340
 1321SOL    HW215592   3.077   1.554  22.278
 1322SOL     OW15593   1.627   2.149  10.479
 1322SOL    HW115594   1.636   2.060  10.446
 1322SOL    HW215595   1.588   2.139  10.566
 1323SOL     OW15596   1.429   0.696   1.876
 1323SOL    HW115597   1.503   0.646   1.840
 1323SOL    HW215598   1.352   0.658   1.834
 1324SOL     OW15599   2.722   1.625  10.117
 1324SOL    HW115600   2.663   1.581  10.178
 1324SOL    HW215601   2.801   1.643  10.169
 1325SOL     OW15602   3.442   4.475   9.815
 1325SOL    HW115603   3.486   4.390   9.806
 1325SOL    HW215604   3.370   4.471   9.752
 1326SOL     OW15605   1.333   2.291  23.034
 1326SOL    HW115606   1.377   2.269  22.952
 1326SOL    HW215607   1.248   2.248  23.028
 1327SOL     OW15608   3.836   4.549   7.842
 1327SOL    HW115609   3.791   4.465   7.835
 1327SOL    HW215610   3.929   4.526   7.848
 1328SOL     OW15611   1.058   3.979  24.349
 1328SOL    HW115612   1.071   4.072  24.330
 1328SOL    HW215613   1.142   3.949  24.385
 1329SOL     OW15614   2.225   2.380   6.339
 1329SOL    HW115615   2.194   2.413   6.255
 1329SOL    HW215616   2.320   2.382   6.332
 1330SOL     OW15617   3.074   4.594  21.956
 1330SOL    HW115618   3.108   4.548  21.879
 1330SOL    HW215619   3.002   4.539  21.987
 1331SOL     OW15620   1.628   4.056   7.282
 1331SOL    HW115621   1.595   4.082   7.368
 1331SOL    HW215622   1.682   4.130   7.254
 1332SOL     OW15623   2.544   3.216  25.222
 1332SOL    HW115624   2.599   3.188  25.295
 1332SOL    HW215625   2.561   3.151  25.153
 1333SOL     OW15626   0.109   0.390   0.163
 1333SOL    HW115627   0.161   0.333   0.106
 1333SOL    HW215628   0.040   0.424   0.106
 1334SOL     OW15629   0.234   1.423  27.450
 1334SOL    HW115630   0.219   1.467  27.534
 1334SOL    HW215631   0.326   1.439  27.431
 1335SOL     OW15632   1.798   1.045   2.068
 1335SOL    HW115633   1.859   0.982   2.106
 1335SOL    HW215634   1.808   1.035   1.973
 1336SOL     OW15635   3.890   1.379   1.676
 1336SOL    HW115636   3.986   1.379   1.673
 1336SOL    HW215637   3.868   1.446   1.741
 1337SOL     OW15638   0.752   3.376   4.881
 1337SOL    HW115639   0.686   3.381   4.812
 1337SOL    HW215640   0.729   3.446   4.941
 1338SOL     OW15641   3.339   0.544   3.241
 1338SOL    HW115642   3.274   0.536   3.311
 1338SOL    HW215643   3.422   0.557   3.287
 1339SOL     OW15644   2.339   3.289  26.359
 1339SOL    HW115645   2.284   3.218  26.392
 1339SOL    HW215646   2.326   3.287  26.264
 1340SOL     OW15647   3.050   1.128   3.289
 1340SOL    HW115648   3.044   1.152   3.197
 1340SOL    HW215649   2.959   1.118   3.317
 1341SOL     OW15650   0.558   2.926  25.673
 1341SOL    HW115651   0.556   2.861  25.744
 1341SOL    HW215652   0.467   2.931  25.643
 1342SOL     OW15653   4.723   4.177  25.445
 1342SOL    HW115654   4.644   4.185  25.498
 1342SOL    HW215655   4.750   4.086  25.455
 1343SOL     OW15656   0.996   4.329  18.475
 1343SOL    HW115657   0.942   4.328  18.396
 1343SOL    HW215658   0.948   4.384  18.536
 1344SOL     OW15659   3.045   1.751  22.208
 1344SOL    HW115660   2.994   1.820  22.165
 1344SOL    HW215661   3.061   1.784  22.296
 1345SOL     OW15662   4.764   2.485  22.253
 1345SOL    HW115663   4.720   2.490  22.168
 1345SOL    HW215664   0.014   2.574  22.270
 1346SOL     OW15665   0.039   3.950   3.077
 1346SOL    HW115666   0.045   3.855   3.070
 1346SOL    HW215667   4.768   3.965   3.157
 1347SOL     OW15668   0.260   2.204   5.911
 1347SOL    HW115669   0.300   2.201   5.824
 1347SOL    HW215670   0.310   2.141   5.963
 1348SOL     OW15671   3.202   2.849   8.262
 1348SOL    HW115672   3.213   2.877   8.353
 1348SOL    HW215673   3.200   2.753   8.266
 1349SOL     OW15674   2.921   3.932   8.386
 1349SOL    HW115675   2.927   3.976   8.471
 1349SOL    HW215676   2.996   3.873   8.384
 1350SOL     OW15677   1.593   2.296   4.070
 1350SOL    HW115678   1.637   2.220   4.032
 1350SOL    HW215679   1.605   2.366   4.005
 1351SOL     OW15680   1.420   1.333  18.070
 1351SOL    HW115681   1.444   1.390  17.997
 1351SOL    HW215682   1.480   1.258  18.063
 1352SOL     OW15683   2.228   1.024   3.910
 1352SOL    HW115684   2.230   1.067   3.825
 1352SOL    HW215685   2.215   0.931   3.890
 1353SOL     OW15686   2.602   0.030  18.711
 1353SOL    HW115687   2.588   0.115  18.754
 1353SOL    HW215688   2.594   0.049  18.617
 1354SOL     OW15689   3.084   0.808   6.899
 1354SOL    HW115690   3.097   0.728   6.848
 1354SOL    HW215691   3.151   0.803   6.967
 1355SOL     OW15692   0.587   1.315   9.477
 1355SOL    HW115693   0.544   1.280   9.399
 1355SOL    HW215694   0.517   1.357   9.527
 1356SOL     OW15695   1.974   3.688  11.245
 1356SOL    HW115696   1.948   3.646  11.163
 1356SOL    HW215697   2.060   3.725  11.227
 1357SOL     OW15698   0.729   0.442  28.412
 1357SOL    HW115699   0.747   0.348  28.411
 1357SOL    HW215700   0.804   0.482  28.368
 1358SOL     OW15701   2.463   4.698   2.078
 1358SOL    HW115702   2.479   0.008   2.050
 1358SOL    HW215703   2.447   4.650   1.997
 1359SOL     OW15704   2.866   0.630  26.923
 1359SOL    HW115705   2.949   0.675  26.939
 1359SOL    HW215706   2.866   0.557  26.985
 1360SOL     OW15707   1.967   1.973  25.822
 1360SOL    HW115708   2.045   1.918  25.823
 1360SOL    HW215709   1.908   1.930  25.760
 1361SOL     OW15710   2.315   0.565  19.088
 1361SOL    HW115711   2.244   0.592  19.030
 1361SOL    HW215712   2.277   0.570  19.176
 1362SOL     OW15713   2.531   3.388   5.309
 1362SOL    HW115714   2.490   3.456   5.363
 1362SOL    HW215715   2.586   3.339   5.370
 1363SOL     OW15716   2.902   2.161   8.800
 1363SOL    HW115717   2.975   2.146   8.860
 1363SOL    HW215718   2.900   2.083   8.744
 1364SOL     OW15719   4.416   3.053  27.143
 1364SOL    HW115720   4.380   3.128  27.190
 1364SOL    HW215721   4.428   3.085  27.054
 1365SOL     OW15722   2.064   4.602   7.246
 1365SOL    HW115723   1.982   4.632   7.207
 1365SOL    HW215724   2.124   4.675   7.234
 1366SOL     OW15725   0.632   1.189  26.687
 1366SOL    HW115726   0.542   1.207  26.661
 1366SOL    HW215727   0.624   1.138  26.768
 1367SOL     OW15728   2.949   2.390   6.173
 1367SOL    HW115729   2.867   2.420   6.135
 1367SOL    HW215730   2.943   2.294   6.170
 1368SOL     OW15731   0.230   1.902   1.870
 1368SOL    HW115732   0.257   1.810   1.876
 1368SOL    HW215733   0.192   1.921   1.956
 1369SOL     OW15734   4.390   2.612  23.770
 1369SOL    HW115735   4.324   2.678  23.792
 1369SOL    HW215736   4.435   2.647  23.693
 1370SOL     OW15737   3.259   1.026  20.990
 1370SOL    HW115738   3.246   1.114  21.025
 1370SOL    HW215739   3.321   0.985  21.050
 1371SOL     OW15740   2.275   3.482  27.953
 1371SOL    HW115741   2.325   3.543  27.899
 1371SOL    HW215742   2.327   3.472  28.033
 1372SOL     OW15743   0.447   3.731  27.275
 1372SOL    HW115744   0.521   3.777  27.314
 1372SOL    HW215745   0.485   3.650  27.240
 1373SOL     OW15746   0.459   1.236   9.230
 1373SOL    HW115747   0.473   1.209   9.139
 1373SOL    HW215748   0.433   1.156   9.275
 1374SOL     OW15749   4.078   4.338   5.754
 1374SOL    HW115750   3.997   4.379   5.725
 1374SOL    HW215751   4.142   4.361   5.686
 1375SOL     OW15752   2.409   3.646  10.052
 1375SOL    HW115753   2.351   3.711  10.011
 1375SOL    HW215754   2.455   3.695  10.120
 1376SOL     OW15755   2.827   3.091  24.596
 1376SOL    HW115756   2.778   3.089  24.514
 1376SOL    HW215757   2.874   3.174  24.595
 1377SOL     OW15758   1.088   1.135   3.138
 1377SOL    HW115759   1.092   1.049   3.180
 1377SOL    HW215760   1.118   1.120   3.048
 1378SOL     OW15761   3.738   4.531  25.207
 1378SOL    HW115762   3.805   4.594  25.179
 1378SOL    HW215763   3.666   4.543  25.145
 1379SOL     OW15764   2.758   1.699  24.244
 1379SOL    HW115765   2.696   1.725  24.176
 1379SOL    HW215766   2.724   1.738  24.324
 1380SOL     OW15767   4.662   0.063   0.736
 1380SOL    HW115768   4.665   0.081   0.830
 1380SOL    HW215769   4.644   0.148   0.696
 1381SOL     OW15770   3.200   1.419   1.375
 1381SOL    HW115771   3.222   1.420   1.282
 1381SOL    HW215772   3.106   1.435   1.377
 1382SOL     OW15773   1.952   0.476  11.614
 1382SOL    HW115774   2.046   0.466  11.602
 1382SOL    HW215775   1.942   0.496  11.707
 1383SOL     OW15776   0.039   1.510  21.079
 1383SOL    HW115777   0.064   1.590  21.126
 1383SOL    HW215778   4.724   1.515  21.073
 1384SOL     OW15779   3.280   3.000  23.525
 1384SOL    HW115780   3.268   3.093  23.543
 1384SOL    HW215781   3.267   2.957  23.609
 1385SOL     OW15782   1.570   3.081  23.686
 1385SOL    HW115783   1.511   3.027  23.739
 1385SOL    HW215784   1.620   3.131  23.750
 1386SOL     OW15785   1.839   1.309  22.550
 1386SOL    HW115786   1.895   1.349  22.616
 1386SOL    HW215787   1.758   1.289  22.596
 1387SOL     OW15788   1.733   3.287   5.083
 1387SOL    HW115789   1.791   3.278   5.007
 1387SOL    HW215790   1.721   3.197   5.114
 1388SOL     OW15791   2.284   3.374   2.206
 1388SOL    HW115792   2.271   3.368   2.301
 1388SOL    HW215793   2.379   3.383   2.195
 1389SOL     OW15794   4.506   2.952  21.178
 1389SOL    HW115795   4.571   2.883  21.164
 1389SOL    HW215796   4.509   3.004  21.098
 1390SOL     OW15797   0.670   2.000   0.426
 1390SOL    HW115798   0.628   2.081   0.396
 1390SOL    HW215799   0.733   1.979   0.357
 1391SOL     OW15800   3.520   4.098  21.388
 1391SOL    HW115801   3.437   4.056  21.409
 1391SOL    HW215802   3.504   4.141  21.304
 1392SOL     OW15803   4.480   2.323  19.179
 1392SOL    HW115804   4.425   2.335  19.257
 1392SOL    HW215805   4.425   2.353  19.107
 1393SOL     OW15806   3.940   1.629  18.829
 1393SOL    HW115807   3.913   1.656  18.917
 1393SOL    HW215808   4.031   1.602  18.839
 1394SOL     OW15809   0.829   1.603   6.961
 1394SOL    HW115810   0.872   1.687   6.978
 1394SOL    HW215811   0.901   1.542   6.948
 1395SOL     OW15812   4.005   1.157   4.546
 1395SOL    HW115813   3.965   1.244   4.538
 1395SOL    HW215814   3.992   1.117   4.460
 1396SOL     OW15815   4.304   0.779   9.948
 1396SOL    HW115816   4.360   0.712   9.987
 1396SOL    HW215817   4.216   0.743   9.956
 1397SOL     OW15818   0.529   4.098   0.305
 1397SOL    HW115819   0.523   4.186   0.343
 1397SOL    HW215820   0.516   4.039   0.379
 1398SOL     OW15821   1.235   4.289   3.957
 1398SOL    HW115822   1.145   4.320   3.967
 1398SOL    HW215823   1.279   4.318   4.037
 1399SOL     OW15824   0.208   1.125  27.619
 1399SOL    HW115825   0.202   1.176  27.538
 1399SOL    HW215826   0.219   1.035  27.589
 1400SOL     OW15827   1.711   0.464   0.655
 1400SOL    HW115828   1.745   0.440   0.569
 1400SOL    HW215829   1.619   0.485   0.640
 1401SOL     OW15830   0.584   2.211   3.263
 1401SOL    HW115831   0.523   2.194   3.335
 1401SOL    HW215832   0.612   2.302   3.276
 1402SOL     OW15833   3.151   1.396  20.476
 1402SOL    HW115834   3.140   1.306  20.506
 1402SOL    HW215835   3.198   1.439  20.547
 1403SOL     OW15836   3.650   3.807  26.061
 1403SOL    HW115837   3.566   3.838  26.028
 1403SOL    HW215838   3.636   3.796  26.155
 1404SOL     OW15839   3.522   3.035  24.590
 1404SOL    HW115840   3.449   2.974  24.598
 1404SOL    HW215841   3.578   2.998  24.522
 1405SOL     OW15842   3.358   4.499  19.823
 1405SOL    HW115843   3.333   4.441  19.895
 1405SOL    HW215844   3.454   4.497  19.824
 1406SOL     OW15845   4.204   4.032  26.801
 1406SOL    HW115846   4.258   4.008  26.725
 1406SOL    HW215847   4.135   4.087  26.765
 1407SOL     OW15848   0.988   1.864  23.750
 1407SOL    HW115849   0.974   1.819  23.667
 1407SOL    HW215850   0.900   1.880  23.784
 1408SOL     OW15851   0.560   3.726  18.734
 1408SOL    HW115852   0.566   3.793  18.803
 1408SOL    HW215853   0.470   3.732  18.702
 1409SOL     OW15854   1.133   2.833  20.800
 1409SOL    HW115855   1.163   2.823  20.710
 1409SOL    HW215856   1.057   2.890  20.794
 1410SOL     OW15857   1.512   0.379  22.681
 1410SOL    HW115858   1.545   0.289  22.681
 1410SOL    HW215859   1.552   0.419  22.758
 1411SOL     OW15860   3.875   3.933  27.365
 1411SOL    HW115861   3.781   3.945  27.378
 1411SOL    HW215862   3.913   3.944  27.452
 1412SOL     OW15863   0.992   2.032  26.518
 1412SOL    HW115864   0.999   2.000  26.428
 1412SOL    HW215865   1.081   2.023  26.553
 1413SOL     OW15866   4.300   3.185  22.562
 1413SOL    HW115867   4.275   3.100  22.597
 1413SOL    HW215868   4.276   3.247  22.631
 1414SOL     OW15869   4.586   2.580  17.228
 1414SOL    HW115870   4.606   2.492  17.260
 1414SOL    HW215871   4.671   2.616  17.203
 1415SOL     OW15872   3.997   4.662   3.136
 1415SOL    HW115873   3.986   4.635   3.045
 1415SOL    HW215874   4.083   4.704   3.138
 1416SOL     OW15875   0.889   0.752   8.358
 1416SOL    HW115876   0.941   0.818   8.313
 1416SOL    HW215877   0.883   0.679   8.296
 1417SOL     OW15878   2.253   2.108  22.801
 1417SOL    HW115879   2.209   2.066  22.727
 1417SOL    HW215880   2.200   2.086  22.877
 1418SOL     OW15881   0.130   2.004  25.854
 1418SOL    HW115882   0.186   2.045  25.788
 1418SOL    HW215883   0.117   2.073  25.919
 1419SOL     OW15884   1.522   1.645   8.658
 1419SOL    HW115885   1.478   1.719   8.699
 1419SOL    HW215886   1.452   1.582   8.640
 1420SOL     OW15887   3.491   1.761   6.059
 1420SOL    HW115888   3.411   1.740   6.107
 1420SOL    HW215889   3.513   1.680   6.014
 1421SOL     OW15890   2.547   4.668  19.730
 1421SOL    HW115891   2.580   4.591  19.777
 1421SOL    HW215892   2.553   4.645  19.637
 1422SOL     OW15893   0.063   3.199   1.654
 1422SOL    HW115894   0.105   3.273   1.609
 1422SOL    HW215895   4.776   3.169   1.593
 1423SOL     OW15896   4.185   2.447  25.225
 1423SOL    HW115897   4.269   2.479  25.257
 1423SOL    HW215898   4.202   2.419  25.135
 1424SOL     OW15899   3.918   3.342   3.565
 1424SOL    HW115900   3.862   3.332   3.488
 1424SOL    HW215901   4.003   3.367   3.529
 1425SOL     OW15902   1.243   3.927   8.510
 1425SOL    HW115903   1.265   3.982   8.434
 1425SOL    HW215904   1.152   3.949   8.531
 1426SOL     OW15905   0.038   2.661  17.166
 1426SOL    HW115906   0.077   2.735  17.212
 1426SOL    HW215907   0.046   2.683  17.073
 1427SOL     OW15908   3.699   0.875  19.645
 1427SOL    HW115909   3.617   0.909  19.611
 1427SOL    HW215910   3.766   0.934  19.611
 1428SOL     OW15911   1.570   2.192  23.668
 1428SOL    HW115912   1.584   2.106  23.707
 1428SOL    HW215913   1.492   2.181  23.614
 1429SOL     OW15914   1.804   4.191  24.093
 1429SOL    HW115915   1.764   4.126  24.036
 1429SOL    HW215916   1.761   4.273  24.070
 1430SOL     OW15917   2.362   4.382  25.575
 1430SOL    HW115918   2.432   4.406  25.515
 1430SOL    HW215919   2.393   4.410  25.661
 1431SOL     OW15920   0.149   1.506   7.442
 1431SOL    HW115921   0.159   1.561   7.364
 1431SOL    HW215922   0.170   1.564   7.515
 1432SOL     OW15923   4.250   2.210  21.625
 1432SOL    HW115924   4.319   2.145  21.635
 1432SOL    HW215925   4.234   2.242  21.714
 1433SOL     OW15926   2.216   4.063  27.223
 1433SOL    HW115927   2.227   3.971  27.198
 1433SOL    HW215928   2.199   4.109  27.141
 1434SOL     OW15929   3.243   0.994  27.481
 1434SOL    HW115930   3.179   1.021  27.414
 1434SOL    HW215931   3.269   1.076  27.523
 1435SOL     OW15932   1.111   0.014   9.414
 1435SOL    HW115933   1.177   4.744   9.462
 1435SOL    HW215934   1.027   4.766   9.451
 1436SOL     OW15935   1.012   3.217  25.457
 1436SOL    HW115936   0.935   3.160  25.460
 1436SOL    HW215937   1.073   3.172  25.398
 1437SOL     OW15938   0.666   4.723   1.296
 1437SOL    HW115939   0.637   4.694   1.382
 1437SOL    HW215940   0.728   4.656   1.268
 1438SOL     OW15941   0.689   4.729   2.116
 1438SOL    HW115942   0.637   0.006   2.060
 1438SOL    HW215943   0.626   4.695   2.180
 1439SOL     OW15944   3.396   2.184   0.715
 1439SOL    HW115945   3.327   2.118   0.705
 1439SOL    HW215946   3.377   2.250   0.648
 1440SOL     OW15947   1.894   2.223  10.495
 1440SOL    HW115948   1.934   2.146  10.455
 1440SOL    HW215949   1.800   2.213  10.479
 1441SOL     OW15950   2.910   2.314  25.160
 1441SOL    HW115951   2.993   2.358  25.178
 1441SOL    HW215952   2.851   2.384  25.132
 1442SOL     OW15953   1.712   3.634  20.402
 1442SOL    HW115954   1.724   3.540  20.388
 1442SOL    HW215955   1.698   3.670  20.314
 1443SOL     OW15956   3.027   4.494  25.939
 1443SOL    HW115957   2.977   4.538  25.870
 1443SOL    HW215958   3.076   4.564  25.982
 1444SOL     OW15959   1.628   3.236  10.090
 1444SOL    HW115960   1.549   3.185  10.109
 1444SOL    HW215961   1.643   3.288  10.169
 1445SOL     OW15962   1.182   0.291   9.398
 1445SOL    HW115963   1.162   0.197   9.394
 1445SOL    HW215964   1.266   0.296   9.443
 1446SOL     OW15965   0.332   1.706  23.947
 1446SOL    HW115966   0.277   1.727  24.022
 1446SOL    HW215967   0.322   1.612  23.935
 1447SOL     OW15968   1.796   0.369  27.947
 1447SOL    HW115969   1.737   0.358  28.021
 1447SOL    HW215970   1.745   0.416  27.882
 1448SOL     OW15971   4.775   4.094  24.272
 1448SOL    HW115972   0.060   4.067  24.336
 1448SOL    HW215973   0.045   4.128  24.198
 1449SOL     OW15974   1.863   2.263  26.434
 1449SOL    HW115975   1.913   2.183  26.418
 1449SOL    HW215976   1.888   2.290  26.522
 1450SOL     OW15977   1.951   3.629  27.569
 1450SOL    HW115978   1.860   3.629  27.600
 1450SOL    HW215979   2.003   3.645  27.648
 1451SOL     OW15980   2.308   2.966  27.265
 1451SOL    HW115981   2.330   2.909  27.339
 1451SOL    HW215982   2.354   2.927  27.191
 1452SOL     OW15983   3.928   0.580  17.946
 1452SOL    HW115984   3.876   0.646  17.992
 1452SOL    HW215985   4.019   0.608  17.959
 1453SOL     OW15986   2.822   1.155  20.817
 1453SOL    HW115987   2.778   1.119  20.740
 1453SOL    HW215988   2.875   1.083  20.850
 1454SOL     OW15989   0.907   0.052   2.260
 1454SOL    HW115990   0.833   0.018   2.209
 1454SOL    HW215991   0.928   0.136   2.219
 1455SOL     OW15992   3.270   0.212  10.392
 1455SOL    HW115993   3.255   0.124  10.427
 1455SOL    HW215994   3.190   0.260  10.414
 1456SOL     OW15995   0.408   3.265   1.825
 1456SOL    HW115996   0.448   3.307   1.748
 1456SOL    HW215997   0.456   3.302   1.900
 1457SOL     OW15998   1.541   0.558  28.055
 1457SOL    HW115999   1.583   0.637  28.088
 1457SOL    HW216000   1.541   0.498  28.130
 1458SOL     OW16001   0.723   1.669   7.500
 1458SOL    HW116002   0.799   1.715   7.465
 1458SOL    HW216003   0.685   1.730   7.564
 1459SOL     OW16004   0.983   4.566  19.545
 1459SOL    HW116005   0.920   4.583  19.475
 1459SOL    HW216006   0.938   4.503  19.602
 1460SOL     OW16007   4.206   1.367  19.731
 1460SOL    HW116008   4.113   1.381  19.711
 1460SOL    HW216009   4.241   1.325  19.653
 1461SOL     OW16010   2.958   1.775  12.479
 1461SOL    HW116011   3.027   1.754  12.416
 1461SOL    HW216012   2.885   1.805  12.425
 1462SOL     OW16013   2.149   4.313  21.286
 1462SOL    HW116014   2.144   4.408  21.295
 1462SOL    HW216015   2.207   4.300  21.211
 1463SOL     OW16016   2.121   3.941   5.887
 1463SOL    HW116017   2.185   3.870   5.883
 1463SOL    HW216018   2.095   3.944   5.979
 1464SOL     OW16019   3.287   0.776   5.975
 1464SOL    HW116020   3.345   0.811   5.907
 1464SOL    HW216021   3.223   0.846   5.990
 1465SOL     OW16022   1.332   1.423  20.389
 1465SOL    HW116023   1.419   1.418  20.430
 1465SOL    HW216024   1.273   1.443  20.461
 1466SOL     OW16025   4.009   4.715  20.078
 1466SOL    HW116026   4.027   4.647  20.013
 1466SOL    HW216027   4.037   0.016  20.036
 1467SOL     OW16028   0.212   3.462   7.778
 1467SOL    HW116029   0.256   3.463   7.863
 1467SOL    HW216030   0.283   3.468   7.714
 1468SOL     OW16031   4.078   4.339  24.636
 1468SOL    HW116032   4.124   4.274  24.689
 1468SOL    HW216033   4.073   4.300  24.549
 1469SOL     OW16034   2.636   1.650   0.098
 1469SOL    HW116035   2.649   1.578   0.037
 1469SOL    HW216036   2.722   1.663   0.138
 1470SOL     OW16037   2.866   0.312   3.242
 1470SOL    HW116038   2.878   0.223   3.208
 1470SOL    HW216039   2.862   0.367   3.164
 1471SOL     OW16040   3.114   2.918   9.802
 1471SOL    HW116041   3.058   2.842   9.816
 1471SOL    HW216042   3.086   2.981   9.869
 1472SOL     OW16043   3.917   4.273   5.176
 1472SOL    HW116044   3.973   4.199   5.198
 1472SOL    HW216045   3.926   4.283   5.081
 1473SOL     OW16046   2.313   0.055  21.464
 1473SOL    HW116047   2.261   0.119  21.513
 1473SOL    HW216048   2.317   0.091  21.375
 1474SOL     OW16049   3.085   0.179  20.545
 1474SOL    HW116050   3.162   0.144  20.589
 1474SOL    HW216051   3.108   0.179  20.452
 1475SOL     OW16052   2.519   0.631   7.096
 1475SOL    HW116053   2.445   0.658   7.042
 1475SOL    HW216054   2.588   0.694   7.075
 1476SOL     OW16055   2.165   1.490   3.364
 1476SOL    HW116056   2.188   1.578   3.393
 1476SOL    HW216057   2.070   1.493   3.350
 1477SOL     OW16058   3.585   0.431  25.293
 1477SOL    HW116059   3.675   0.408  25.271
 1477SOL    HW216060   3.588   0.450  25.387
 1478SOL     OW16061   3.661   1.520   9.130
 1478SOL    HW116062   3.570   1.548   9.125
 1478SOL    HW216063   3.679   1.481   9.045
 1479SOL     OW16064   4.756   4.132  28.505
 1479SOL    HW116065   0.013   4.075  28.438
 1479SOL    HW216066   4.687   4.181  28.460
 1480SOL     OW16067   3.236   3.632   6.923
 1480SOL    HW116068   3.156   3.610   6.875
 1480SOL    HW216069   3.240   3.728   6.919
 1481SOL     OW16070   0.642   1.441  24.174
 1481SOL    HW116071   0.606   1.353  24.182
 1481SOL    HW216072   0.629   1.464  24.082
 1482SOL     OW16073   2.698   0.411  28.483
 1482SOL    HW116074   2.743   0.335  28.447
 1482SOL    HW216075   2.632   0.374   0.023
 1483SOL     OW16076   3.943   0.285   7.258
 1483SOL    HW116077   3.918   0.246   7.174
 1483SOL    HW216078   3.968   0.211   7.313
 1484SOL     OW16079   3.308   3.079  25.197
 1484SOL    HW116080   3.302   3.096  25.291
 1484SOL    HW216081   3.393   3.036  25.185
 1485SOL     OW16082   4.196   4.128  23.758
 1485SOL    HW116083   4.253   4.127  23.835
 1485SOL    HW216084   4.172   4.036  23.744
 1486SOL     OW16085   3.317   2.194   2.606
 1486SOL    HW116086   3.261   2.269   2.626
 1486SOL    HW216087   3.330   2.150   2.690
 1487SOL     OW16088   1.237   2.085   6.516
 1487SOL    HW116089   1.216   1.993   6.532
 1487SOL    HW216090   1.271   2.087   6.427
 1488SOL     OW16091   3.247   3.503   8.384
 1488SOL    HW116092   3.186   3.462   8.445
 1488SOL    HW216093   3.317   3.538   8.439
 1489SOL     OW16094   4.588   0.018   8.978
 1489SOL    HW116095   4.535   0.048   8.904
 1489SOL    HW216096   4.586   4.703   8.972
 1490SOL     OW16097   0.515   1.377   3.574
 1490SOL    HW116098   0.575   1.412   3.640
 1490SOL    HW216099   0.448   1.330   3.624
 1491SOL     OW16100   0.319   4.780  20.818
 1491SOL    HW116101   0.312   0.083  20.771
 1491SOL    HW216102   0.353   4.719  20.753
 1492SOL     OW16103   1.759   3.430   2.569
 1492SOL    HW116104   1.783   3.513   2.610
 1492SOL    HW216105   1.762   3.449   2.475
 1493SOL     OW16106   4.750   1.605   6.036
 1493SOL    HW116107   0.032   1.665   5.995
 1493SOL    HW216108   0.008   1.584   6.121
 1494SOL     OW16109   1.057   0.666  11.360
 1494SOL    HW116110   1.032   0.739  11.416
 1494SOL    HW216111   1.128   0.623  11.407
 1495SOL     OW16112   1.817   0.393   4.306
 1495SOL    HW116113   1.736   0.382   4.356
 1495SOL    HW216114   1.794   0.455   4.237
 1496SOL     OW16115   2.504   1.847   6.801
 1496SOL    HW116116   2.506   1.888   6.714
 1496SOL    HW216117   2.415   1.862   6.833
 1497SOL     OW16118   0.886   3.044  22.631
 1497SOL    HW116119   0.867   3.134  22.657
 1497SOL    HW216120   0.900   3.049  22.536
 1498SOL     OW16121   2.026   3.062   2.614
 1498SOL    HW116122   2.115   3.037   2.638
 1498SOL    HW216123   1.973   3.042   2.691
 1499SOL     OW16124   2.894   3.954  21.358
 1499SOL    HW116125   2.961   3.971  21.424
 1499SOL    HW216126   2.852   4.039  21.343
 1500SOL     OW16127   1.294   2.745   2.891
 1500SOL    HW116128   1.292   2.656   2.927
 1500SOL    HW216129   1.387   2.768   2.888
 1501SOL     OW16130   1.222   0.686  25.653
 1501SOL    HW116131   1.137   0.641  25.649
 1501SOL    HW216132   1.241   0.709  25.562
 1502SOL     OW16133   3.870   1.334  26.847
 1502SOL    HW116134   3.944   1.344  26.787
 1502SOL    HW216135   3.820   1.261  26.811
 1503SOL     OW16136   3.544   0.119   0.939
 1503SOL    HW116137   3.577   0.082   1.021
 1503SOL    HW216138   3.480   0.185   0.967
 1504SOL     OW16139   1.666   4.184   6.521
 1504SOL    HW116140   1.726   4.142   6.583
 1504SOL    HW216141   1.596   4.120   6.508
 1505SOL     OW16142   0.889   1.898  19.548
 1505SOL    HW116143   0.911   1.985  19.583
 1505SOL    HW216144   0.922   1.899  19.458
 1506SOL     OW16145   3.555   1.487  23.742
 1506SOL    HW116146   3.551   1.410  23.685
 1506SOL    HW216147   3.538   1.452  23.830
 1507SOL     OW16148   1.436   2.744   7.673
 1507SOL    HW116149   1.471   2.728   7.761
 1507SOL    HW216150   1.509   2.725   7.614
 1508SOL     OW16151   4.042   1.607  25.792
 1508SOL    HW116152   4.107   1.552  25.835
 1508SOL    HW216153   3.958   1.576  25.825
 1509SOL     OW16154   0.396   2.154  20.115
 1509SOL    HW116155   0.388   2.235  20.165
 1509SOL    HW216156   0.381   2.180  20.024
 1510SOL     OW16157   4.270   1.845  21.678
 1510SOL    HW116158   4.325   1.923  21.681
 1510SOL    HW216159   4.280   1.812  21.589
 1511SOL     OW16160   0.173   2.316  24.773
 1511SOL    HW116161   0.115   2.240  24.770
 1511SOL    HW216162   0.246   2.293  24.716
 1512SOL     OW16163   2.807   2.457   8.815
 1512SOL    HW116164   2.728   2.469   8.762
 1512SOL    HW216165   2.832   2.366   8.801
 1513SOL     OW16166   1.227   0.743   3.669
 1513SOL    HW116167   1.239   0.737   3.574
 1513SOL    HW216168   1.275   0.668   3.704
 1514SOL     OW16169   4.004   1.042   0.941
 1514SOL    HW116170   4.071   1.071   0.879
 1514SOL    HW216171   4.022   0.949   0.954
 1515SOL     OW16172   3.969   4.027   0.043
 1515SOL    HW116173   3.909   4.041   0.116
 1515SOL    HW216174   3.949   3.939   0.012
 1516SOL     OW16175   0.803   0.150  25.851
 1516SOL    HW116176   0.762   0.069  25.821
 1516SOL    HW216177   0.806   0.142  25.946
 1517SOL     OW16178   0.803   2.029   3.470
 1517SOL    HW116179   0.844   2.104   3.512
 1517SOL    HW216180   0.830   2.035   3.378
 1518SOL     OW16181   0.785   0.617  24.761
 1518SOL    HW116182   0.799   0.690  24.821
 1518SOL    HW216183   0.691   0.618  24.743
 1519SOL     OW16184   1.469   2.528   3.099
 1519SOL    HW116185   1.549   2.483   3.070
 1519SOL    HW216186   1.487   2.621   3.083
 1520SOL     OW16187   4.757   4.255  24.496
 1520SOL    HW116188   0.022   4.268  24.413
 1520SOL    HW216189   4.666   4.278  24.477
 1521SOL     OW16190   3.933   4.726   0.837
 1521SOL    HW116191   3.920   4.677   0.756
 1521SOL    HW216192   3.974   0.027   0.809
 1522SOL     OW16193   1.446   0.169   0.678
 1522SOL    HW116194   1.371   0.208   0.633
 1522SOL    HW216195   1.407   0.119   0.750
 1523SOL     OW16196   3.484   3.676  20.159
 1523SOL    HW116197   3.539   3.629  20.096
 1523SOL    HW216198   3.395   3.647  20.138
 1524SOL     OW16199   3.687   2.591   0.367
 1524SOL    HW116200   3.747   2.658   0.335
 1524SOL    HW216201   3.735   2.509   0.356
 1525SOL     OW16202   2.640   4.407  22.715
 1525SOL    HW116203   2.674   4.482  22.666
 1525SOL    HW216204   2.557   4.387  22.673
 1526SOL     OW16205   3.891   1.190  26.585
 1526SOL    HW116206   3.806   1.151  26.565
 1526SOL    HW216207   3.953   1.143  26.529
 1527SOL     OW16208   2.792   3.061   3.116
 1527SOL    HW116209   2.875   3.102   3.092
 1527SOL    HW216210   2.770   3.006   3.041
 1528SOL     OW16211   0.859   2.369  27.808
 1528SOL    HW116212   0.815   2.414  27.736
 1528SOL    HW216213   0.926   2.430  27.837
 1529SOL     OW16214   4.203   2.340   7.072
 1529SOL    HW116215   4.146   2.361   7.146
 1529SOL    HW216216   4.287   2.381   7.093
 1530SOL     OW16217   4.237   2.237  27.189
 1530SOL    HW116218   4.183   2.300  27.141
 1530SOL    HW216219   4.177   2.166  27.210
 1531SOL     OW16220   1.599   1.445  25.997
 1531SOL    HW116221   1.545   1.473  26.071
 1531SOL    HW216222   1.537   1.411  25.933
 1532SOL     OW16223   4.630   4.722  26.659
 1532SOL    HW116224   4.551   4.683  26.696
 1532SOL    HW216225   4.619   0.036  26.671
 1533SOL     OW16226   4.528   3.781  26.971
 1533SOL    HW116227   4.494   3.761  26.884
 1533SOL    HW216228   4.474   3.853  27.003
 1534SOL     OW16229   0.764   3.642  25.279
 1534SOL    HW116230   0.847   3.612  25.316
 1534SOL    HW216231   0.763   3.608  25.190
 1535SOL     OW16232   1.220   2.460  19.724
 1535SOL    HW116233   1.229   2.521  19.797
 1535SOL    HW216234   1.160   2.393  19.756
 1536SOL     OW16235   2.469   2.805  10.890
 1536SOL    HW116236   2.554   2.833  10.925
 1536SOL    HW216237   2.453   2.864  10.817
 1537SOL     OW16238   1.226   1.811   6.337
 1537SOL    HW116239   1.259   1.884   6.285
 1537SOL    HW216240   1.131   1.815   6.326
 1538SOL     OW16241   3.044   3.525  21.240
 1538SOL    HW116242   2.967   3.582  21.241
 1538SOL    HW216243   3.011   3.440  21.269
 1539SOL     OW16244   0.593   4.022  25.072
 1539SOL    HW116245   0.590   3.926  25.071
 1539SOL    HW216246   0.518   4.048  25.125
 1540SOL     OW16247   3.377   0.890  23.313
 1540SOL    HW116248   3.429   0.969  23.327
 1540SOL    HW216249   3.348   0.896  23.222
 1541SOL     OW16250   0.873   4.766  24.918
 1541SOL    HW116251   0.806   0.024  24.975
 1541SOL    HW216252   0.953   4.767  24.971
 1542SOL     OW16253   3.555   2.106  17.661
 1542SOL    HW116254   3.645   2.127  17.635
 1542SOL    HW216255   3.561   2.019  17.700
 1543SOL     OW16256   3.713   4.569  20.060
 1543SOL    HW116257   3.682   4.583  19.971
 1543SOL    HW216258   3.778   4.638  20.074
 1544SOL     OW16259   2.831   3.083  19.269
 1544SOL    HW116260   2.836   3.115  19.179
 1544SOL    HW216261   2.773   3.145  19.313
 1545SOL     OW16262   2.335   2.740  11.108
 1545SOL    HW116263   2.376   2.758  11.023
 1545SOL    HW216264   2.393   2.782  11.172
 1546SOL     OW16265   3.168   1.198   5.187
 1546SOL    HW116266   3.216   1.248   5.121
 1546SOL    HW216267   3.150   1.114   5.145
 1547SOL     OW16268   4.302   1.469   6.897
 1547SOL    HW116269   4.344   1.554   6.909
 1547SOL    HW216270   4.208   1.488   6.898
 1548SOL     OW16271   2.300   4.076  27.478
 1548SOL    HW116272   2.242   4.022  27.532
 1548SOL    HW216273   2.259   4.077  27.392
 1549SOL     OW16274   1.031   1.810  27.641
 1549SOL    HW116275   1.006   1.829  27.550
 1549SOL    HW216276   1.023   1.715  27.649
 1550SOL     OW16277   4.036   1.567  22.699
 1550SOL    HW116278   4.074   1.627  22.635
 1550SOL    HW216279   4.005   1.623  22.770
 1551SOL     OW16280   2.307   1.822   0.667
 1551SOL    HW116281   2.229   1.873   0.646
 1551SOL    HW216282   2.327   1.845   0.758
 1552SOL     OW16283   3.489   2.488   1.936
 1552SOL    HW116284   3.539   2.411   1.910
 1552SOL    HW216285   3.457   2.467   2.024
 1553SOL     OW16286   1.119   4.746  22.140
 1553SOL    HW116287   1.110   4.720  22.232
 1553SOL    HW216288   1.097   4.667  22.091
 1554SOL     OW16289   3.167   3.486   6.038
 1554SOL    HW116290   3.228   3.511   6.108
 1554SOL    HW216291   3.091   3.542   6.052
 1555SOL     OW16292   2.151   1.071   1.861
 1555SOL    HW116293   2.122   1.156   1.829
 1555SOL    HW216294   2.246   1.073   1.850
 1556SOL     OW16295   4.224   0.641  26.364
 1556SOL    HW116296   4.212   0.640  26.269
 1556SOL    HW216297   4.141   0.607  26.399
 1557SOL     OW16298   4.399   2.470  22.626
 1557SOL    HW116299   4.318   2.458  22.576
 1557SOL    HW216300   4.467   2.430  22.572
 1558SOL     OW16301   4.715   1.360  10.123
 1558SOL    HW116302   0.006   1.405  10.168
 1558SOL    HW216303   4.649   1.346  10.191
 1559SOL     OW16304   0.645   2.755  26.449
 1559SOL    HW116305   0.685   2.810  26.382
 1559SOL    HW216306   0.584   2.699  26.401
 1560SOL     OW16307   0.028   0.791  25.218
 1560SOL    HW116308   0.056   0.881  25.199
 1560SOL    HW216309   0.093   0.736  25.174
 1561SOL     OW16310   0.291   4.529   8.654
 1561SOL    HW116311   0.285   4.446   8.606
 1561SOL    HW216312   0.240   4.515   8.733
 1562SOL     OW16313   4.002   3.360   1.983
 1562SOL    HW116314   3.914   3.395   2.000
 1562SOL    HW216315   4.050   3.377   2.064
 1563SOL     OW16316   1.460   0.547  27.351
 1563SOL    HW116317   1.437   0.606  27.423
 1563SOL    HW216318   1.518   0.599  27.295
 1564SOL     OW16319   1.451   2.858   4.335
 1564SOL    HW116320   1.486   2.828   4.419
 1564SOL    HW216321   1.491   2.944   4.321
 1565SOL     OW16322   4.723   4.252  20.995
 1565SOL    HW116323   4.725   4.255  20.899
 1565SOL    HW216324   4.670   4.328  21.021
 1566SOL     OW16325   1.928   3.129  24.351
 1566SOL    HW116326   2.014   3.139  24.391
 1566SOL    HW216327   1.873   3.195  24.394
 1567SOL     OW16328   4.456   0.489   0.359
 1567SOL    HW116329   4.518   0.445   0.300
 1567SOL    HW216330   4.426   0.565   0.309
 1568SOL     OW16331   3.488   0.603  21.907
 1568SOL    HW116332   3.536   0.594  21.825
 1568SOL    HW216333   3.421   0.668  21.888
 1569SOL     OW16334   1.020   1.299   6.605
 1569SOL    HW116335   1.081   1.343   6.547
 1569SOL    HW216336   0.933   1.326   6.574
 1570SOL     OW16337   4.008   1.573  25.434
 1570SOL    HW116338   3.956   1.493  25.432
 1570SOL    HW216339   4.040   1.578  25.524
 1571SOL     OW16340   3.661   3.940   9.308
 1571SOL    HW116341   3.569   3.913   9.315
 1571SOL    HW216342   3.672   4.004   9.378
 1572SOL     OW16343   0.230   2.085  25.128
 1572SOL    HW116344   0.220   1.990  25.138
 1572SOL    HW216345   0.210   2.121  25.214
 1573SOL     OW16346   0.932   0.025   3.302
 1573SOL    HW116347   0.968   0.075   3.375
 1573SOL    HW216348   0.837   0.031   3.312
 1574SOL     OW16349   4.184   2.088   4.259
 1574SOL    HW116350   4.262   2.136   4.231
 1574SOL    HW216351   4.218   2.014   4.310
 1575SOL     OW16352   4.087   4.163  22.049
 1575SOL    HW116353   4.068   4.121  21.965
 1575SOL    HW216354   4.158   4.111  22.086
 1576SOL     OW16355   4.713   0.130   5.881
 1576SOL    HW116356   4.749   0.218   5.893
 1576SOL    HW216357   4.620   0.145   5.862
 1577SOL     OW16358   3.760   0.996  22.772
 1577SOL    HW116359   3.696   0.968  22.707
 1577SOL    HW216360   3.835   1.025  22.721
 1578SOL     OW16361   4.723   4.693  27.853
 1578SOL    HW116362   4.766   4.778  27.851
 1578SOL    HW216363   0.011   4.632  27.881
 1579SOL     OW16364   3.260   3.155   2.878
 1579SOL    HW116365   3.330   3.144   2.813
 1579SOL    HW216366   3.288   3.101   2.952
 1580SOL     OW16367   4.494   1.709  22.768
 1580SOL    HW116368   4.461   1.636  22.820
 1580SOL    HW216369   4.470   1.687  22.678
 1581SOL     OW16370   1.906   2.498  22.954
 1581SOL    HW116371   1.917   2.466  23.044
 1581SOL    HW216372   1.815   2.477  22.932
 1582SOL     OW16373   3.354   2.228   5.341
 1582SOL    HW116374   3.292   2.278   5.289
 1582SOL    HW216375   3.405   2.178   5.277
 1583SOL     OW16376   0.176   4.624   0.316
 1583SOL    HW116377   0.185   4.683   0.391
 1583SOL    HW216378   0.108   4.562   0.342
 1584SOL     OW16379   3.139   0.178   6.764
 1584SOL    HW116380   3.211   0.121   6.793
 1584SOL    HW216381   3.100   0.209   6.845
 1585SOL     OW16382   4.596   1.204  17.613
 1585SOL    HW116383   4.557   1.168  17.534
 1585SOL    HW216384   4.676   1.152  17.626
 1586SOL     OW16385   2.443   3.099   5.514
 1586SOL    HW116386   2.401   3.177   5.550
 1586SOL    HW216387   2.521   3.132   5.470
 1587SOL     OW16388   2.351   3.316   7.497
 1587SOL    HW116389   2.287   3.379   7.530
 1587SOL    HW216390   2.418   3.312   7.565
 1588SOL     OW16391   4.178   2.984  27.842
 1588SOL    HW116392   4.085   3.000  27.825
 1588SOL    HW216393   4.221   3.068  27.825
 1589SOL     OW16394   1.524   2.456   9.099
 1589SOL    HW116395   1.512   2.445   9.193
 1589SOL    HW216396   1.539   2.367   9.066
 1590SOL     OW16397   4.120   4.366   0.063
 1590SOL    HW116398   4.068   4.305   0.011
 1590SOL    HW216399   4.127   4.324   0.149
 1591SOL     OW16400   3.884   3.855   0.869
 1591SOL    HW116401   3.846   3.847   0.956
 1591SOL    HW216402   3.865   3.945   0.842
 1592SOL     OW16403   4.015   2.417  27.293
 1592SOL    HW116404   3.992   2.492  27.349
 1592SOL    HW216405   4.014   2.342  27.352
 1593SOL     OW16406   1.013   0.214  27.175
 1593SOL    HW116407   1.104   0.245  27.174
 1593SOL    HW216408   1.001   0.174  27.089
 1594SOL     OW16409   0.680   2.298   6.915
 1594SOL    HW116410   0.679   2.238   6.841
 1594SOL    HW216411   0.591   2.333   6.920
 1595SOL     OW16412   3.536   3.026  26.341
 1595SOL    HW116413   3.627   3.012  26.313
 1595SOL    HW216414   3.487   3.034  26.259
 1596SOL     OW16415   0.368   0.018  28.012
 1596SOL    HW116416   0.335   0.106  27.994
 1596SOL    HW216417   0.452   0.032  28.056
 1597SOL     OW16418   3.871   2.712  26.450
 1597SOL    HW116419   3.872   2.790  26.505
 1597SOL    HW216420   3.797   2.726  26.391
 1598SOL     OW16421   1.127   0.355  12.188
 1598SOL    HW116422   1.131   0.408  12.109
 1598SOL    HW216423   1.053   0.296  12.173
 1599SOL     OW16424   0.033   1.929   6.297
 1599SOL    HW116425   4.761   1.901   6.222
 1599SOL    HW216426   0.002   1.875   6.370
 1600SOL     OW16427   2.808   4.235  19.255
 1600SOL    HW116428   2.796   4.182  19.176
 1600SOL    HW216429   2.872   4.301  19.230
 1601SOL     OW16430   2.151   4.440  27.901
 1601SOL    HW116431   2.160   4.407  27.812
 1601SOL    HW216432   2.167   4.364  27.957
 1602SOL     OW16433   0.885   1.782   6.576
 1602SOL    HW116434   0.871   1.872   6.547
 1602SOL    HW216435   0.863   1.728   6.500
 1603SOL     OW16436   4.403   1.280  17.804
 1603SOL    HW116437   4.464   1.227  17.752
 1603SOL    HW216438   4.317   1.245  17.782
 1604SOL     OW16439   2.632   2.226  22.778
 1604SOL    HW116440   2.606   2.134  22.775
 1604SOL    HW216441   2.645   2.244  22.871
 1605SOL     OW16442   2.509   2.394   5.905
 1605SOL    HW116443   2.465   2.330   5.849
 1605SOL    HW216444   2.466   2.477   5.885
 1606SOL     OW16445   4.401   0.807  19.756
 1606SOL    HW116446   4.336   0.740  19.777
 1606SOL    HW216447   4.448   0.772  19.680
 1607SOL     OW16448   2.530   3.850   8.904
 1607SOL    HW116449   2.477   3.899   8.967
 1607SOL    HW216450   2.473   3.779   8.875
 1608SOL     OW16451   4.630   2.393   1.628
 1608SOL    HW116452   4.550   2.341   1.625
 1608SOL    HW216453   4.629   2.433   1.715
 1609SOL     OW16454   2.791   2.499   9.944
 1609SOL    HW116455   2.753   2.424   9.990
 1609SOL    HW216456   2.718   2.560   9.933
 1610SOL     OW16457   3.978   3.289  25.424
 1610SOL    HW116458   4.048   3.320  25.481
 1610SOL    HW216459   3.898   3.300  25.475
 1611SOL     OW16460   3.880   0.930  20.149
 1611SOL    HW116461   3.817   1.001  20.163
 1611SOL    HW216462   3.961   0.975  20.125
 1612SOL     OW16463   2.628   2.179  20.202
 1612SOL    HW116464   2.655   2.100  20.249
 1612SOL    HW216465   2.698   2.194  20.139
 1613SOL     OW16466   1.554   4.552  20.342
 1613SOL    HW116467   1.580   4.593  20.425
 1613SOL    HW216468   1.564   4.621  20.277
 1614SOL     OW16469   3.406   4.569  22.769
 1614SOL    HW116470   3.324   4.618  22.763
 1614SOL    HW216471   3.406   4.514  22.691
 1615SOL     OW16472   1.016   4.004  23.114
 1615SOL    HW116473   1.090   4.001  23.175
 1615SOL    HW216474   1.008   4.097  23.091
 1616SOL     OW16475   0.236   4.497  19.717
 1616SOL    HW116476   0.316   4.457  19.751
 1616SOL    HW216477   0.228   4.580  19.765
 1617SOL     OW16478   4.574   1.469  27.427
 1617SOL    HW116479   4.600   1.439  27.340
 1617SOL    HW216480   4.502   1.411  27.452
 1618SOL     OW16481   0.465   4.746   0.885
 1618SOL    HW116482   0.421   0.049   0.902
 1618SOL    HW216483   0.420   4.711   0.808
 1619SOL     OW16484   4.328   1.934   1.686
 1619SOL    HW116485   4.277   1.859   1.656
 1619SOL    HW216486   4.338   1.920   1.780
 1620SOL     OW16487   4.343   1.905   4.436
 1620SOL    HW116488   4.401   1.980   4.447
 1620SOL    HW216489   4.390   1.832   4.477
 1621SOL     OW16490   2.514   0.571  23.137
 1621SOL    HW116491   2.576   0.629  23.181
 1621SOL    HW216492   2.430   0.591  23.178
 1622SOL     OW16493   0.907   1.273  22.220
 1622SOL    HW116494   0.936   1.351  22.173
 1622SOL    HW216495   0.813   1.287  22.235
 1623SOL     OW16496   3.306   3.434   5.515
 1623SOL    HW116497   3.315   3.354   5.566
 1623SOL    HW216498   3.262   3.495   5.574
 1624SOL     OW16499   1.414   1.420  22.089
 1624SOL    HW116500   1.334   1.461  22.122
 1624SOL    HW216501   1.465   1.399  22.167
 1625SOL     OW16502   0.280   3.953  21.419
 1625SOL    HW116503   0.184   3.951  21.426
 1625SOL    HW216504   0.310   3.957  21.510
 1626SOL     OW16505   1.119   1.541  18.649
 1626SOL    HW116506   1.172   1.619  18.663
 1626SOL    HW216507   1.152   1.503  18.567
 1627SOL     OW16508   3.050   2.114  22.895
 1627SOL    HW116509   2.993   2.129  22.971
 1627SOL    HW216510   3.138   2.136  22.926
 1628SOL     OW16511   2.415   0.044  21.203
 1628SOL    HW116512   2.399   0.056  21.109
 1628SOL    HW216513   2.503   0.078  21.217
 1629SOL     OW16514   3.587   4.389   2.237
 1629SOL    HW116515   3.502   4.416   2.271
 1629SOL    HW216516   3.572   4.374   2.144
 1630SOL     OW16517   2.226   2.169  10.472
 1630SOL    HW116518   2.253   2.217  10.394
 1630SOL    HW216519   2.177   2.094  10.438
 1631SOL     OW16520   3.012   0.188   4.469
 1631SOL    HW116521   3.075   0.234   4.414
 1631SOL    HW216522   2.977   0.119   4.413
 1632SOL     OW16523   2.000   4.669  25.356
 1632SOL    HW116524   2.038   4.753  25.330
 1632SOL    HW216525   1.937   4.691  25.424
 1633SOL     OW16526   1.720   4.623   2.663
 1633SOL    HW116527   1.777   4.618   2.740
 1633SOL    HW216528   1.731   4.713   2.631
 1634SOL     OW16529   0.727   1.487  12.233
 1634SOL    HW116530   0.699   1.566  12.279
 1634SOL    HW216531   0.795   1.450  12.289
 1635SOL     OW16532   3.199   2.195  23.339
 1635SOL    HW116533   3.129   2.259  23.325
 1635SOL    HW216534   3.260   2.239  23.398
 1636SOL     OW16535   0.682   0.997  10.451
 1636SOL    HW116536   0.605   1.039  10.413
 1636SOL    HW216537   0.697   0.921  10.395
 1637SOL     OW16538   4.636   2.254   2.493
 1637SOL    HW116539   4.625   2.191   2.564
 1637SOL    HW216540   4.653   2.337   2.537
 1638SOL     OW16541   3.210   2.217  25.128
 1638SOL    HW116542   3.296   2.245  25.096
 1638SOL    HW216543   3.179   2.291  25.179
 1639SOL     OW16544   2.584   0.889  19.587
 1639SOL    HW116545   2.500   0.858  19.621
 1639SOL    HW216546   2.571   0.983  19.575
 1640SOL     OW16547   4.135   3.100   7.941
 1640SOL    HW116548   4.112   3.173   7.998
 1640SOL    HW216549   4.051   3.069   7.906
 1641SOL     OW16550   0.081   2.598  27.586
 1641SOL    HW116551   0.109   2.579  27.675
 1641SOL    HW216552   0.114   2.525  27.534
 1642SOL     OW16553   2.121   4.352   7.815
 1642SOL    HW116554   2.181   4.426   7.810
 1642SOL    HW216555   2.096   4.335   7.724
 1643SOL     OW16556   1.417   1.700  21.272
 1643SOL    HW116557   1.409   1.646  21.350
 1643SOL    HW216558   1.511   1.719  21.266
 1644SOL     OW16559   1.061   3.930   9.507
 1644SOL    HW116560   1.044   4.013   9.462
 1644SOL    HW216561   1.040   3.863   9.442
 1645SOL     OW16562   1.036   1.286  24.728
 1645SOL    HW116563   1.061   1.209  24.677
 1645SOL    HW216564   0.983   1.252  24.800
 1646SOL     OW16565   1.348   1.471   5.857
 1646SOL    HW116566   1.340   1.525   5.935
 1646SOL    HW216567   1.259   1.464   5.823
 1647SOL     OW16568   1.846   0.956   3.738
 1647SOL    HW116569   1.824   0.997   3.822
 1647SOL    HW216570   1.825   0.863   3.750
 1648SOL     OW16571   3.107   2.446  24.877
 1648SOL    HW116572   3.169   2.374  24.887
 1648SOL    HW216573   3.023   2.403  24.863
 1649SOL     OW16574   3.570   1.380   6.840
 1649SOL    HW116575   3.509   1.453   6.830
 1649SOL    HW216576   3.531   1.308   6.791
 1650SOL     OW16577   0.193   1.889  22.080
 1650SOL    HW116578   0.151   1.955  22.024
 1650SOL    HW216579   0.235   1.829  22.018
 1651SOL     OW16580   2.136   2.930  22.236
 1651SOL    HW116581   2.165   2.849  22.193
 1651SOL    HW216582   2.082   2.974  22.171
 1652SOL     OW16583   2.559   3.837  19.735
 1652SOL    HW116584   2.472   3.800  19.722
 1652SOL    HW216585   2.567   3.905  19.668
 1653SOL     OW16586   1.480   0.052   6.518
 1653SOL    HW116587   1.562   0.101   6.523
 1653SOL    HW216588   1.468   0.017   6.606
 1654SOL     OW16589   2.776   4.731  23.904
 1654SOL    HW116590   2.856   4.752  23.953
 1654SOL    HW216591   2.801   4.739  23.812
 1655SOL     OW16592   3.969   4.119  25.366
 1655SOL    HW116593   3.899   4.055  25.377
 1655SOL    HW216594   3.927   4.204  25.378
 1656SOL     OW16595   4.563   3.541  25.051
 1656SOL    HW116596   4.568   3.515  25.143
 1656SOL    HW216597   4.470   3.539  25.030
 1657SOL     OW16598   2.325   0.488  25.343
 1657SOL    HW116599   2.315   0.461  25.434
 1657SOL    HW216600   2.348   0.407  25.297
 1658SOL     OW16601   2.197   3.300  22.337
 1658SOL    HW116602   2.184   3.338  22.250
 1658SOL    HW216603   2.137   3.225  22.339
 1659SOL     OW16604   1.041   3.914  20.227
 1659SOL    HW116605   1.118   3.864  20.200
 1659SOL    HW216606   1.029   3.891  20.319
 1660SOL     OW16607   0.158   0.415  26.404
 1660SOL    HW116608   0.179   0.442  26.314
 1660SOL    HW216609   0.112   0.490  26.441
 1661SOL     OW16610   2.682   2.500   5.596
 1661SOL    HW116611   2.597   2.536   5.571
 1661SOL    HW216612   2.715   2.460   5.516
 1662SOL     OW16613   4.009   4.446  26.078
 1662SOL    HW116614   3.994   4.368  26.131
 1662SOL    HW216615   3.959   4.515  26.122
 1663SOL     OW16616   0.017   2.197   6.038
 1663SOL    HW116617   4.766   2.107   6.034
 1663SOL    HW216618   0.104   2.193   5.998
 1664SOL     OW16619   4.113   0.218   7.987
 1664SOL    HW116620   4.150   0.130   7.985
 1664SOL    HW216621   4.039   0.214   7.926
 1665SOL     OW16622   1.754   4.078   2.735
 1665SOL    HW116623   1.742   4.170   2.711
 1665SOL    HW216624   1.771   4.034   2.652
 1666SOL     OW16625   4.540   4.624   8.361
 1666SOL    HW116626   4.605   4.606   8.293
 1666SOL    HW216627   4.592   4.655   8.436
 1667SOL     OW16628   2.677   1.279  25.714
 1667SOL    HW116629   2.703   1.277  25.806
 1667SOL    HW216630   2.735   1.216  25.672
 1668SOL     OW16631   1.556   1.848  10.883
 1668SOL    HW116632   1.591   1.870  10.969
 1668SOL    HW216633   1.520   1.760  10.893
 1669SOL     OW16634   2.017   1.010  19.459
 1669SOL    HW116635   2.029   1.104  19.446
 1669SOL    HW216636   2.101   0.971  19.434
 1670SOL     OW16637   3.790   1.028  10.242
 1670SOL    HW116638   3.764   1.069  10.325
 1670SOL    HW216639   3.732   0.953  10.233
 1671SOL     OW16640   3.879   4.351   1.666
 1671SOL    HW116641   3.869   4.327   1.574
 1671SOL    HW216642   3.966   4.319   1.689
 1672SOL     OW16643   2.316   4.563   5.082
 1672SOL    HW116644   2.401   4.596   5.054
 1672SOL    HW216645   2.258   4.577   5.007
 1673SOL     OW16646   2.452   4.522  20.083
 1673SOL    HW116647   2.547   4.530  20.081
 1673SOL    HW216648   2.434   4.443  20.032
 1674SOL     OW16649   4.194   4.266  27.917
 1674SOL    HW116650   4.190   4.360  27.935
 1674SOL    HW216651   4.218   4.261  27.824
 1675SOL     OW16652   3.232   3.515   2.479
 1675SOL    HW116653   3.242   3.603   2.515
 1675SOL    HW216654   3.318   3.475   2.490
 1676SOL     OW16655   0.356   1.897  21.377
 1676SOL    HW116656   0.371   1.883  21.470
 1676SOL    HW216657   0.417   1.966  21.353
 1677SOL     OW16658   3.726   1.709  24.764
 1677SOL    HW116659   3.812   1.668  24.764
 1677SOL    HW216660   3.729   1.771  24.837
 1678SOL     OW16661   1.907   0.864  20.421
 1678SOL    HW116662   1.874   0.776  20.403
 1678SOL    HW216663   1.903   0.909  20.337
 1679SOL     OW16664   3.053   0.677   1.509
 1679SOL    HW116665   3.062   0.587   1.540
 1679SOL    HW216666   3.042   0.729   1.589
 1680SOL     OW16667   4.087   2.360   7.313
 1680SOL    HW116668   4.122   2.356   7.402
 1680SOL    HW216669   3.999   2.396   7.324
 1681SOL     OW16670   2.885   1.958   8.628
 1681SOL    HW116671   2.880   1.965   8.533
 1681SOL    HW216672   2.861   1.867   8.647
 1682SOL     OW16673   4.055   2.222   0.437
 1682SOL    HW116674   4.072   2.258   0.524
 1682SOL    HW216675   4.139   2.187   0.408
 1683SOL     OW16676   2.341   3.944  27.887
 1683SOL    HW116677   2.284   3.969  27.959
 1683SOL    HW216678   2.372   4.027  27.851
 1684SOL     OW16679   0.215   4.576  23.087
 1684SOL    HW116680   0.210   4.646  23.022
 1684SOL    HW216681   0.275   4.610  23.154
 1685SOL     OW16682   1.982   3.080  22.087
 1685SOL    HW116683   1.963   3.090  21.994
 1685SOL    HW216684   1.934   3.152  22.129
 1686SOL     OW16685   3.458   4.778   7.919
 1686SOL    HW116686   3.494   0.059   7.856
 1686SOL    HW216687   3.373   4.753   7.882
 1687SOL     OW16688   0.561   4.262  19.605
 1687SOL    HW116689   0.532   4.312  19.681
 1687SOL    HW216690   0.634   4.209  19.637
 1688SOL     OW16691   4.585   3.641  28.449
 1688SOL    HW116692   4.652   3.687  28.500
 1688SOL    HW216693   4.538   3.711  28.403
 1689SOL     OW16694   3.322   0.463  22.787
 1689SOL    HW116695   3.358   0.386  22.743
 1689SOL    HW216696   3.243   0.431  22.830
 1690SOL     OW16697   2.901   2.812   0.523
 1690SOL    HW116698   2.950   2.889   0.495
 1690SOL    HW216699   2.813   2.845   0.542
 1691SOL     OW16700   0.108   0.629  21.168
 1691SOL    HW116701   0.135   0.720  21.155
 1691SOL    HW216702   0.184   0.577  21.142
 1692SOL     OW16703   0.480   0.838  23.608
 1692SOL    HW116704   0.412   0.887  23.561
 1692SOL    HW216705   0.533   0.799  23.539
 1693SOL     OW16706   0.866   1.986   2.051
 1693SOL    HW116707   0.813   1.999   2.130
 1693SOL    HW216708   0.928   2.059   2.051
 1694SOL     OW16709   3.326   3.725  25.505
 1694SOL    HW116710   3.385   3.706  25.578
 1694SOL    HW216711   3.370   3.688  25.428
 1695SOL     OW16712   1.261   0.727   5.776
 1695SOL    HW116713   1.319   0.681   5.837
 1695SOL    HW216714   1.319   0.787   5.729
 1696SOL     OW16715   3.100   0.915  23.372
 1696SOL    HW116716   3.190   0.932  23.344
 1696SOL    HW216717   3.052   0.904  23.290
 1697SOL     OW16718   0.833   2.032  26.988
 1697SOL    HW116719   0.775   1.958  27.007
 1697SOL    HW216720   0.905   2.022  27.051
 1698SOL     OW16721   1.640   2.598  23.278
 1698SOL    HW116722   1.706   2.542  23.237
 1698SOL    HW216723   1.653   2.586  23.372
 1699SOL     OW16724   1.880   4.242  11.658
 1699SOL    HW116725   1.849   4.333  11.657
 1699SOL    HW216726   1.807   4.191  11.624
 1700SOL     OW16727   3.056   0.172   4.019
 1700SOL    HW116728   3.136   0.119   4.020
 1700SOL    HW216729   3.056   0.214   3.933
 1701SOL     OW16730   4.401   2.586  25.394
 1701SOL    HW116731   4.364   2.666  25.432
 1701SOL    HW216732   4.462   2.554  25.460
 1702SOL     OW16733   4.004   3.749  25.632
 1702SOL    HW116734   3.915   3.780  25.615
 1702SOL    HW216735   4.061   3.817  25.597
 1703SOL     OW16736   2.293   1.745  18.903
 1703SOL    HW116737   2.222   1.771  18.845
 1703SOL    HW216738   2.325   1.663  18.866
 1704SOL     OW16739   0.551   2.733   7.501
 1704SOL    HW116740   0.492   2.681   7.555
 1704SOL    HW216741   0.530   2.708   7.411
 1705SOL     OW16742   0.953   1.042  22.076
 1705SOL    HW116743   0.935   1.088  21.994
 1705SOL    HW216744   0.934   1.106  22.145
 1706SOL     OW16745   0.228   1.591  21.815
 1706SOL    HW116746   0.295   1.584  21.884
 1706SOL    HW216747   0.164   1.524  21.837
 1707SOL     OW16748   1.421   1.012   0.441
 1707SOL    HW116749   1.338   0.965   0.435
 1707SOL    HW216750   1.478   0.968   0.378
 1708SOL     OW16751   0.431   1.503   4.341
 1708SOL    HW116752   0.499   1.569   4.359
 1708SOL    HW216753   0.380   1.499   4.422
 1709SOL     OW16754   1.920   1.083  20.583
 1709SOL    HW116755   1.912   1.001  20.534
 1709SOL    HW216756   2.003   1.120  20.553
 1710SOL     OW16757   3.465   4.693  10.454
 1710SOL    HW116758   3.478   4.627  10.522
 1710SOL    HW216759   3.525   4.764  10.477
 1711SOL     OW16760   1.932   0.349  20.584
 1711SOL    HW116761   1.960   0.311  20.501
 1711SOL    HW216762   2.011   0.387  20.621
 1712SOL     OW16763   2.231   0.347  24.950
 1712SOL    HW116764   2.236   0.312  25.039
 1712SOL    HW216765   2.320   0.376  24.931
 1713SOL     OW16766   1.286   3.668   7.745
 1713SOL    HW116767   1.248   3.693   7.829
 1713SOL    HW216768   1.251   3.732   7.683
 1714SOL     OW16769   1.120   2.177  27.291
 1714SOL    HW116770   1.207   2.174  27.331
 1714SOL    HW216771   1.134   2.218  27.206
 1715SOL     OW16772   4.768   1.310   8.803
 1715SOL    HW116773   4.701   1.375   8.781
 1715SOL    HW216774   4.736   1.269   8.883
 1716SOL     OW16775   2.047   1.567   9.040
 1716SOL    HW116776   2.036   1.658   9.012
 1716SOL    HW216777   2.082   1.574   9.129
 1717SOL     OW16778   0.120   3.551  18.600
 1717SOL    HW116779   0.094   3.637  18.566
 1717SOL    HW216780   0.148   3.502  18.523
 1718SOL     OW16781   0.221   3.222  18.494
 1718SOL    HW116782   0.200   3.136  18.458
 1718SOL    HW216783   0.287   3.205  18.561
 1719SOL     OW16784   2.421   1.366   6.372
 1719SOL    HW116785   2.365   1.443   6.376
 1719SOL    HW216786   2.484   1.386   6.302
 1720SOL     OW16787   0.837   3.918  24.157
 1720SOL    HW116788   0.854   3.843  24.100
 1720SOL    HW216789   0.894   3.905  24.232
 1721SOL     OW16790   4.139   1.628   2.993
 1721SOL    HW116791   4.049   1.635   3.025
 1721SOL    HW216792   4.191   1.610   3.071
 1722SOL     OW16793   0.339   2.955   1.459
 1722SOL    HW116794   0.401   2.953   1.532
 1722SOL    HW216795   0.378   3.016   1.396
 1723SOL     OW16796   3.015   0.258  11.911
 1723SOL    HW116797   3.069   0.337  11.907
 1723SOL    HW216798   2.926   0.290  11.922
 1724SOL     OW16799   4.052   0.936  18.031
 1724SOL    HW116800   4.061   0.912  17.939
 1724SOL    HW216801   4.136   0.975  18.054
 1725SOL     OW16802   1.855   2.966   7.056
 1725SOL    HW116803   1.803   2.927   6.986
 1725SOL    HW216804   1.927   3.010   7.011
 1726SOL     OW16805   1.189   3.317  19.241
 1726SOL    HW116806   1.196   3.236  19.191
 1726SOL    HW216807   1.169   3.288  19.330
 1727SOL     OW16808   0.138   2.285   9.331
 1727SOL    HW116809   0.181   2.279   9.416
 1727SOL    HW216810   0.044   2.282   9.351
 1728SOL     OW16811   3.574   2.348  27.318
 1728SOL    HW116812   3.596   2.255  27.306
 1728SOL    HW216813   3.653   2.386  27.357
 1729SOL     OW16814   4.499   4.468   8.932
 1729SOL    HW116815   4.564   4.479   8.863
 1729SOL    HW216816   4.430   4.416   8.892
 1730SOL     OW16817   4.297   0.491  11.615
 1730SOL    HW116818   4.282   0.492  11.709
 1730SOL    HW216819   4.324   0.401  11.596
 1731SOL     OW16820   1.857   4.226   9.400
 1731SOL    HW116821   1.774   4.266   9.375
 1731SOL    HW216822   1.921   4.264   9.340
 1732SOL     OW16823   0.691   3.951   7.182
 1732SOL    HW116824   0.651   3.912   7.260
 1732SOL    HW216825   0.620   3.999   7.139
 1733SOL     OW16826   0.313   2.143  10.573
 1733SOL    HW116827   0.238   2.118  10.627
 1733SOL    HW216828   0.293   2.232  10.543
 1734SOL     OW16829   3.343   4.397   2.357
 1734SOL    HW116830   3.256   4.372   2.387
 1734SOL    HW216831   3.399   4.387   2.434
 1735SOL     OW16832   2.364   3.509  25.920
 1735SOL    HW116833   2.302   3.530  25.989
 1735SOL    HW216834   2.311   3.502  25.841
 1736SOL     OW16835   3.204   0.432  21.851
 1736SOL    HW116836   3.169   0.343  21.848
 1736SOL    HW216837   3.137   0.482  21.897
 1737SOL     OW16838   0.378   4.562  22.645
 1737SOL    HW116839   0.383   4.634  22.582
 1737SOL    HW216840   0.463   4.518  22.638
 1738SOL     OW16841   1.236   4.593  27.066
 1738SOL    HW116842   1.233   4.653  26.991
 1738SOL    HW216843   1.329   4.579  27.082
 1739SOL     OW16844   4.221   0.874  23.524
 1739SOL    HW116845   4.265   0.842  23.602
 1739SOL    HW216846   4.275   0.947  23.494
 1740SOL     OW16847   4.467   2.233  23.099
 1740SOL    HW116848   4.389   2.208  23.050
 1740SOL    HW216849   4.433   2.276  23.178
 1741SOL     OW16850   2.602   2.284  28.428
 1741SOL    HW116851   2.580   2.261  28.518
 1741SOL    HW216852   2.604   2.200  28.382
 1742SOL     OW16853   1.378   2.635  20.508
 1742SOL    HW116854   1.339   2.565  20.455
 1742SOL    HW216855   1.304   2.691  20.531
 1743SOL     OW16856   1.298   2.447   4.803
 1743SOL    HW116857   1.232   2.427   4.737
 1743SOL    HW216858   1.345   2.523   4.767
 1744SOL     OW16859   1.314   4.565  25.707
 1744SOL    HW116860   1.228   4.524  25.695
 1744SOL    HW216861   1.365   4.500  25.756
 1745SOL     OW16862   2.769   4.269  12.089
 1745SOL    HW116863   2.712   4.257  12.165
 1745SOL    HW216864   2.854   4.290  12.127
 1746SOL     OW16865   2.096   1.292  23.927
 1746SOL    HW116866   2.121   1.215  23.979
 1746SOL    HW216867   2.107   1.366  23.987
 1747SOL     OW16868   0.666   2.357  21.534
 1747SOL    HW116869   0.700   2.357  21.444
 1747SOL    HW216870   0.607   2.433  21.537
 1748SOL     OW16871   3.780   3.869   7.220
 1748SOL    HW116872   3.687   3.885   7.236
 1748SOL    HW216873   3.804   3.801   7.283
 1749SOL     OW16874   4.379   0.814  17.280
 1749SOL    HW116875   4.414   0.731  17.246
 1749SOL    HW216876   4.334   0.854  17.205
 1750SOL     OW16877   0.941   2.968  27.984
 1750SOL    HW116878   1.007   2.900  27.994
 1750SOL    HW216879   0.977   3.027  27.918
 1751SOL     OW16880   1.864   2.410  19.599
 1751SOL    HW116881   1.840   2.392  19.508
 1751SOL    HW216882   1.952   2.373  19.608
 1752SOL     OW16883   1.410   1.600  24.783
 1752SOL    HW116884   1.478   1.617  24.718
 1752SOL    HW216885   1.419   1.507  24.804
 1753SOL     OW16886   0.347   0.006  19.075
 1753SOL    HW116887   0.416   0.037  19.016
 1753SOL    HW216888   0.339   0.076  19.140
 1754SOL     OW16889   4.677   4.165   1.446
 1754SOL    HW116890   4.668   4.123   1.360
 1754SOL    HW216891   4.614   4.237   1.444
 1755SOL     OW16892   3.937   2.383   8.325
 1755SOL    HW116893   3.989   2.462   8.337
 1755SOL    HW216894   3.965   2.325   8.396
 1756SOL     OW16895   3.137   3.898   6.242
 1756SOL    HW116896   3.207   3.949   6.201
 1756SOL    HW216897   3.133   3.817   6.192
 1757SOL     OW16898   2.844   2.515  22.045
 1757SOL    HW116899   2.762   2.482  22.081
 1757SOL    HW216900   2.908   2.447  22.067
 1758SOL     OW16901   4.207   4.728   4.841
 1758SOL    HW116902   4.241   4.656   4.894
 1758SOL    HW216903   4.239   4.709   4.753
 1759SOL     OW16904   2.635   1.269  26.914
 1759SOL    HW116905   2.559   1.219  26.886
 1759SOL    HW216906   2.707   1.236  26.860
 1760SOL     OW16907   3.602   3.932   9.824
 1760SOL    HW116908   3.571   3.921   9.914
 1760SOL    HW216909   3.696   3.945   9.833
 1761SOL     OW16910   0.978   3.172  23.274
 1761SOL    HW116911   0.965   3.264  23.253
 1761SOL    HW216912   0.891   3.133  23.267
 1762SOL     OW16913   2.233   4.654  21.643
 1762SOL    HW116914   2.141   4.671  21.665
 1762SOL    HW216915   2.251   4.713  21.569
 1763SOL     OW16916   3.678   0.050  23.259
 1763SOL    HW116917   3.612   4.761  23.258
 1763SOL    HW216918   3.747   0.018  23.201
 1764SOL     OW16919   0.154   0.283  24.182
 1764SOL    HW116920   0.250   0.280  24.185
 1764SOL    HW216921   0.127   0.191  24.181
 1765SOL     OW16922   1.971   1.770  28.032
 1765SOL    HW116923   1.950   1.797  28.122
 1765SOL    HW216924   1.941   1.679  28.026
 1766SOL     OW16925   0.263   4.192   8.811
 1766SOL    HW116926   0.305   4.173   8.895
 1766SOL    HW216927   0.199   4.260   8.831
 1767SOL     OW16928   4.269   4.313   8.443
 1767SOL    HW116929   4.312   4.361   8.372
 1767SOL    HW216930   4.209   4.377   8.482
 1768SOL     OW16931   1.506   1.466  19.381
 1768SOL    HW116932   1.430   1.440  19.433
 1768SOL    HW216933   1.513   1.560  19.395
 1769SOL     OW16934   3.196   2.999  21.983
 1769SOL    HW116935   3.179   3.027  22.073
 1769SOL    HW216936   3.288   3.019  21.969
 1770SOL     OW16937   4.084   3.890  23.716
 1770SOL    HW116938   4.004   3.840  23.732
 1770SOL    HW216939   4.150   3.824  23.696
 1771SOL     OW16940   3.702   2.534  23.745
 1771SOL    HW116941   3.671   2.574  23.664
 1771SOL    HW216942   3.634   2.554  23.809
 1772SOL     OW16943   3.015   2.848  25.158
 1772SOL    HW116944   2.981   2.888  25.078
 1772SOL    HW216945   3.089   2.795  25.129
 1773SOL     OW16946   4.141   1.619  18.472
 1773SOL    HW116947   4.140   1.562  18.395
 1773SOL    HW216948   4.201   1.690  18.449
 1774SOL     OW16949   1.281   1.261   8.955
 1774SOL    HW116950   1.190   1.254   8.983
 1774SOL    HW216951   1.332   1.239   9.033
 1775SOL     OW16952   0.060   0.432  24.782
 1775SOL    HW116953   0.061   0.525  24.803
 1775SOL    HW216954   4.748   0.413  24.764
 1776SOL     OW16955   4.557   1.652  22.481
 1776SOL    HW116956   4.647   1.641  22.511
 1776SOL    HW216957   4.525   1.563  22.466
 1777SOL     OW16958   3.269   4.127  20.556
 1777SOL    HW116959   3.205   4.116  20.626
 1777SOL    HW216960   3.310   4.212  20.573
 1778SOL     OW16961   3.710   0.335  28.205
 1778SOL    HW116962   3.729   0.266  28.269
 1778SOL    HW216963   3.630   0.306  28.162
 1779SOL     OW16964   4.701   4.030  28.016
 1779SOL    HW116965   4.737   4.005  27.931
 1779SOL    HW216966   4.606   4.032  28.002
 1780SOL     OW16967   0.692   0.145   8.786
 1780SOL    HW116968   0.753   0.072   8.774
 1780SOL    HW216969   0.653   0.157   8.699
 1781SOL     OW16970   0.672   0.955   3.069
 1781SOL    HW116971   0.700   0.866   3.092
 1781SOL    HW216972   0.582   0.961   3.100
 1782SOL     OW16973   0.815   3.834   8.644
 1782SOL    HW116974   0.840   3.759   8.697
 1782SOL    HW216975   0.758   3.886   8.701
 1783SOL     OW16976   1.461   3.242  25.104
 1783SOL    HW116977   1.376   3.286  25.104
 1783SOL    HW216978   1.514   3.290  25.040
 1784SOL     OW16979   1.646   4.012  27.360
 1784SOL    HW116980   1.644   4.106  27.378
 1784SOL    HW216981   1.609   3.972  27.439
 1785SOL     OW16982   1.665   4.262   8.220
 1785SOL    HW116983   1.749   4.248   8.263
 1785SOL    HW216984   1.666   4.354   8.195
 1786SOL     OW16985   2.407   2.674   2.277
 1786SOL    HW116986   2.422   2.741   2.343
 1786SOL    HW216987   2.482   2.682   2.217
 1787SOL     OW16988   1.393   2.686   1.378
 1787SOL    HW116989   1.381   2.682   1.473
 1787SOL    HW216990   1.326   2.627   1.343
 1788SOL     OW16991   3.086   3.209   6.022
 1788SOL    HW116992   3.107   3.281   6.081
 1788SOL    HW216993   3.034   3.249   5.952
 1789SOL     OW16994   3.126   0.397  26.882
 1789SOL    HW116995   3.158   0.390  26.792
 1789SOL    HW216996   3.169   0.476  26.916
 1790SOL     OW16997   4.323   1.709  28.328
 1790SOL    HW116998   4.248   1.695  28.386
 1790SOL    HW216999   4.316   1.639  28.263
 1791SOL     OW17000   3.014   1.418   7.074
 1791SOL    HW117001   3.049   1.338   7.112
 1791SOL    HW217002   3.080   1.485   7.092
 1792SOL     OW17003   3.753   0.523   1.257
 1792SOL    HW117004   3.673   0.489   1.296
 1792SOL    HW217005   3.820   0.459   1.281
 1793SOL     OW17006   3.118   4.639  27.045
 1793SOL    HW117007   3.208   4.611  27.026
 1793SOL    HW217008   3.110   4.724  27.002
 1794SOL     OW17009   4.202   1.369   6.153
 1794SOL    HW117010   4.211   1.351   6.247
 1794SOL    HW217011   4.280   1.421   6.131
 1795SOL     OW17012   0.831   4.240   8.566
 1795SOL    HW117013   0.759   4.238   8.629
 1795SOL    HW217014   0.810   4.313   8.507
 1796SOL     OW17015   2.367   3.630  21.128
 1796SOL    HW117016   2.430   3.696  21.158
 1796SOL    HW217017   2.344   3.581  21.207
 1797SOL     OW17018   0.906   3.876   2.212
 1797SOL    HW117019   0.868   3.882   2.300
 1797SOL    HW217020   0.959   3.955   2.203
 1798SOL     OW17021   2.833   1.047  25.640
 1798SOL    HW117022   2.900   1.006  25.585
 1798SOL    HW217023   2.756   0.991  25.629
 1799SOL     OW17024   1.247   3.492   7.335
 1799SOL    HW117025   1.314   3.450   7.388
 1799SOL    HW217026   1.290   3.509   7.251
 1800SOL     OW17027   2.319   2.546   4.001
 1800SOL    HW117028   2.383   2.586   3.943
 1800SOL    HW217029   2.366   2.532   4.083
 1801SOL     OW17030   1.956   0.879  21.944
 1801SOL    HW117031   1.866   0.857  21.968
 1801SOL    HW217032   1.953   0.972  21.921
 1802SOL     OW17033   2.143   4.199  11.048
 1802SOL    HW117034   2.189   4.282  11.037
 1802SOL    HW217035   2.096   4.208  11.131
 1803SOL     OW17036   3.159   3.588   1.044
 1803SOL    HW117037   3.126   3.499   1.058
 1803SOL    HW217038   3.096   3.644   1.088
 1804SOL     OW17039   3.089   4.202   2.647
 1804SOL    HW117040   3.169   4.178   2.694
 1804SOL    HW217041   3.018   4.179   2.707
 1805SOL     OW17042   4.456   3.281   8.696
 1805SOL    HW117043   4.549   3.272   8.675
 1805SOL    HW217044   4.453   3.293   8.791
 1806SOL     OW17045   3.324   3.819  27.178
 1806SOL    HW117046   3.339   3.725  27.189
 1806SOL    HW217047   3.234   3.832  27.207
 1807SOL     OW17048   2.826   2.746  27.925
 1807SOL    HW117049   2.768   2.706  27.860
 1807SOL    HW217050   2.846   2.832  27.889
 1808SOL     OW17051   0.983   2.535  26.202
 1808SOL    HW117052   1.053   2.577  26.152
 1808SOL    HW217053   0.966   2.595  26.274
 1809SOL     OW17054   4.220   2.709  12.362
 1809SOL    HW117055   4.191   2.625  12.398
 1809SOL    HW217056   4.157   2.729  12.292
 1810SOL     OW17057   2.219   3.199   0.630
 1810SOL    HW117058   2.185   3.119   0.590
 1810SOL    HW217059   2.310   3.179   0.652
 1811SOL     OW17060   2.152   0.126  26.099
 1811SOL    HW117061   2.172   0.220  26.103
 1811SOL    HW217062   2.216   0.091  26.037
 1812SOL     OW17063   0.844   0.067   4.209
 1812SOL    HW117064   0.753   0.050   4.233
 1812SOL    HW217065   0.847   0.161   4.190
 1813SOL     OW17066   1.627   2.905  11.596
 1813SOL    HW117067   1.711   2.888  11.639
 1813SOL    HW217068   1.607   2.824  11.549
 1814SOL     OW17069   4.018   0.683  21.543
 1814SOL    HW117070   4.022   0.632  21.624
 1814SOL    HW217071   3.949   0.641  21.492
 1815SOL     OW17072   2.415   2.639  24.631
 1815SOL    HW117073   2.416   2.680  24.544
 1815SOL    HW217074   2.447   2.708  24.690
 1816SOL     OW17075   2.301   1.498  23.733
 1816SOL    HW117076   2.247   1.443  23.790
 1816SOL    HW217077   2.296   1.455  23.647
 1817SOL     OW17078   2.375   4.535  24.540
 1817SOL    HW117079   2.370   4.524  24.635
 1817SOL    HW217080   2.465   4.512  24.517
 1818SOL     OW17081   4.006   0.202   2.239
 1818SOL    HW117082   4.020   0.236   2.327
 1818SOL    HW217083   3.965   0.274   2.192
 1819SOL     OW17084   3.527   1.589  17.418
 1819SOL    HW117085   3.524   1.493  17.418
 1819SOL    HW217086   3.528   1.612  17.325
 1820SOL     OW17087   1.325   0.100   7.355
 1820SOL    HW117088   1.353   0.137   7.271
 1820SOL    HW217089   1.279   0.020   7.332
 1821SOL     OW17090   0.387   3.079   8.394
 1821SOL    HW117091   0.479   3.103   8.401
 1821SOL    HW217092   0.385   3.009   8.329
 1822SOL     OW17093   1.877   3.592   7.582
 1822SOL    HW117094   1.912   3.665   7.633
 1822SOL    HW217095   1.811   3.631   7.525
 1823SOL     OW17096   4.380   2.358   8.593
 1823SOL    HW117097   4.393   2.315   8.508
 1823SOL    HW217098   4.468   2.366   8.629
 1824SOL     OW17099   2.979   2.896  18.196
 1824SOL    HW117100   2.941   2.972  18.241
 1824SOL    HW217101   2.905   2.856  18.151
 1825SOL     OW17102   0.584   4.247  19.025
 1825SOL    HW117103   0.667   4.199  19.027
 1825SOL    HW217104   0.594   4.308  18.952
 1826SOL     OW17105   0.944   0.989  23.023
 1826SOL    HW117106   0.971   0.920  22.963
 1826SOL    HW217107   0.899   0.943  23.094
 1827SOL     OW17108   0.987   2.443  26.850
 1827SOL    HW117109   0.895   2.443  26.825
 1827SOL    HW217110   1.007   2.535  26.865
 1828SOL     OW17111   0.929   4.071   4.370
 1828SOL    HW117112   0.840   4.101   4.385
 1828SOL    HW217113   0.984   4.130   4.422
 1829SOL     OW17114   2.434   0.820   3.323
 1829SOL    HW117115   2.410   0.794   3.234
 1829SOL    HW217116   2.353   0.857   3.359
 1830SOL     OW17117   4.627   0.033   2.606
 1830SOL    HW117118   4.584   0.013   2.523
 1830SOL    HW217119   4.606   0.125   2.622
 1831SOL     OW17120   4.701   2.539  28.449
 1831SOL    HW117121   4.648   2.474  28.403
 1831SOL    HW217122   4.659   2.623  28.428
 1832SOL     OW17123   4.501   1.668   2.402
 1832SOL    HW117124   4.575   1.678   2.462
 1832SOL    HW217125   4.435   1.620   2.453
 1833SOL     OW17126   4.217   1.420   7.258
 1833SOL    HW117127   4.227   1.347   7.197
 1833SOL    HW217128   4.244   1.384   7.343
 1834SOL     OW17129   4.577   3.522  23.137
 1834SOL    HW117130   4.602   3.508  23.228
 1834SOL    HW217131   4.591   3.615  23.122
 1835SOL     OW17132   4.074   3.743  22.099
 1835SOL    HW117133   4.104   3.681  22.033
 1835SOL    HW217134   4.066   3.691  22.179
 1836SOL     OW17135   2.777   0.717   0.486
 1836SOL    HW117136   2.852   0.753   0.439
 1836SOL    HW217137   2.792   0.622   0.485
 1837SOL     OW17138   4.234   1.444  27.377
 1837SOL    HW117139   4.271   1.486  27.299
 1837SOL    HW217140   4.139   1.454  27.367
 1838SOL     OW17141   2.667   1.232   0.325
 1838SOL    HW117142   2.641   1.273   0.407
 1838SOL    HW217143   2.751   1.272   0.303
 1839SOL     OW17144   0.983   1.427  11.008
 1839SOL    HW117145   0.913   1.465  11.061
 1839SOL    HW217146   0.984   1.480  10.928
 1840SOL     OW17147   3.906   3.662   2.655
 1840SOL    HW117148   3.874   3.623   2.736
 1840SOL    HW217149   3.848   3.737   2.640
 1841SOL     OW17150   1.123   2.938   8.371
 1841SOL    HW117151   1.074   2.857   8.384
 1841SOL    HW217152   1.165   2.955   8.456
 1842SOL     OW17153   1.448   0.940   5.956
 1842SOL    HW117154   1.433   1.016   6.013
 1842SOL    HW217155   1.543   0.926   5.960
 1843SOL     OW17156   2.654   3.264   6.464
 1843SOL    HW117157   2.739   3.271   6.421
 1843SOL    HW217158   2.659   3.182   6.512
 1844SOL     OW17159   4.577   4.630   1.210
 1844SOL    HW117160   4.597   4.670   1.295
 1844SOL    HW217161   4.635   4.674   1.148
 1845SOL     OW17162   1.331   3.469  26.383
 1845SOL    HW117163   1.310   3.412  26.457
 1845SOL    HW217164   1.422   3.495  26.397
 1846SOL     OW17165   1.055   1.719   1.505
 1846SOL    HW117166   1.048   1.746   1.596
 1846SOL    HW217167   1.094   1.632   1.509
 1847SOL     OW17168   3.706   4.422  26.322
 1847SOL    HW117169   3.677   4.407  26.412
 1847SOL    HW217170   3.787   4.372  26.314
 1848SOL     OW17171   2.324   1.869   7.884
 1848SOL    HW117172   2.347   1.815   7.960
 1848SOL    HW217173   2.275   1.943   7.921
 1849SOL     OW17174   4.379   4.469  19.705
 1849SOL    HW117175   4.441   4.530  19.745
 1849SOL    HW217176   4.375   4.496  19.613
 1850SOL     OW17177   4.326   0.110   6.371
 1850SOL    HW117178   4.374   0.056   6.308
 1850SOL    HW217179   4.390   0.176   6.399
 1851SOL     OW17180   4.647   0.161  25.067
 1851SOL    HW117181   4.735   0.151  25.102
 1851SOL    HW217182   4.650   0.118  24.981
 1852SOL     OW17183   4.701   3.365  27.396
 1852SOL    HW117184   4.701   3.356  27.491
 1852SOL    HW217185   4.678   3.278  27.364
 1853SOL     OW17186   4.690   1.656   9.871
 1853SOL    HW117187   4.773   1.699   9.851
 1853SOL    HW217188   4.711   1.563   9.872
 1854SOL     OW17189   0.510   0.204   8.101
 1854SOL    HW117190   0.437   0.215   8.162
 1854SOL    HW217191   0.550   0.291   8.097
 1855SOL     OW17192   1.529   0.420  28.436
 1855SOL    HW117193   1.602   0.480  28.421
 1855SOL    HW217194   1.541   0.351  28.370
 1856SOL     OW17195   0.168   3.055  24.478
 1856SOL    HW117196   0.153   3.147  24.499
 1856SOL    HW217197   0.120   3.006  24.545
 1857SOL     OW17198   4.129   2.924   3.231
 1857SOL    HW117199   4.222   2.905   3.244
 1857SOL    HW217200   4.113   3.001   3.286
 1858SOL     OW17201   1.844   4.470  28.198
 1858SOL    HW117202   1.758   4.453  28.237
 1858SOL    HW217203   1.899   4.399  28.231
 1859SOL     OW17204   4.012   0.707  23.893
 1859SOL    HW117205   3.977   0.793  23.917
 1859SOL    HW217206   4.006   0.655  23.973
 1860SOL     OW17207   3.933   3.097   5.142
 1860SOL    HW117208   4.017   3.116   5.184
 1860SOL    HW217209   3.904   3.181   5.106
 1861SOL     OW17210   2.449   1.241   5.494
 1861SOL    HW117211   2.449   1.265   5.587
 1861SOL    HW217212   2.401   1.158   5.491
 1862SOL     OW17213   4.482   1.508   8.031
 1862SOL    HW117214   4.519   1.507   8.119
 1862SOL    HW217215   4.536   1.446   7.981
 1863SOL     OW17216   3.105   2.181  21.088
 1863SOL    HW117217   3.089   2.254  21.028
 1863SOL    HW217218   3.095   2.103  21.033
 1864SOL     OW17219   0.065   2.620   0.337
 1864SOL    HW117220   0.017   2.681   0.280
 1864SOL    HW217221   0.148   2.605   0.291
 1865SOL     OW17222   1.816   4.411   4.280
 1865SOL    HW117223   1.725   4.380   4.275
 1865SOL    HW217224   1.835   4.413   4.374
 1866SOL     OW17225   2.529   2.546  27.073
 1866SOL    HW117226   2.539   2.451  27.064
 1866SOL    HW217227   2.579   2.568  27.152
 1867SOL     OW17228   4.507   2.024   3.711
 1867SOL    HW117229   4.551   2.032   3.626
 1867SOL    HW217230   4.562   1.964   3.761
 1868SOL     OW17231   1.810   1.642  10.279
 1868SOL    HW117232   1.765   1.593  10.348
 1868SOL    HW217233   1.760   1.623  10.200
 1869SOL     OW17234   3.229   4.105  23.088
 1869SOL    HW117235   3.248   4.011  23.088
 1869SOL    HW217236   3.188   4.121  23.173
 1870SOL     OW17237   3.427   2.345  18.614
 1870SOL    HW117238   3.490   2.309  18.551
 1870SOL    HW217239   3.365   2.395  18.561
 1871SOL     OW17240   1.790   4.180   6.966
 1871SOL    HW117241   1.725   4.133   6.914
 1871SOL    HW217242   1.868   4.124   6.963
 1872SOL     OW17243   2.979   0.933  21.608
 1872SOL    HW117244   3.018   0.846  21.616
 1872SOL    HW217245   2.894   0.918  21.566
 1873SOL     OW17246   2.483   3.465  22.854
 1873SOL    HW117247   2.474   3.501  22.766
 1873SOL    HW217248   2.445   3.377  22.849
 1874SOL     OW17249   2.030   2.296   2.741
 1874SOL    HW117250   2.123   2.316   2.753
 1874SOL    HW217251   2.026   2.201   2.735
 1875SOL     OW17252   3.798   3.383   8.236
 1875SOL    HW117253   3.816   3.463   8.285
 1875SOL    HW217254   3.725   3.342   8.283
 1876SOL     OW17255   2.326   1.558   6.112
 1876SOL    HW117256   2.416   1.529   6.125
 1876SOL    HW217257   2.290   1.565   6.200
 1877SOL     OW17258   1.426   0.782  24.960
 1877SOL    HW117259   1.471   0.847  24.906
 1877SOL    HW217260   1.485   0.706  24.960
 1878SOL     OW17261   3.288   1.035   7.374
 1878SOL    HW117262   3.350   1.013   7.443
 1878SOL    HW217263   3.343   1.050   7.297
 1879SOL     OW17264   2.025   4.445   6.953
 1879SOL    HW117265   2.060   4.376   7.009
 1879SOL    HW217266   2.085   4.450   6.879
 1880SOL     OW17267   3.391   0.852   5.745
 1880SOL    HW117268   3.411   0.934   5.699
 1880SOL    HW217269   3.448   0.787   5.704
 1881SOL     OW17270   0.183   1.065  25.511
 1881SOL    HW117271   0.196   1.077  25.417
 1881SOL    HW217272   0.199   0.972  25.526
 1882SOL     OW17273   2.941   1.649  23.937
 1882SOL    HW117274   2.897   1.568  23.910
 1882SOL    HW217275   2.874   1.697  23.986
 1883SOL     OW17276   2.720   0.089   1.354
 1883SOL    HW117277   2.754   0.145   1.424
 1883SOL    HW217278   2.666   0.147   1.300
 1884SOL     OW17279   3.888   0.032  24.818
 1884SOL    HW117280   3.889   0.057  24.726
 1884SOL    HW217281   3.897   4.717  24.817
 1885SOL     OW17282   2.218   0.422   6.479
 1885SOL    HW117283   2.181   0.473   6.407
 1885SOL    HW217284   2.201   0.475   6.557
 1886SOL     OW17285   1.675   3.136   3.647
 1886SOL    HW117286   1.708   3.061   3.597
 1886SOL    HW217287   1.675   3.208   3.584
 1887SOL     OW17288   0.089   0.054  19.438
 1887SOL    HW117289   0.083   0.149  19.447
 1887SOL    HW217290   0.011   0.021  19.482
 1888SOL     OW17291   4.610   3.454   6.223
 1888SOL    HW117292   4.692   3.488   6.260
 1888SOL    HW217293   4.542   3.482   6.285
 1889SOL     OW17294   2.604   3.065  24.409
 1889SOL    HW117295   2.610   3.104  24.322
 1889SOL    HW217296   2.510   3.053  24.423
 1890SOL     OW17297   1.612   2.092  13.976
 1890SOL    HW117298   1.590   2.003  14.003
 1890SOL    HW217299   1.590   2.146  14.052
 1891SOL     OW17300   4.658   4.404   7.586
 1891SOL    HW117301   4.693   4.493   7.579
 1891SOL    HW217302   4.723   4.349   7.542
 1892SOL     OW17303   1.825   3.222  19.984
 1892SOL    HW117304   1.859   3.305  20.017
 1892SOL    HW217305   1.889   3.157  20.012
 1893SOL     OW17306   3.004   0.136   8.399
 1893SOL    HW117307   3.050   0.083   8.465
 1893SOL    HW217308   2.916   0.146   8.434
 1894SOL     OW17309   4.289   4.011  24.508
 1894SOL    HW117310   4.199   4.043  24.499
 1894SOL    HW217311   4.281   3.916  24.502
 1895SOL     OW17312   4.622   1.979  24.578
 1895SOL    HW117313   4.599   2.071  24.563
 1895SOL    HW217314   4.640   1.944  24.491
 1896SOL     OW17315   4.740   1.742   1.885
 1896SOL    HW117316   0.006   1.826   1.889
 1896SOL    HW217317   4.649   1.764   1.906
 1897SOL     OW17318   3.951   0.302   9.331
 1897SOL    HW117319   3.937   0.283   9.424
 1897SOL    HW217320   4.043   0.328   9.326
 1898SOL     OW17321   4.759   2.417  11.308
 1898SOL    HW117322   4.773   2.401  11.215
 1898SOL    HW217323   4.724   2.335  11.342
 1899SOL     OW17324   2.420   1.523  23.333
 1899SOL    HW117325   2.352   1.590  23.326
 1899SOL    HW217326   2.458   1.518  23.245
 1900SOL     OW17327   1.011   1.915  20.152
 1900SOL    HW117328   1.101   1.883  20.154
 1900SOL    HW217329   1.020   2.010  20.152
 1901SOL     OW17330   4.184   2.948  17.142
 1901SOL    HW117331   4.225   2.918  17.061
 1901SOL    HW217332   4.123   3.016  17.114
 1902SOL     OW17333   3.510   4.755   1.494
 1902SOL    HW117334   3.531   4.699   1.569
 1902SOL    HW217335   3.415   4.747   1.484
 1903SOL     OW17336   2.636   0.716  23.824
 1903SOL    HW117337   2.679   0.752  23.902
 1903SOL    HW217338   2.576   0.650  23.858
 1904SOL     OW17339   4.170   2.271   6.806
 1904SOL    HW117340   4.156   2.302   6.896
 1904SOL    HW217341   4.120   2.332   6.752
 1905SOL     OW17342   1.730   4.373   1.118
 1905SOL    HW117343   1.646   4.327   1.110
 1905SOL    HW217344   1.709   4.454   1.165
 1906SOL     OW17345   3.118   1.775   6.600
 1906SOL    HW117346   3.030   1.758   6.633
 1906SOL    HW217347   3.109   1.852   6.544
 1907SOL     OW17348   3.988   2.466  23.964
 1907SOL    HW117349   3.997   2.378  23.927
 1907SOL    HW217350   4.066   2.477  24.018
 1908SOL     OW17351   3.528   2.412   4.345
 1908SOL    HW117352   3.532   2.336   4.288
 1908SOL    HW217353   3.619   2.434   4.363
 1909SOL     OW17354   3.596   3.919  24.814
 1909SOL    HW117355   3.600   3.970  24.733
 1909SOL    HW217356   3.672   3.860  24.809
 1910SOL     OW17357   2.851   1.117  24.669
 1910SOL    HW117358   2.814   1.092  24.754
 1910SOL    HW217359   2.809   1.058  24.606
 1911SOL     OW17360   0.681   1.121   7.900
 1911SOL    HW117361   0.744   1.054   7.874
 1911SOL    HW217362   0.609   1.072   7.939
 1912SOL     OW17363   2.728   0.763   1.136
 1912SOL    HW117364   2.661   0.787   1.200
 1912SOL    HW217365   2.684   0.768   1.051
 1913SOL     OW17366   0.831   1.123   3.843
 1913SOL    HW117367   0.895   1.082   3.785
 1913SOL    HW217368   0.848   1.217   3.836
 1914SOL     OW17369   1.514   1.012   4.055
 1914SOL    HW117370   1.530   1.002   3.961
 1914SOL    HW217371   1.525   1.106   4.071
 1915SOL     OW17372   1.993   3.799   7.696
 1915SOL    HW117373   1.985   3.874   7.755
 1915SOL    HW217374   2.059   3.825   7.632
 1916SOL     OW17375   1.562   2.560  25.672
 1916SOL    HW117376   1.507   2.558  25.750
 1916SOL    HW217377   1.532   2.636  25.623
 1917SOL     OW17378   2.333   4.117   6.027
 1917SOL    HW117379   2.416   4.122   6.074
 1917SOL    HW217380   2.284   4.194   6.056
 1918SOL     OW17381   2.514   0.306   3.686
 1918SOL    HW117382   2.460   0.385   3.694
 1918SOL    HW217383   2.464   0.238   3.730
 1919SOL     OW17384   0.433   4.391   2.562
 1919SOL    HW117385   0.457   4.334   2.635
 1919SOL    HW217386   0.424   4.478   2.601
 1920SOL     OW17387   1.837   2.515  25.877
 1920SOL    HW117388   1.892   2.438  25.859
 1920SOL    HW217389   1.761   2.480  25.923
 1921SOL     OW17390   4.490   2.121  17.848
 1921SOL    HW117391   4.559   2.183  17.873
 1921SOL    HW217392   4.516   2.089  17.762
 1922SOL     OW17393   2.822   1.215  19.591
 1922SOL    HW117394   2.786   1.273  19.524
 1922SOL    HW217395   2.904   1.257  19.618
 1923SOL     OW17396   1.463   2.474   7.884
 1923SOL    HW117397   1.495   2.564   7.878
 1923SOL    HW217398   1.525   2.423   7.831
 1924SOL     OW17399   3.303   1.506  27.215
 1924SOL    HW117400   3.323   1.434  27.155
 1924SOL    HW217401   3.329   1.585  27.167
 1925SOL     OW17402   2.911   0.976   6.760
 1925SOL    HW117403   2.923   0.957   6.667
 1925SOL    HW217404   2.970   0.915   6.805
 1926SOL     OW17405   0.998   0.077  10.904
 1926SOL    HW117406   0.917   0.027  10.917
 1926SOL    HW217407   1.034   0.086  10.992
 1927SOL     OW17408   4.526   1.175   3.962
 1927SOL    HW117409   4.511   1.165   4.056
 1927SOL    HW217410   4.453   1.229   3.932
 1928SOL     OW17411   3.212   1.273   4.863
 1928SOL    HW117412   3.214   1.258   4.769
 1928SOL    HW217413   3.120   1.289   4.883
 1929SOL     OW17414   4.364   0.074   1.495
 1929SOL    HW117415   4.336   4.768   1.464
 1929SOL    HW217416   4.361   0.068   1.590
 1930SOL     OW17417   0.994   2.229   2.134
 1930SOL    HW117418   0.973   2.215   2.226
 1930SOL    HW217419   0.944   2.307   2.110
 1931SOL     OW17420   2.567   4.726   9.577
 1931SOL    HW117421   2.545   4.639   9.543
 1931SOL    HW217422   2.557   4.718   9.672
 1932SOL     OW17423   3.250   0.249   6.058
 1932SOL    HW117424   3.332   0.280   6.019
 1932SOL    HW217425   3.194   0.327   6.062
 1933SOL     OW17426   3.975   0.218   0.683
 1933SOL    HW117427   3.987   0.290   0.745
 1933SOL    HW217428   3.905   0.248   0.625
 1934SOL     OW17429   1.371   2.811   5.906
 1934SOL    HW117430   1.406   2.752   5.839
 1934SOL    HW217431   1.405   2.897   5.882
 1935SOL     OW17432   0.862   0.235   6.600
 1935SOL    HW117433   0.882   0.183   6.678
 1935SOL    HW217434   0.800   0.182   6.551
 1936SOL     OW17435   0.712   3.781   6.968
 1936SOL    HW117436   0.663   3.828   6.900
 1936SOL    HW217437   0.701   3.834   7.047
 1937SOL     OW17438   3.966   3.422   5.321
 1937SOL    HW117439   3.912   3.401   5.245
 1937SOL    HW217440   3.978   3.517   5.317
 1938SOL     OW17441   3.168   0.764  28.140
 1938SOL    HW117442   3.084   0.749  28.097
 1938SOL    HW217443   3.147   0.813  28.219
 1939SOL     OW17444   1.514   2.797   3.694
 1939SOL    HW117445   1.465   2.722   3.728
 1939SOL    HW217446   1.471   2.873   3.733
 1940SOL     OW17447   0.246   2.748   7.857
 1940SOL    HW117448   0.168   2.797   7.831
 1940SOL    HW217449   0.315   2.814   7.864
 1941SOL     OW17450   0.936   2.058  27.446
 1941SOL    HW117451   0.989   2.102  27.379
 1941SOL    HW217452   0.977   2.084  27.529
 1942SOL     OW17453   3.126   1.316   2.404
 1942SOL    HW117454   3.138   1.242   2.463
 1942SOL    HW217455   3.079   1.280   2.329
 1943SOL     OW17456   0.480   0.098  26.167
 1943SOL    HW117457   0.424   0.023  26.184
 1943SOL    HW217458   0.464   0.158  26.240
 1944SOL     OW17459   0.890   1.051   2.916
 1944SOL    HW117460   0.857   1.018   3.000
 1944SOL    HW217461   0.984   1.033   2.919
 1945SOL     OW17462   3.103   0.354  22.966
 1945SOL    HW117463   3.147   0.326  23.046
 1945SOL    HW217464   3.125   0.287  22.902
 1946SOL     OW17465   2.841   1.580  20.764
 1946SOL    HW117466   2.890   1.514  20.813
 1946SOL    HW217467   2.763   1.534  20.733
 1947SOL     OW17468   3.943   0.023   6.043
 1947SOL    HW117469   4.034   0.044   6.022
 1947SOL    HW217470   3.939   0.027   6.139
 1948SOL     OW17471   2.880   1.629  19.691
 1948SOL    HW117472   2.789   1.657  19.690
 1948SOL    HW217473   2.928   1.701  19.651
 1949SOL     OW17474   1.650   0.733   1.007
 1949SOL    HW117475   1.629   0.640   1.001
 1949SOL    HW217476   1.723   0.746   0.946
 1950SOL     OW17477   4.700   0.032   4.298
 1950SOL    HW117478   4.667   0.112   4.338
 1950SOL    HW217479   4.775   0.007   4.352
 1951SOL     OW17480   2.686   2.662   3.311
 1951SOL    HW117481   2.750   2.663   3.239
 1951SOL    HW217482   2.645   2.748   3.308
 1952SOL     OW17483   1.280   3.866  22.109
 1952SOL    HW117484   1.304   3.858  22.017
 1952SOL    HW217485   1.238   3.952  22.115
 1953SOL     OW17486   1.773   1.590  27.557
 1953SOL    HW117487   1.829   1.540  27.498
 1953SOL    HW217488   1.781   1.545  27.641
 1954SOL     OW17489   0.014   1.357   3.200
 1954SOL    HW117490   0.041   1.269   3.173
 1954SOL    HW217491   4.730   1.343   3.269
 1955SOL     OW17492   4.379   0.696  26.056
 1955SOL    HW117493   4.433   0.667  26.130
 1955SOL    HW217494   4.312   0.628  26.048
 1956SOL     OW17495   3.801   3.047   7.570
 1956SOL    HW117496   3.794   3.039   7.665
 1956SOL    HW217497   3.818   3.140   7.554
 1957SOL     OW17498   0.581   4.583  28.136
 1957SOL    HW117499   0.537   4.600  28.219
 1957SOL    HW217500   0.510   4.568  28.074
 1958SOL     OW17501   4.585   0.366  22.482
 1958SOL    HW117502   4.544   0.292  22.527
 1958SOL    HW217503   4.526   0.439  22.499
 1959SOL     OW17504   4.428   0.111   1.104
 1959SOL    HW117505   4.363   0.042   1.117
 1959SOL    HW217506   4.407   0.147   1.018
 1960SOL     OW17507   3.829   4.614  22.948
 1960SOL    HW117508   3.864   4.670  22.879
 1960SOL    HW217509   3.895   4.546  22.960
 1961SOL     OW17510   3.934   0.626  17.432
 1961SOL    HW117511   3.842   0.640  17.454
 1961SOL    HW217512   3.968   0.572  17.503
 1962SOL     OW17513   3.124   0.318   2.938
 1962SOL    HW117514   3.061   0.380   2.975
 1962SOL    HW217515   3.073   0.239   2.921
 1963SOL     OW17516   4.354   3.770   2.411
 1963SOL    HW117517   4.413   3.841   2.435
 1963SOL    HW217518   4.335   3.784   2.318
 1964SOL     OW17519   0.020   2.486   3.897
 1964SOL    HW117520   0.028   2.431   3.975
 1964SOL    HW217521   0.089   2.551   3.907
 1965SOL     OW17522   1.027   1.505   6.161
 1965SOL    HW117523   0.991   1.580   6.114
 1965SOL    HW217524   1.020   1.432   6.099
 1966SOL     OW17525   4.762   4.454   0.409
 1966SOL    HW117526   4.744   4.487   0.497
 1966SOL    HW217527   4.677   4.427   0.376
 1967SOL     OW17528   3.463   4.229   7.949
 1967SOL    HW117529   3.419   4.296   7.896
 1967SOL    HW217530   3.470   4.269   8.036
 1968SOL     OW17531   4.465   1.107   4.207
 1968SOL    HW117532   4.399   1.038   4.216
 1968SOL    HW217533   4.451   1.164   4.282
 1969SOL     OW17534   1.408   0.896  27.005
 1969SOL    HW117535   1.384   0.974  26.956
 1969SOL    HW217536   1.499   0.879  26.980
 1970SOL     OW17537   4.274   1.465   1.844
 1970SOL    HW117538   4.365   1.461   1.872
 1970SOL    HW217539   4.245   1.374   1.842
 1971SOL     OW17540   0.586   4.393  22.132
 1971SOL    HW117541   0.624   4.438  22.056
 1971SOL    HW217542   0.660   4.346  22.171
 1972SOL     OW17543   0.149   2.175  26.701
 1972SOL    HW117544   0.207   2.251  26.699
 1972SOL    HW217545   0.084   2.197  26.768
 1973SOL     OW17546   2.789   1.918   8.357
 1973SOL    HW117547   2.813   1.829   8.330
 1973SOL    HW217548   2.812   1.973   8.282
 1974SOL     OW17549   0.278   1.610  18.049
 1974SOL    HW117550   0.321   1.626  17.965
 1974SOL    HW217551   0.349   1.609  18.113
 1975SOL     OW17552   1.305   2.039  25.471
 1975SOL    HW117553   1.327   1.961  25.419
 1975SOL    HW217554   1.390   2.073  25.500
 1976SOL     OW17555   2.556   3.941  27.627
 1976SOL    HW117556   2.609   3.865  27.603
 1976SOL    HW217557   2.466   3.915  27.606
 1977SOL     OW17558   2.548   4.426   3.315
 1977SOL    HW117559   2.595   4.345   3.296
 1977SOL    HW217560   2.524   4.419   3.407
 1978SOL     OW17561   1.367   4.642   4.016
 1978SOL    HW117562   1.352   4.587   4.093
 1978SOL    HW217563   1.449   4.609   3.978
 1979SOL     OW17564   2.340   0.796  26.145
 1979SOL    HW117565   2.411   0.734  26.163
 1979SOL    HW217566   2.380   0.864  26.091
 1980SOL     OW17567   4.172   2.206  26.842
 1980SOL    HW117568   4.234   2.274  26.816
 1980SOL    HW217569   4.086   2.245  26.828
 1981SOL     OW17570   1.881   3.297   7.106
 1981SOL    HW117571   1.909   3.386   7.084
 1981SOL    HW217572   1.830   3.308   7.187
 1982SOL     OW17573   0.446   3.509   6.909
 1982SOL    HW117574   0.536   3.490   6.883
 1982SOL    HW217575   0.422   3.586   6.858
 1983SOL     OW17576   3.223   1.113  23.174
 1983SOL    HW117577   3.171   1.165  23.113
 1983SOL    HW217578   3.271   1.051  23.119
 1984SOL     OW17579   2.876   0.809   5.034
 1984SOL    HW117580   2.815   0.807   5.108
 1984SOL    HW217581   2.925   0.727   5.041
 1985SOL     OW17582   3.174   0.851   4.696
 1985SOL    HW117583   3.250   0.834   4.640
 1985SOL    HW217584   3.191   0.937   4.733
 1986SOL     OW17585   0.104   2.528   8.989
 1986SOL    HW117586   0.142   2.536   9.077
 1986SOL    HW217587   0.170   2.566   8.931
 1987SOL     OW17588   0.104   0.066  24.646
 1987SOL    HW117589   0.190   0.104  24.630
 1987SOL    HW217590   0.102   4.767  24.593
 1988SOL     OW17591   2.385   0.305   0.812
 1988SOL    HW117592   2.420   0.345   0.891
 1988SOL    HW217593   2.305   0.354   0.793
 1989SOL     OW17594   4.303   3.328   1.405
 1989SOL    HW117595   4.383   3.289   1.440
 1989SOL    HW217596   4.334   3.397   1.346
 1990SOL     OW17597   3.364   0.769  22.490
 1990SOL    HW117598   3.324   0.819  22.419
 1990SOL    HW217599   3.367   0.679  22.458
 1991SOL     OW17600   0.384   1.343  27.066
 1991SOL    HW117601   0.313   1.402  27.043
 1991SOL    HW217602   0.459   1.400  27.081
 1992SOL     OW17603   2.685   0.235  24.283
 1992SOL    HW117604   2.770   0.206  24.250
 1992SOL    HW217605   2.689   0.221  24.378
 1993SOL     OW17606   4.158   0.262  23.042
 1993SOL    HW117607   4.072   0.224  23.022
 1993SOL    HW217608   4.138   0.349  23.076
 1994SOL     OW17609   0.017   0.127   5.535
 1994SOL    HW117610   4.705   0.112   5.515
 1994SOL    HW217611   0.030   0.089   5.622
 1995SOL     OW17612   4.113   1.919   6.108
 1995SOL    HW117613   4.065   1.887   6.032
 1995SOL    HW217614   4.117   1.844   6.167
 1996SOL     OW17615   2.000   1.539   5.994
 1996SOL    HW117616   1.933   1.517   5.929
 1996SOL    HW217617   2.079   1.496   5.963
 1997SOL     OW17618   0.624   2.662   4.064
 1997SOL    HW117619   0.701   2.620   4.026
 1997SOL    HW217620   0.593   2.600   4.130
 1998SOL     OW17621   3.139   2.485  22.808
 1998SOL    HW117622   3.177   2.486  22.720
 1998SOL    HW217623   3.128   2.392  22.829
 1999SOL     OW17624   1.517   3.232  25.369
 1999SOL    HW117625   1.451   3.174  25.407
 1999SOL    HW217626   1.517   3.210  25.276
 2000SOL     OW17627   0.894   1.164  27.852
 2000SOL    HW117628   0.811   1.212  27.850
 2000SOL    HW217629   0.905   1.140  27.944
 2001SOL     OW17630   0.600   1.184  21.777
 2001SOL    HW117631   0.523   1.141  21.815
 2001SOL    HW217632   0.566   1.229  21.700
 2002SOL     OW17633   0.141   1.212   0.825
 2002SOL    HW117634   0.098   1.233   0.908
 2002SOL    HW217635   0.186   1.293   0.800
 2003SOL     OW17636   4.174   4.427   5.182
 2003SOL    HW117637   4.129   4.434   5.098
 2003SOL    HW217638   4.163   4.513   5.223
 2004SOL     OW17639   0.952   0.996   3.521
 2004SOL    HW117640   1.007   1.008   3.599
 2004SOL    HW217641   0.874   1.049   3.539
 2005SOL     OW17642   3.972   0.064  12.204
 2005SOL    HW117643   4.065   0.084  12.216
 2005SOL    HW217644   3.968   4.749  12.201
 2006SOL     OW17645   2.059   2.930   5.246
 2006SOL    HW117646   2.072   3.023   5.228
 2006SOL    HW217647   2.069   2.922   5.341
 2007SOL     OW17648   0.191   4.361   3.306
 2007SOL    HW117649   0.104   4.339   3.272
 2007SOL    HW217650   0.249   4.354   3.230
 2008SOL     OW17651   2.191   1.377  11.909
 2008SOL    HW117652   2.115   1.380  11.968
 2008SOL    HW217653   2.208   1.284  11.898
 2009SOL     OW17654   1.161   0.353   4.669
 2009SOL    HW117655   1.086   0.361   4.728
 2009SOL    HW217656   1.122   0.354   4.581
 2010SOL     OW17657   3.133   0.906  20.547
 2010SOL    HW117658   3.227   0.920  20.557
 2010SOL    HW217659   3.111   0.842  20.615
 2011SOL     OW17660   0.339   1.222  28.273
 2011SOL    HW117661   0.285   1.296  28.246
 2011SOL    HW217662   0.293   1.145  28.240
 2012SOL     OW17663   2.754   3.616  21.802
 2012SOL    HW117664   2.788   3.549  21.862
 2012SOL    HW217665   2.676   3.576  21.763
 2013SOL     OW17666   0.436   0.262   1.325
 2013SOL    HW117667   0.445   0.217   1.241
 2013SOL    HW217668   0.520   0.248   1.369
 2014SOL     OW17669   4.069   1.707   8.095
 2014SOL    HW117670   4.114   1.742   8.172
 2014SOL    HW217671   4.096   1.615   8.091
 2015SOL     OW17672   2.547   1.723  25.789
 2015SOL    HW117673   2.547   1.687  25.700
 2015SOL    HW217674   2.580   1.652  25.844
 2016SOL     OW17675   1.585   1.326  24.457
 2016SOL    HW117676   1.563   1.382  24.531
 2016SOL    HW217677   1.566   1.380  24.380
 2017SOL     OW17678   4.474   3.646  26.225
 2017SOL    HW117679   4.499   3.640  26.317
 2017SOL    HW217680   4.539   3.704  26.186
 2018SOL     OW17681   4.726   1.698   3.287
 2018SOL    HW117682   4.778   1.737   3.357
 2018SOL    HW217683   4.737   1.604   3.299
 2019SOL     OW17684   0.285   3.094  21.704
 2019SOL    HW117685   0.217   3.032  21.679
 2019SOL    HW217686   0.275   3.104  21.799
 2020SOL     OW17687   3.825   0.780   2.406
 2020SOL    HW117688   3.913   0.799   2.438
 2020SOL    HW217689   3.773   0.856   2.431
 2021SOL     OW17690   1.029   3.746   5.911
 2021SOL    HW117691   1.038   3.667   5.857
 2021SOL    HW217692   0.971   3.720   5.983
 2022SOL     OW17693   3.628   4.445   8.572
 2022SOL    HW117694   3.679   4.458   8.652
 2022SOL    HW217695   3.658   4.514   8.513
 2023SOL     OW17696   4.190   2.331  23.673
 2023SOL    HW117697   4.160   2.386  23.601
 2023SOL    HW217698   4.254   2.385  23.719
 2024SOL     OW17699   1.158   2.640   0.268
 2024SOL    HW117700   1.219   2.613   0.336
 2024SOL    HW217701   1.117   2.719   0.302
 2025SOL     OW17702   0.398   3.235   0.584
 2025SOL    HW117703   0.440   3.274   0.661
 2025SOL    HW217704   0.441   3.277   0.510
 2026SOL     OW17705   4.560   0.510  11.043
 2026SOL    HW117706   4.565   0.598  11.080
 2026SOL    HW217707   4.644   0.470  11.065
 2027SOL     OW17708   0.579   0.914  17.060
 2027SOL    HW117709   0.569   0.914  16.965
 2027SOL    HW217710   0.551   1.001  17.087
 2028SOL     OW17711   3.429   4.529   6.267
 2028SOL    HW117712   3.500   4.557   6.325
 2028SOL    HW217713   3.451   4.568   6.182
 2029SOL     OW17714   3.448   4.219   3.013
 2029SOL    HW117715   3.481   4.245   3.099
 2029SOL    HW217716   3.518   4.166   2.976
 2030SOL     OW17717   0.289   4.264  27.206
 2030SOL    HW117718   0.262   4.219  27.126
 2030SOL    HW217719   0.318   4.350  27.176
 2031SOL     OW17720   3.369   2.928  11.417
 2031SOL    HW117721   3.329   3.001  11.464
 2031SOL    HW217722   3.401   2.869  11.485
 2032SOL     OW17723   0.776   4.636  23.626
 2032SOL    HW117724   0.811   4.691  23.556
 2032SOL    HW217725   0.818   4.551  23.613
 2033SOL     OW17726   3.022   4.518  21.203
 2033SOL    HW117727   3.026   4.571  21.123
 2033SOL    HW217728   3.099   4.461  21.198
 2034SOL     OW17729   2.418   1.472   4.822
 2034SOL    HW117730   2.475   1.400   4.795
 2034SOL    HW217731   2.334   1.452   4.781
 2035SOL     OW17732   3.878   1.926   8.946
 2035SOL    HW117733   3.931   2.004   8.961
 2035SOL    HW217734   3.792   1.947   8.982
 2036SOL     OW17735   3.750   0.157  27.271
 2036SOL    HW117736   3.713   0.226  27.326
 2036SOL    HW217737   3.751   0.079  27.327
 2037SOL     OW17738   3.022   0.418  12.199
 2037SOL    HW117739   3.013   0.331  12.239
 2037SOL    HW217740   2.978   0.410  12.114
 2038SOL     OW17741   2.361   3.888   9.773
 2038SOL    HW117742   2.433   3.830   9.798
 2038SOL    HW217743   2.286   3.856   9.824
 2039SOL     OW17744   4.653   3.002   5.261
 2039SOL    HW117745   4.682   2.997   5.352
 2039SOL    HW217746   4.564   3.036   5.267
 2040SOL     OW17747   0.150   3.309  27.625
 2040SOL    HW117748   0.204   3.246  27.577
 2040SOL    HW217749   0.177   3.394  27.591
 2041SOL     OW17750   2.919   2.855   6.731
 2041SOL    HW117751   2.928   2.868   6.637
 2041SOL    HW217752   2.869   2.931   6.761
 2042SOL     OW17753   4.648   2.797   7.549
 2042SOL    HW117754   4.599   2.731   7.598
 2042SOL    HW217755   4.732   2.804   7.595
 2043SOL     OW17756   3.827   1.591   2.416
 2043SOL    HW117757   3.740   1.573   2.380
 2043SOL    HW217758   3.885   1.594   2.339
 2044SOL     OW17759   1.408   3.159  27.546
 2044SOL    HW117760   1.499   3.161  27.515
 2044SOL    HW217761   1.393   3.068  27.572
 2045SOL     OW17762   2.078   2.795  11.425
 2045SOL    HW117763   2.050   2.734  11.493
 2045SOL    HW217764   2.108   2.739  11.353
 2046SOL     OW17765   2.489   4.659  13.297
 2046SOL    HW117766   2.524   4.667  13.386
 2046SOL    HW217767   2.444   4.742  13.281
 2047SOL     OW17768   0.044   0.679   8.398
 2047SOL    HW117769   4.764   0.664   8.471
 2047SOL    HW217770   0.029   0.770   8.373
 2048SOL     OW17771   1.984   3.943   5.198
 2048SOL    HW117772   1.969   3.945   5.103
 2048SOL    HW217773   1.974   4.034   5.225
 2049SOL     OW17774   1.903   1.139   9.682
 2049SOL    HW117775   1.920   1.172   9.594
 2049SOL    HW217776   1.825   1.187   9.711
 2050SOL     OW17777   4.078   4.373   7.056
 2050SOL    HW117778   4.110   4.309   7.119
 2050SOL    HW217779   4.063   4.323   6.976
 2051SOL     OW17780   1.773   1.372   8.080
 2051SOL    HW117781   1.751   1.393   8.171
 2051SOL    HW217782   1.780   1.277   8.078
 2052SOL     OW17783   3.438   4.500  25.704
 2052SOL    HW117784   3.529   4.524  25.688
 2052SOL    HW217785   3.407   4.467  25.620
 2053SOL     OW17786   0.748   2.858   5.574
 2053SOL    HW117787   0.771   2.919   5.503
 2053SOL    HW217788   0.818   2.793   5.573
 2054SOL     OW17789   3.425   0.750  21.532
 2054SOL    HW117790   3.483   0.825  21.515
 2054SOL    HW217791   3.451   0.685  21.466
 2055SOL     OW17792   3.043   2.517  21.097
 2055SOL    HW117793   2.997   2.512  21.181
 2055SOL    HW217794   3.064   2.610  21.087
 2056SOL     OW17795   0.592   4.459  20.094
 2056SOL    HW117796   0.687   4.448  20.103
 2056SOL    HW217797   0.555   4.415  20.171
 2057SOL     OW17798   3.008   2.795  19.495
 2057SOL    HW117799   3.008   2.711  19.450
 2057SOL    HW217800   3.066   2.782  19.570
 2058SOL     OW17801   0.361   1.606   3.003
 2058SOL    HW117802   0.342   1.665   2.930
 2058SOL    HW217803   0.457   1.603   3.008
 2059SOL     OW17804   4.169   1.306   2.611
 2059SOL    HW117805   4.074   1.305   2.598
 2059SOL    HW217806   4.180   1.321   2.705
 2060SOL     OW17807   0.506   3.432   5.005
 2060SOL    HW117808   0.544   3.382   5.077
 2060SOL    HW217809   0.496   3.521   5.040
 2061SOL     OW17810   1.074   2.256   4.135
 2061SOL    HW117811   1.128   2.217   4.066
 2061SOL    HW217812   1.099   2.348   4.135
 2062SOL     OW17813   3.750   1.520  20.350
 2062SOL    HW117814   3.742   1.582  20.278
 2062SOL    HW217815   3.832   1.474  20.334
 2063SOL     OW17816   3.527   0.835   2.969
 2063SOL    HW117817   3.525   0.839   3.065
 2063SOL    HW217818   3.444   0.874   2.942
 2064SOL     OW17819   2.440   4.473   1.882
 2064SOL    HW117820   2.515   4.469   1.822
 2064SOL    HW217821   2.366   4.443   1.829
 2065SOL     OW17822   0.191   0.445  21.602
 2065SOL    HW117823   0.266   0.501  21.584
 2065SOL    HW217824   0.201   0.420  21.694
 2066SOL     OW17825   1.527   1.547   7.094
 2066SOL    HW117826   1.580   1.470   7.073
 2066SOL    HW217827   1.466   1.555   7.020
 2067SOL     OW17828   1.783   0.801   5.778
 2067SOL    HW117829   1.718   0.868   5.756
 2067SOL    HW217830   1.826   0.782   5.695
 2068SOL     OW17831   1.591   1.284   5.626
 2068SOL    HW117832   1.613   1.217   5.691
 2068SOL    HW217833   1.538   1.348   5.674
 2069SOL     OW17834   3.062   0.932  28.333
 2069SOL    HW117835   3.136   0.985  28.364
 2069SOL    HW217836   3.038   0.878  28.408
 2070SOL     OW17837   1.510   2.193   8.729
 2070SOL    HW117838   1.605   2.196   8.741
 2070SOL    HW217839   1.498   2.132   8.656
 2071SOL     OW17840   3.601   0.617   3.350
 2071SOL    HW117841   3.579   0.623   3.443
 2071SOL    HW217842   3.689   0.580   3.348
 2072SOL     OW17843   3.835   3.642   8.389
 2072SOL    HW117844   3.813   3.727   8.426
 2072SOL    HW217845   3.912   3.614   8.438
 2073SOL     OW17846   4.421   2.922   6.758
 2073SOL    HW117847   4.366   2.991   6.721
 2073SOL    HW217848   4.510   2.956   6.751
 2074SOL     OW17849   1.636   3.927  24.460
 2074SOL    HW117850   1.625   3.922  24.555
 2074SOL    HW217851   1.670   4.015  24.444
 2075SOL     OW17852   4.103   0.659  27.886
 2075SOL    HW117853   4.148   0.733  27.927
 2075SOL    HW217854   4.019   0.654  27.931
 2076SOL     OW17855   2.938   0.420  25.892
 2076SOL    HW117856   2.998   0.378  25.954
 2076SOL    HW217857   2.994   0.452  25.822
 2077SOL     OW17858   3.186   3.707   2.229
 2077SOL    HW117859   3.275   3.681   2.207
 2077SOL    HW217860   3.134   3.628   2.216
 2078SOL     OW17861   4.334   1.030  27.837
 2078SOL    HW117862   4.365   1.021  27.747
 2078SOL    HW217863   4.390   0.972  27.888
 2079SOL     OW17864   1.931   3.018   6.696
 2079SOL    HW117865   1.984   3.043   6.772
 2079SOL    HW217866   1.841   3.031   6.724
 2080SOL     OW17867   4.267   0.327   8.505
 2080SOL    HW117868   4.314   0.248   8.478
 2080SOL    HW217869   4.206   0.297   8.573
 2081SOL     OW17870   3.205   0.094  11.756
 2081SOL    HW117871   3.163   0.141  11.828
 2081SOL    HW217872   3.297   0.087  11.783
 2082SOL     OW17873   1.718   2.527   8.615
 2082SOL    HW117874   1.739   2.450   8.667
 2082SOL    HW217875   1.627   2.547   8.637
 2083SOL     OW17876   0.297   1.148   5.001
 2083SOL    HW117877   0.222   1.115   4.952
 2083SOL    HW217878   0.258   1.195   5.075
 2084SOL     OW17879   3.429   3.338  26.439
 2084SOL    HW117880   3.423   3.327  26.534
 2084SOL    HW217881   3.517   3.308  26.416
 2085SOL     OW17882   0.794   1.996   8.410
 2085SOL    HW117883   0.720   2.055   8.423
 2085SOL    HW217884   0.791   1.937   8.486
 2086SOL     OW17885   1.358   0.725  21.403
 2086SOL    HW117886   1.292   0.737  21.335
 2086SOL    HW217887   1.432   0.779  21.375
 2087SOL     OW17888   4.059   4.174   8.849
 2087SOL    HW117889   4.037   4.144   8.761
 2087SOL    HW217890   4.017   4.260   8.856
 2088SOL     OW17891   3.320   3.903  11.180
 2088SOL    HW117892   3.331   3.995  11.156
 2088SOL    HW217893   3.390   3.887  11.243
 2089SOL     OW17894   4.387   3.554  11.705
 2089SOL    HW117895   4.302   3.551  11.749
 2089SOL    HW217896   4.439   3.617  11.756
 2090SOL     OW17897   3.878   0.097   4.878
 2090SOL    HW117898   3.799   0.151   4.873
 2090SOL    HW217899   3.849   0.015   4.919
 2091SOL     OW17900   0.391   1.339   8.696
 2091SOL    HW117901   0.331   1.396   8.744
 2091SOL    HW217902   0.476   1.383   8.701
 2092SOL     OW17903   4.203   0.529  20.516
 2092SOL    HW117904   4.264   0.596  20.485
 2092SOL    HW217905   4.123   0.543  20.465
 2093SOL     OW17906   2.258   4.365   8.176
 2093SOL    HW117907   2.349   4.386   8.153
 2093SOL    HW217908   2.261   4.341   8.269
 2094SOL     OW17909   2.078   1.525  20.304
 2094SOL    HW117910   2.173   1.530  20.297
 2094SOL    HW217911   2.046   1.593  20.245
 2095SOL     OW17912   1.778   1.188  26.402
 2095SOL    HW117913   1.718   1.129  26.447
 2095SOL    HW217914   1.722   1.242  26.347
 2096SOL     OW17915   1.206   3.527   8.787
 2096SOL    HW117916   1.239   3.577   8.712
 2096SOL    HW217917   1.159   3.453   8.748
 2097SOL     OW17918   2.708   4.320  26.627
 2097SOL    HW117919   2.769   4.304  26.699
 2097SOL    HW217920   2.747   4.392  26.577
 2098SOL     OW17921   3.473   1.694  26.506
 2098SOL    HW117922   3.538   1.651  26.562
 2098SOL    HW217923   3.479   1.648  26.423
 2099SOL     OW17924   0.615   3.490  27.123
 2099SOL    HW117925   0.699   3.536  27.124
 2099SOL    HW217926   0.619   3.433  27.046
 2100SOL     OW17927   3.046   2.368  21.678
 2100SOL    HW117928   2.984   2.301  21.705
 2100SOL    HW217929   3.095   2.328  21.606
 2101SOL     OW17930   1.711   1.418   8.356
 2101SOL    HW117931   1.801   1.442   8.377
 2101SOL    HW217932   1.706   1.324   8.375
 2102SOL     OW17933   4.105   0.009  27.147
 2102SOL    HW117934   4.075   0.094  27.179
 2102SOL    HW217935   4.200   0.018  27.141
 2103SOL     OW17936   2.446   1.455  24.010
 2103SOL    HW117937   2.446   1.449  23.914
 2103SOL    HW217938   2.539   1.453  24.035
 2104SOL     OW17939   1.839   3.738  22.125
 2104SOL    HW117940   1.756   3.767  22.163
 2104SOL    HW217941   1.837   3.643  22.132
 2105SOL     OW17942   0.958   2.868  11.779
 2105SOL    HW117943   1.022   2.805  11.811
 2105SOL    HW217944   0.966   2.865  11.684
 2106SOL     OW17945   0.816   1.695   1.279
 2106SOL    HW117946   0.882   1.693   1.348
 2106SOL    HW217947   0.866   1.688   1.198
 2107SOL     OW17948   2.146   0.336   2.626
 2107SOL    HW117949   2.071   0.387   2.657
 2107SOL    HW217950   2.191   0.394   2.564
 2108SOL     OW17951   1.982   3.445  25.591
 2108SOL    HW117952   1.959   3.353  25.578
 2108SOL    HW217953   2.077   3.444  25.601
 2109SOL     OW17954   3.451   0.254  22.663
 2109SOL    HW117955   3.504   0.177  22.681
 2109SOL    HW217956   3.454   0.263  22.568
 2110SOL     OW17957   0.381   2.983   7.471
 2110SOL    HW117958   0.398   3.044   7.542
 2110SOL    HW217959   0.432   2.905   7.493
 2111SOL     OW17960   2.773   2.055  10.199
 2111SOL    HW117961   2.844   2.120  10.196
 2111SOL    HW217962   2.698   2.103  10.235
 2112SOL     OW17963   0.960   2.459  23.310
 2112SOL    HW117964   1.033   2.451  23.249
 2112SOL    HW217965   0.898   2.517  23.265
 2113SOL     OW17966   2.706   0.993   3.146
 2113SOL    HW117967   2.708   0.934   3.221
 2113SOL    HW217968   2.679   1.077   3.183
 2114SOL     OW17969   2.525   4.434   8.203
 2114SOL    HW117970   2.569   4.365   8.154
 2114SOL    HW217971   2.591   4.464   8.266
 2115SOL     OW17972   4.423   1.237  23.221
 2115SOL    HW117973   4.513   1.251  23.191
 2115SOL    HW217974   4.385   1.177  23.157
 2116SOL     OW17975   3.396   2.922  27.898
 2116SOL    HW117976   3.362   2.984  27.962
 2116SOL    HW217977   3.491   2.931  27.904
 2117SOL     OW17978   3.832   2.846   0.499
 2117SOL    HW117979   3.806   2.930   0.536
 2117SOL    HW217980   3.803   2.851   0.408
 2118SOL     OW17981   0.637   4.061  19.933
 2118SOL    HW117982   0.714   4.093  19.979
 2118SOL    HW217983   0.602   3.992  19.990
 2119SOL     OW17984   1.571   0.985   7.051
 2119SOL    HW117985   1.497   1.013   7.104
 2119SOL    HW217986   1.604   0.907   7.096
 2120SOL     OW17987   2.009   3.911  19.074
 2120SOL    HW117988   2.051   3.938  18.992
 2120SOL    HW217989   2.001   3.816  19.067
 2121SOL     OW17990   4.458   1.173  21.161
 2121SOL    HW117991   4.382   1.173  21.103
 2121SOL    HW217992   4.435   1.113  21.232
 2122SOL     OW17993   4.456   1.832  10.862
 2122SOL    HW117994   4.456   1.832  10.766
 2122SOL    HW217995   4.366   1.810  10.886
 2123SOL     OW17996   4.293   4.411  26.507
 2123SOL    HW117997   4.273   4.351  26.435
 2123SOL    HW217998   4.378   4.449  26.484
 2124SOL     OW17999   2.859   3.491  23.316
 2124SOL    HW118000   2.953   3.473  23.316
 2124SOL    HW218001   2.832   3.476  23.226
 2125SOL     OW18002   0.927   3.520   9.540
 2125SOL    HW118003   0.945   3.478   9.624
 2125SOL    HW218004   0.835   3.546   9.545
 2126SOL     OW18005   2.644   0.885  11.643
 2126SOL    HW118006   2.637   0.904  11.737
 2126SOL    HW218007   2.723   0.831  11.635
 2127SOL     OW18008   2.037   1.036   5.230
 2127SOL    HW118009   2.052   1.089   5.152
 2127SOL    HW218010   2.109   0.973   5.230
 2128SOL     OW18011   3.468   0.464   0.363
 2128SOL    HW118012   3.397   0.486   0.424
 2128SOL    HW218013   3.445   0.377   0.330
 2129SOL     OW18014   4.590   0.614  25.635
 2129SOL    HW118015   4.676   0.599  25.673
 2129SOL    HW218016   4.542   0.533  25.651
 2130SOL     OW18017   0.877   0.273  25.061
 2130SOL    HW118018   0.851   0.284  24.970
 2130SOL    HW218019   0.953   0.214  25.057
 2131SOL     OW18020   0.364   3.012  23.131
 2131SOL    HW118021   0.428   3.077  23.104
 2131SOL    HW218022   0.306   3.002  23.055
 2132SOL     OW18023   0.337   3.987   8.606
 2132SOL    HW118024   0.355   4.048   8.678
 2132SOL    HW218025   0.242   3.982   8.602
 2133SOL     OW18026   1.531   3.275  10.614
 2133SOL    HW118027   1.601   3.216  10.643
 2133SOL    HW218028   1.503   3.320  10.694
 2134SOL     OW18029   2.827   3.383  17.326
 2134SOL    HW118030   2.784   3.336  17.254
 2134SOL    HW218031   2.920   3.366  17.314
 2135SOL     OW18032   3.074   1.696  17.857
 2135SOL    HW118033   3.017   1.772  17.867
 2135SOL    HW218034   3.019   1.631  17.814
 2136SOL     OW18035   1.349   3.528   6.669
 2136SOL    HW118036   1.286   3.457   6.653
 2136SOL    HW218037   1.370   3.520   6.762
 2137SOL     OW18038   0.970   0.302  22.410
 2137SOL    HW118039   1.001   0.278  22.323
 2137SOL    HW218040   1.050   0.314  22.462
 2138SOL     OW18041   1.475   0.799  22.703
 2138SOL    HW118042   1.566   0.777  22.683
 2138SOL    HW218043   1.479   0.849  22.784
 2139SOL     OW18044   3.378   3.908  11.779
 2139SOL    HW118045   3.461   3.944  11.811
 2139SOL    HW218046   3.335   3.873  11.857
 2140SOL     OW18047   2.999   3.117  13.315
 2140SOL    HW118048   3.023   3.191  13.370
 2140SOL    HW218049   2.968   3.050  13.376
 2141SOL     OW18050   2.608   3.429  14.074
 2141SOL    HW118051   2.666   3.406  14.147
 2141SOL    HW218052   2.666   3.435  13.998
 2142SOL     OW18053   3.318   0.109  11.254
 2142SOL    HW118054   3.312   0.164  11.332
 2142SOL    HW218055   3.228   0.082  11.237
 2143SOL     OW18056   3.098   3.324  13.460
 2143SOL    HW118057   3.101   3.356  13.550
 2143SOL    HW218058   3.180   3.354  13.421
 2144SOL     OW18059   3.227   1.381  11.232
 2144SOL    HW118060   3.204   1.426  11.313
 2144SOL    HW218061   3.170   1.420  11.165
 2145SOL     OW18062   2.504   3.104  11.620
 2145SOL    HW118063   2.567   3.059  11.677
 2145SOL    HW218064   2.522   3.068  11.533
 2146SOL     OW18065   3.956   3.063  13.113
 2146SOL    HW118066   3.870   3.042  13.149
 2146SOL    HW218067   3.995   3.122  13.177
 2147SOL     OW18068   3.489   2.175  12.830
 2147SOL    HW118069   3.531   2.218  12.905
 2147SOL    HW218070   3.424   2.238  12.800
 2148SOL     OW18071   2.990   0.570  11.070
 2148SOL    HW118072   2.934   0.505  11.112
 2148SOL    HW218073   2.932   0.644  11.053
 2149SOL     OW18074   1.280   1.990  26.522
 2149SOL    HW118075   1.328   1.956  26.597
 2149SOL    HW218076   1.326   1.955  26.446
 2150SOL     OW18077   3.217   3.068  12.930
 2150SOL    HW118078   3.306   3.043  12.904
 2150SOL    HW218079   3.228   3.110  13.015
 2151SOL     OW18080   4.251   3.785  12.758
 2151SOL    HW118081   4.265   3.706  12.705
 2151SOL    HW218082   4.334   3.832  12.752
 2152SOL     OW18083   1.771   3.330  12.005
 2152SOL    HW118084   1.799   3.362  12.090
 2152SOL    HW218085   1.729   3.405  11.963
 2153SOL     OW18086   1.894   3.336  13.103
 2153SOL    HW118087   1.972   3.362  13.152
 2153SOL    HW218088   1.863   3.417  13.062
 2154SOL     OW18089   2.072   3.601  12.010
 2154SOL    HW118090   2.057   3.508  12.026
 2154SOL    HW218091   2.054   3.613  11.917
 2155SOL     OW18092   3.906   3.408  14.046
 2155SOL    HW118093   3.900   3.312  14.047
 2155SOL    HW218094   3.997   3.426  14.024
 2156SOL     OW18095   2.654   4.246  14.081
 2156SOL    HW118096   2.565   4.259  14.114
 2156SOL    HW218097   2.674   4.326  14.032
 2157SOL     OW18098   0.565   0.564  12.239
 2157SOL    HW118099   0.638   0.508  12.263
 2157SOL    HW218100   0.534   0.600  12.322
 2158SOL     OW18101   1.975   3.372  10.715
 2158SOL    HW118102   2.046   3.315  10.685
 2158SOL    HW218103   1.925   3.393  10.636
 2159SOL     OW18104   3.939   2.546  12.658
 2159SOL    HW118105   3.932   2.592  12.741
 2159SOL    HW218106   3.869   2.582  12.604
 2160SOL     OW18107   4.455   3.279  10.601
 2160SOL    HW118108   4.384   3.295  10.539
 2160SOL    HW218109   4.415   3.290  10.687
 2161SOL     OW18110   2.968   3.672  12.534
 2161SOL    HW118111   3.018   3.705  12.460
 2161SOL    HW218112   3.012   3.591  12.559
 2162SOL     OW18113   2.494   3.108  12.671
 2162SOL    HW118114   2.582   3.112  12.710
 2162SOL    HW218115   2.437   3.085  12.744
 2163SOL     OW18116   2.215   3.434  13.563
 2163SOL    HW118117   2.291   3.438  13.621
 2163SOL    HW218118   2.178   3.522  13.565
 2164SOL     OW18119   1.541   1.646   2.351
 2164SOL    HW118120   1.498   1.590   2.287
 2164SOL    HW218121   1.624   1.671   2.310
 2165SOL     OW18122   1.944   3.744  12.301
 2165SOL    HW118123   1.944   3.782  12.389
 2165SOL    HW218124   1.855   3.758  12.269
 2166SOL     OW18125   2.245   3.339  12.252
 2166SOL    HW118126   2.219   3.325  12.161
 2166SOL    HW218127   2.165   3.323  12.302
 2167SOL     OW18128   0.429   3.448   1.625
 2167SOL    HW118129   0.450   3.537   1.597
 2167SOL    HW218130   0.336   3.452   1.649
 2168SOL     OW18131   3.576   1.809  12.994
 2168SOL    HW118132   3.608   1.755  12.922
 2168SOL    HW218133   3.483   1.820  12.976
 2169SOL     OW18134   3.037   3.615  12.917
 2169SOL    HW118135   2.981   3.692  12.906
 2169SOL    HW218136   3.125   3.650  12.926
 2170SOL     OW18137   3.120   4.763  14.206
 2170SOL    HW118138   3.075   4.714  14.138
 2170SOL    HW218139   3.191   0.028  14.160
 2171SOL     OW18140   2.364   2.244  12.318
 2171SOL    HW118141   2.292   2.254  12.255
 2171SOL    HW218142   2.321   2.228  12.402
 2172SOL     OW18143   2.695   2.181  14.527
 2172SOL    HW118144   2.666   2.266  14.559
 2172SOL    HW218145   2.616   2.139  14.493
 2173SOL     OW18146   2.470   3.440  12.399
 2173SOL    HW118147   2.388   3.421  12.353
 2173SOL    HW218148   2.448   3.434  12.492
 2174SOL     OW18149   4.513   0.326  12.355
 2174SOL    HW118150   4.570   0.308  12.280
 2174SOL    HW218151   4.572   0.328  12.430
 2175SOL     OW18152   1.925   4.411  12.955
 2175SOL    HW118153   1.956   4.428  13.044
 2175SOL    HW218154   1.964   4.327  12.931
 2176SOL     OW18155   3.329   3.977  11.513
 2176SOL    HW118156   3.387   3.924  11.458
 2176SOL    HW218157   3.351   3.952  11.603
 2177SOL     OW18158   2.220   3.143  12.489
 2177SOL    HW118159   2.271   3.207  12.439
 2177SOL    HW218160   2.152   3.195  12.531
 2178SOL     OW18161   2.431   3.389  12.671
 2178SOL    HW118162   2.374   3.414  12.743
 2178SOL    HW218163   2.452   3.297  12.687
 2179SOL     OW18164   2.093   0.025  12.142
 2179SOL    HW118165   2.173   0.002  12.189
 2179SOL    HW218166   2.024   0.018  12.208
 2180SOL     OW18167   4.168   0.630  11.356
 2180SOL    HW118168   4.263   0.628  11.367
 2180SOL    HW218169   4.147   0.723  11.343
 2181SOL     OW18170   3.084   3.420  13.998
 2181SOL    HW118171   3.145   3.474  14.049
 2181SOL    HW218172   3.052   3.355  14.061
 2182SOL     OW18173   1.997   1.355  13.373
 2182SOL    HW118174   2.005   1.445  13.404
 2182SOL    HW218175   1.955   1.308  13.445
 2183SOL     OW18176   2.567   3.170  12.416
 2183SOL    HW118177   2.541   3.262  12.407
 2183SOL    HW218178   2.558   3.151  12.509
 2184SOL     OW18179   2.433   0.212  13.476
 2184SOL    HW118180   2.433   0.185  13.568
 2184SOL    HW218181   2.499   0.281  13.471
 2185SOL     OW18182   1.683   4.154   2.292
 2185SOL    HW118183   1.691   4.224   2.227
 2185SOL    HW218184   1.759   4.165   2.349
 2186SOL     OW18185   3.119   2.007  12.998
 2186SOL    HW118186   3.062   2.079  13.024
 2186SOL    HW218187   3.059   1.940  12.965
 2187SOL     OW18188   3.715   3.310  13.189
 2187SOL    HW118189   3.622   3.305  13.167
 2187SOL    HW218190   3.732   3.231  13.240
 2188SOL     OW18191   3.552   3.708   4.366
 2188SOL    HW118192   3.496   3.634   4.342
 2188SOL    HW218193   3.629   3.698   4.310
 2189SOL     OW18194   2.347   2.733  14.179
 2189SOL    HW118195   2.423   2.790  14.165
 2189SOL    HW218196   2.276   2.793  14.201
 2190SOL     OW18197   2.053   3.908  11.974
 2190SOL    HW118198   2.125   3.947  12.024
 2190SOL    HW218199   2.054   3.816  11.999
 2191SOL     OW18200   1.049   2.804  13.237
 2191SOL    HW118201   0.984   2.825  13.304
 2191SOL    HW218202   1.133   2.829  13.276
 2192SOL     OW18203   3.284   3.199  12.308
 2192SOL    HW118204   3.322   3.285  12.326
 2192SOL    HW218205   3.289   3.152  12.391
 2193SOL     OW18206   4.050   3.169   4.440
 2193SOL    HW118207   4.141   3.154   4.465
 2193SOL    HW218208   4.020   3.238   4.500
 2194SOL     OW18209   3.000   4.393  11.948
 2194SOL    HW118210   3.043   4.462  11.897
 2194SOL    HW218211   3.053   4.386  12.028
 2195SOL     OW18212   4.052   3.115  23.501
 2195SOL    HW118213   4.017   3.197  23.536
 2195SOL    HW218214   4.146   3.120  23.517
 2196SOL     OW18215   1.268   1.093  11.313
 2196SOL    HW118216   1.285   1.111  11.405
 2196SOL    HW218217   1.175   1.069  11.310
 2197SOL     OW18218   2.702   3.634  13.114
 2197SOL    HW118219   2.762   3.586  13.171
 2197SOL    HW218220   2.618   3.629  13.159
 2198SOL     OW18221   2.051   3.635  13.488
 2198SOL    HW118222   2.005   3.614  13.569
 2198SOL    HW218223   1.982   3.642  13.422
 2199SOL     OW18224   4.128   2.519  20.377
 2199SOL    HW118225   4.073   2.526  20.455
 2199SOL    HW218226   4.094   2.585  20.317
 2200SOL     OW18227   2.740   0.207  13.556
 2200SOL    HW118228   2.699   0.277  13.505
 2200SOL    HW218229   2.746   0.243  13.645
 2201SOL     OW18230   3.286   4.201  14.083
 2201SOL    HW118231   3.332   4.142  14.024
 2201SOL    HW218232   3.232   4.144  14.137
 2202SOL     OW18233   3.364   3.849  14.176
 2202SOL    HW118234   3.297   3.909  14.208
 2202SOL    HW218235   3.439   3.905  14.155
 2203SOL     OW18236   1.791   4.391  13.391
 2203SOL    HW118237   1.784   4.456  13.461
 2203SOL    HW218238   1.883   4.365  13.392
 2204SOL     OW18239   4.112   0.487  12.748
 2204SOL    HW118240   4.091   0.442  12.666
 2204SOL    HW218241   4.031   0.484  12.799
 2205SOL     OW18242   2.823   0.565  13.420
 2205SOL    HW118243   2.890   0.613  13.371
 2205SOL    HW218244   2.799   0.624  13.492
 2206SOL     OW18245   3.539   3.722  14.393
 2206SOL    HW118246   3.485   3.792  14.357
 2206SOL    HW218247   3.507   3.710  14.482
 2207SOL     OW18248   2.304   3.166  13.790
 2207SOL    HW118249   2.336   3.255  13.800
 2207SOL    HW218250   2.379   3.111  13.813
 2208SOL     OW18251   2.082   3.479  13.252
 2208SOL    HW118252   2.136   3.524  13.317
 2208SOL    HW218253   1.999   3.527  13.252
 2209SOL     OW18254   3.554   4.378  13.745
 2209SOL    HW118255   3.542   4.395  13.652
 2209SOL    HW218256   3.575   4.463  13.783
 2210SOL     OW18257   2.823   4.515  13.524
 2210SOL    HW118258   2.862   4.539  13.440
 2210SOL    HW218259   2.746   4.571  13.532
 2211SOL     OW18260   2.451   2.281  14.172
 2211SOL    HW118261   2.542   2.264  14.148
 2211SOL    HW218262   2.399   2.237  14.104
 2212SOL     OW18263   3.070   3.815  14.375
 2212SOL    HW118264   3.087   3.723  14.354
 2212SOL    HW218265   2.996   3.812  14.436
 2213SOL     OW18266   4.079   4.515  12.884
 2213SOL    HW118267   4.106   4.536  12.795
 2213SOL    HW218268   4.150   4.461  12.919
 2214SOL     OW18269   2.618   2.231  12.475
 2214SOL    HW118270   2.588   2.305  12.528
 2214SOL    HW218271   2.545   2.212  12.417
 2215SOL     OW18272   1.938   4.184  14.528
 2215SOL    HW118273   2.013   4.133  14.497
 2215SOL    HW218274   1.866   4.121  14.534
 2216SOL     OW18275   3.427   4.759  13.436
 2216SOL    HW118276   3.400   0.025  13.515
 2216SOL    HW218277   3.473   0.045  13.384
 2217SOL     OW18278   2.000   3.590  13.750
 2217SOL    HW118279   2.083   3.567  13.793
 2217SOL    HW218280   1.933   3.564  13.813
 2218SOL     OW18281   3.311   3.238  14.887
 2218SOL    HW118282   3.263   3.216  14.807
 2218SOL    HW218283   3.306   3.333  14.892
 2219SOL     OW18284   1.690   4.366  14.326
 2219SOL    HW118285   1.604   4.358  14.367
 2219SOL    HW218286   1.750   4.380  14.399
 2220SOL     OW18287   2.710   3.750  12.871
 2220SOL    HW118288   2.702   3.717  12.961
 2220SOL    HW218289   2.782   3.813  12.874
 2221SOL     OW18290   3.367   0.312  13.468
 2221SOL    HW118291   3.392   0.256  13.542
 2221SOL    HW218292   3.342   0.395  13.508
 2222SOL     OW18293   2.753   3.451  12.438
 2222SOL    HW118294   2.671   3.443  12.390
 2222SOL    HW218295   2.745   3.534  12.485
 2223SOL     OW18296   3.566   3.971  14.085
 2223SOL    HW118297   3.557   4.022  14.004
 2223SOL    HW218298   3.622   4.025  14.141
 2224SOL     OW18299   3.145   4.036  14.234
 2224SOL    HW118300   3.066   4.073  14.195
 2224SOL    HW218301   3.114   3.959  14.282
 2225SOL     OW18302   4.078   4.159  13.838
 2225SOL    HW118303   4.054   4.243  13.877
 2225SOL    HW218304   3.994   4.114  13.826
 2226SOL     OW18305   3.941   4.157  14.132
 2226SOL    HW118306   3.857   4.197  14.155
 2226SOL    HW218307   3.917   4.071  14.097
 2227SOL     OW18308   3.207   3.227  13.152
 2227SOL    HW118309   3.135   3.289  13.142
 2227SOL    HW218310   3.176   3.164  13.217
 2228SOL     OW18311   1.033   4.012  13.591
 2228SOL    HW118312   0.967   3.958  13.635
 2228SOL    HW218313   1.047   4.086  13.651
 2229SOL     OW18314   3.394   0.243  13.883
 2229SOL    HW118315   3.365   0.168  13.934
 2229SOL    HW218316   3.329   0.311  13.901
 2230SOL     OW18317   4.014   4.651  15.311
 2230SOL    HW118318   3.993   4.730  15.360
 2230SOL    HW218319   4.107   4.659  15.290
 2231SOL     OW18320   3.411   3.301  12.815
 2231SOL    HW118321   3.329   3.335  12.780
 2231SOL    HW218322   3.429   3.224  12.761
 2232SOL     OW18323   3.358   0.506  13.661
 2232SOL    HW118324   3.339   0.467  13.746
 2232SOL    HW218325   3.302   0.583  13.657
 2233SOL     OW18326   2.492   3.427  13.183
 2233SOL    HW118327   2.550   3.427  13.259
 2233SOL    HW218328   2.474   3.334  13.167
 2234SOL     OW18329   2.033   3.767  14.548
 2234SOL    HW118330   1.993   3.751  14.463
 2234SOL    HW218331   2.043   3.862  14.553
 2235SOL     OW18332   1.933   3.553  12.529
 2235SOL    HW118333   2.015   3.602  12.539
 2235SOL    HW218334   1.904   3.573  12.440
 2236SOL     OW18335   2.217   3.340  13.081
 2236SOL    HW118336   2.264   3.276  13.135
 2236SOL    HW218337   2.181   3.403  13.143
 2237SOL     OW18338   2.822   4.600  13.225
 2237SOL    HW118339   2.828   4.686  13.267
 2237SOL    HW218340   2.784   4.618  13.139
 2238SOL     OW18341   2.614   0.408  13.436
 2238SOL    HW118342   2.550   0.468  13.397
 2238SOL    HW218343   2.698   0.452  13.424
 2239SOL     OW18344   2.063   3.057  13.742
 2239SOL    HW118345   2.155   3.082  13.748
 2239SOL    HW218346   2.044   3.057  13.648
 2240SOL     OW18347   2.538   4.113  14.446
 2240SOL    HW118348   2.548   4.201  14.482
 2240SOL    HW218349   2.472   4.122  14.377
 2241SOL     OW18350   4.427   3.643  12.563
 2241SOL    HW118351   4.383   3.567  12.524
 2241SOL    HW218352   4.492   3.605  12.623
 2242SOL     OW18353   1.851   3.631  13.267
 2242SOL    HW118354   1.806   3.707  13.304
 2242SOL    HW218355   1.810   3.618  13.181
 2243SOL     OW18356   2.114   1.618  13.363
 2243SOL    HW118357   2.206   1.643  13.352
 2243SOL    HW218358   2.069   1.662  13.291
 2244SOL     OW18359   2.954   3.667  13.678
 2244SOL    HW118360   2.865   3.695  13.699
 2244SOL    HW218361   3.006   3.747  13.685
 2245SOL     OW18362   2.345   2.886  12.519
 2245SOL    HW118363   2.334   2.981  12.517
 2245SOL    HW218364   2.292   2.857  12.593
 2246SOL     OW18365   2.724   3.681  12.606
 2246SOL    HW118366   2.817   3.677  12.584
 2246SOL    HW218367   2.722   3.719  12.694
 2247SOL     OW18368   3.256   3.213  13.732
 2247SOL    HW118369   3.315   3.240  13.802
 2247SOL    HW218370   3.198   3.288  13.718
 2248SOL     OW18371   3.257   0.129  13.228
 2248SOL    HW118372   3.252   0.034  13.237
 2248SOL    HW218373   3.234   0.163  13.314
 2249SOL     OW18374   3.841   4.017  13.783
 2249SOL    HW118375   3.853   3.957  13.857
 2249SOL    HW218376   3.746   4.023  13.773
 2250SOL     OW18377   2.747   4.333  14.737
 2250SOL    HW118378   2.701   4.360  14.657
 2250SOL    HW218379   2.799   4.409  14.761
 2251SOL     OW18380   1.975   0.141  13.777
 2251SOL    HW118381   1.940   0.099  13.856
 2251SOL    HW218382   1.951   0.082  13.706
 2252SOL     OW18383   3.149   4.281  13.412
 2252SOL    HW118384   3.092   4.284  13.336
 2252SOL    HW218385   3.220   4.341  13.391
 2253SOL     OW18386   2.413   4.146  14.209
 2253SOL    HW118387   2.319   4.152  14.223
 2253SOL    HW218388   2.422   4.103  14.124
 2254SOL     OW18389   2.165   3.895  13.602
 2254SOL    HW118390   2.108   3.818  13.605
 2254SOL    HW218391   2.172   3.916  13.509
 2255SOL     OW18392   2.429   3.185  14.440
 2255SOL    HW118393   2.378   3.252  14.485
 2255SOL    HW218394   2.409   3.198  14.347
 2256SOL     OW18395   3.260   0.034  14.428
 2256SOL    HW118396   3.203   0.017  14.353
 2256SOL    HW218397   3.331   0.088  14.393
 2257SOL     OW18398   3.648   3.433  14.062
 2257SOL    HW118399   3.640   3.527  14.049
 2257SOL    HW218400   3.742   3.417  14.070
 2258SOL     OW18401   3.079   3.425  13.715
 2258SOL    HW118402   3.022   3.496  13.685
 2258SOL    HW218403   3.085   3.438  13.810
 2259SOL     OW18404   1.649   0.827  14.726
 2259SOL    HW118405   1.621   0.886  14.796
 2259SOL    HW218406   1.737   0.857  14.704
 2260SOL     OW18407   3.139   2.901  12.578
 2260SOL    HW118408   3.048   2.929  12.572
 2260SOL    HW218409   3.190   2.977  12.549
 2261SOL     OW18410   3.083   3.898  13.679
 2261SOL    HW118411   3.087   3.910  13.774
 2261SOL    HW218412   3.136   3.969  13.644
 2262SOL     OW18413   1.984   3.284  12.336
 2262SOL    HW118414   1.899   3.239  12.341
 2262SOL    HW218415   2.009   3.298  12.427
 2263SOL     OW18416   2.217   3.951  13.357
 2263SOL    HW118417   2.197   3.915  13.271
 2263SOL    HW218418   2.234   4.044  13.341
 2264SOL     OW18419   3.482   4.138  13.870
 2264SOL    HW118420   3.496   4.222  13.826
 2264SOL    HW218421   3.470   4.075  13.799
 2265SOL     OW18422   3.231   4.130  13.624
 2265SOL    HW118423   3.225   4.189  13.699
 2265SOL    HW218424   3.213   4.185  13.548
 2266SOL     OW18425   1.909   0.480  11.919
 2266SOL    HW118426   1.996   0.510  11.946
 2266SOL    HW218427   1.861   0.470  12.001
 2267SOL     OW18428   2.485   2.965  15.359
 2267SOL    HW118429   2.459   2.873  15.353
 2267SOL    HW218430   2.570   2.969  15.315
 2268SOL     OW18431   3.722   3.039  15.058
 2268SOL    HW118432   3.726   2.961  15.003
 2268SOL    HW218433   3.659   3.096  15.014
 2269SOL     OW18434   1.061   1.802  16.257
 2269SOL    HW118435   0.980   1.846  16.284
 2269SOL    HW218436   1.032   1.723  16.212
 2270SOL     OW18437   0.020   4.627   2.299
 2270SOL    HW118438   0.091   4.594   2.245
 2270SOL    HW218439   4.731   4.561   2.291
 2271SOL     OW18440   1.570   4.101  15.507
 2271SOL    HW118441   1.651   4.119  15.555
 2271SOL    HW218442   1.556   4.007  15.518
 2272SOL     OW18443   1.220   3.530  16.473
 2272SOL    HW118444   1.139   3.513  16.425
 2272SOL    HW218445   1.263   3.600  16.424
 2273SOL     OW18446   2.769   2.600  15.964
 2273SOL    HW118447   2.678   2.627  15.978
 2273SOL    HW218448   2.767   2.546  15.885
 2274SOL     OW18449   3.112   4.468  15.661
 2274SOL    HW118450   3.129   4.543  15.717
 2274SOL    HW218451   3.029   4.432  15.694
 2275SOL     OW18452   3.408   4.524  15.328
 2275SOL    HW118453   3.465   4.561  15.260
 2275SOL    HW218454   3.324   4.511  15.284
 2276SOL     OW18455   4.544   4.559   6.900
 2276SOL    HW118456   4.454   4.586   6.920
 2276SOL    HW218457   4.542   4.463   6.903
 2277SOL     OW18458   4.556   2.304  15.650
 2277SOL    HW118459   4.641   2.345  15.635
 2277SOL    HW218460   4.531   2.270  15.564
 2278SOL     OW18461   1.658   3.378  15.818
 2278SOL    HW118462   1.595   3.363  15.747
 2278SOL    HW218463   1.734   3.418  15.775
 2279SOL     OW18464   3.237   3.433  16.608
 2279SOL    HW118465   3.241   3.398  16.519
 2279SOL    HW218466   3.156   3.483  16.610
 2280SOL     OW18467   2.441   3.122  15.589
 2280SOL    HW118468   2.371   3.169  15.544
 2280SOL    HW218469   2.463   3.050  15.530
 2281SOL     OW18470   2.398   4.778  14.984
 2281SOL    HW118471   2.372   4.777  14.892
 2281SOL    HW218472   2.443   4.695  14.997
 2282SOL     OW18473   2.183   3.509  15.356
 2282SOL    HW118474   2.250   3.576  15.366
 2282SOL    HW218475   2.117   3.549  15.299
 2283SOL     OW18476   3.102   4.616  15.447
 2283SOL    HW118477   3.141   4.582  15.366
 2283SOL    HW218478   3.122   4.550  15.513
 2284SOL     OW18479   2.659   2.950  16.004
 2284SOL    HW118480   2.596   3.006  15.958
 2284SOL    HW218481   2.621   2.862  15.998
 2285SOL     OW18482   3.586   3.201  14.900
 2285SOL    HW118483   3.636   3.281  14.885
 2285SOL    HW218484   3.494   3.228  14.892
 2286SOL     OW18485   1.111   3.197  14.869
 2286SOL    HW118486   1.195   3.194  14.915
 2286SOL    HW218487   1.061   3.124  14.904
 2287SOL     OW18488   3.568   0.067  17.299
 2287SOL    HW118489   3.486   0.035  17.261
 2287SOL    HW218490   3.619   4.768  17.318
 2288SOL     OW18491   2.850   4.264  17.187
 2288SOL    HW118492   2.797   4.341  17.169
 2288SOL    HW218493   2.891   4.243  17.103
 2289SOL     OW18494   2.312   3.703  16.310
 2289SOL    HW118495   2.252   3.769  16.274
 2289SOL    HW218496   2.367   3.677  16.236
 2290SOL     OW18497   3.694   0.019  16.348
 2290SOL    HW118498   3.675   4.745  16.272
 2290SOL    HW218499   3.671   0.108  16.320
 2291SOL     OW18500   1.568   3.872  15.155
 2291SOL    HW118501   1.474   3.874  15.173
 2291SOL    HW218502   1.576   3.821  15.074
 2292SOL     OW18503   2.144   4.331  15.969
 2292SOL    HW118504   2.234   4.299  15.972
 2292SOL    HW218505   2.151   4.418  15.930
 2293SOL     OW18506   2.924   3.484  16.012
 2293SOL    HW118507   2.949   3.412  16.069
 2293SOL    HW218508   2.971   3.467  15.930
 2294SOL     OW18509   3.482   3.489  15.653
 2294SOL    HW118510   3.394   3.487  15.616
 2294SOL    HW218511   3.469   3.501  15.747
 2295SOL     OW18512   3.802   0.083  17.003
 2295SOL    HW118513   3.800   4.773  17.035
 2295SOL    HW218514   3.889   0.115  17.025
 2296SOL     OW18515   3.150   3.175  15.102
 2296SOL    HW118516   3.203   3.177  15.022
 2296SOL    HW218517   3.134   3.082  15.118
 2297SOL     OW18518   2.266   3.095  17.772
 2297SOL    HW118519   2.342   3.146  17.799
 2297SOL    HW218520   2.266   3.019  17.830
 2298SOL     OW18521   2.871   0.207  16.004
 2298SOL    HW118522   2.796   0.225  16.061
 2298SOL    HW218523   2.834   0.163  15.928
 2299SOL     OW18524   1.096   2.256  15.385
 2299SOL    HW118525   1.190   2.276  15.380
 2299SOL    HW218526   1.082   2.230  15.476
 2300SOL     OW18527   0.194   2.165  18.405
 2300SOL    HW118528   0.154   2.117  18.477
 2300SOL    HW218529   0.247   2.232  18.447
 2301SOL     OW18530   2.213   3.050  15.310
 2301SOL    HW118531   2.300   3.011  15.308
 2301SOL    HW218532   2.227   3.138  15.344
 2302SOL     OW18533   4.324   4.668  17.728
 2302SOL    HW118534   4.369   4.656  17.645
 2302SOL    HW218535   4.233   4.646  17.709
 2303SOL     OW18536   3.014   0.127  16.238
 2303SOL    HW118537   2.946   0.174  16.191
 2303SOL    HW218538   3.096   0.166  16.207
 2304SOL     OW18539   2.456   3.642  16.094
 2304SOL    HW118540   2.466   3.700  16.018
 2304SOL    HW218541   2.509   3.565  16.073
 2305SOL     OW18542   2.313   3.571  15.002
 2305SOL    HW118543   2.348   3.484  14.983
 2305SOL    HW218544   2.226   3.554  15.039
 2306SOL     OW18545   2.044   4.113  16.104
 2306SOL    HW118546   1.985   4.155  16.167
 2306SOL    HW218547   2.070   4.184  16.045
 2307SOL     OW18548   1.854   4.239  16.259
 2307SOL    HW118549   1.871   4.201  16.345
 2307SOL    HW218550   1.875   4.332  16.270
 2308SOL     OW18551   3.688   3.452  16.050
 2308SOL    HW118552   3.704   3.534  16.097
 2308SOL    HW218553   3.771   3.404  16.056
 2309SOL     OW18554   1.775   2.874  14.915
 2309SOL    HW118555   1.764   2.934  14.988
 2309SOL    HW218556   1.780   2.930  14.838
 2310SOL     OW18557   4.234   4.231  17.006
 2310SOL    HW118558   4.163   4.295  17.001
 2310SOL    HW218559   4.250   4.207  16.915
 2311SOL     OW18560   4.764   0.043  15.207
 2311SOL    HW118561   4.766   4.756  15.140
 2311SOL    HW218562   0.073   0.047  15.240
 2312SOL     OW18563   2.443   2.417  27.367
 2312SOL    HW118564   2.385   2.489  27.390
 2312SOL    HW218565   2.395   2.368  27.300
 2313SOL     OW18566   2.664   4.147  14.920
 2313SOL    HW118567   2.684   4.212  14.853
 2313SOL    HW218568   2.749   4.118  14.952
 2314SOL     OW18569   0.784   0.021  16.193
 2314SOL    HW118570   0.875   0.019  16.164
 2314SOL    HW218571   0.768   4.713  16.226
 2315SOL     OW18572   2.872   1.576  17.717
 2315SOL    HW118573   2.791   1.625  17.732
 2315SOL    HW218574   2.844   1.485  17.713
 2316SOL     OW18575   3.443   3.640  17.939
 2316SOL    HW118576   3.373   3.683  17.890
 2316SOL    HW218577   3.400   3.605  18.017
 2317SOL     OW18578   0.146   3.128  16.081
 2317SOL    HW118579   0.164   3.109  15.989
 2317SOL    HW218580   0.069   3.185  16.079
 2318SOL     OW18581   3.851   2.527  14.178
 2318SOL    HW118582   3.826   2.619  14.180
 2318SOL    HW218583   3.849   2.504  14.085
 2319SOL     OW18584   1.483   3.039  18.167
 2319SOL    HW118585   1.423   2.966  18.150
 2319SOL    HW218586   1.558   2.999  18.211
 2320SOL     OW18587   0.780   4.420   9.824
 2320SOL    HW118588   0.687   4.423   9.803
 2320SOL    HW218589   0.821   4.473   9.755
 2321SOL     OW18590   3.881   2.896  15.226
 2321SOL    HW118591   3.833   2.948  15.161
 2321SOL    HW218592   3.816   2.837  15.263
 2322SOL     OW18593   3.756   1.132  17.410
 2322SOL    HW118594   3.682   1.193  17.411
 2322SOL    HW218595   3.792   1.140  17.322
 2323SOL     OW18596   4.550   0.172  26.235
 2323SOL    HW118597   4.479   0.119  26.271
 2323SOL    HW218598   4.576   0.230  26.307
 2324SOL     OW18599   4.267   4.012  20.820
 2324SOL    HW118600   4.187   4.013  20.873
 2324SOL    HW218601   4.338   4.013  20.884
 2325SOL     OW18602   0.677   0.406  24.296
 2325SOL    HW118603   0.735   0.448  24.232
 2325SOL    HW218604   0.732   0.342  24.340
 2326SOL     OW18605   4.627   1.413  19.436
 2326SOL    HW118606   4.605   1.337  19.383
 2326SOL    HW218607   4.710   1.390  19.477
 2327SOL     OW18608   3.199   4.240  18.013
 2327SOL    HW118609   3.154   4.175  18.067
 2327SOL    HW218610   3.222   4.193  17.933
 2328SOL     OW18611   0.908   0.978   0.855
 2328SOL    HW118612   0.892   0.926   0.776
 2328SOL    HW218613   0.820   1.001   0.886
 2329SOL     OW18614   4.016   4.387  16.935
 2329SOL    HW118615   3.954   4.410  16.866
 2329SOL    HW218616   3.973   4.414  17.016
 2330SOL     OW18617   4.674   2.081  17.401
 2330SOL    HW118618   4.632   2.043  17.324
 2330SOL    HW218619   4.746   2.021  17.421
 2331SOL     OW18620   2.621   3.546  18.257
 2331SOL    HW118621   2.687   3.615  18.255
 2331SOL    HW218622   2.539   3.593  18.273
 2332SOL     OW18623   1.684   2.296  16.340
 2332SOL    HW118624   1.635   2.248  16.273
 2332SOL    HW218625   1.770   2.311  16.300
 2333SOL     OW18626   1.956   4.377  17.957
 2333SOL    HW118627   1.967   4.452  17.898
 2333SOL    HW218628   2.018   4.393  18.028
 2334SOL     OW18629   3.306   0.675  15.275
 2334SOL    HW118630   3.317   0.711  15.187
 2334SOL    HW218631   3.223   0.711  15.306
 2335SOL     OW18632   3.185   3.665  17.396
 2335SOL    HW118633   3.140   3.595  17.349
 2335SOL    HW218634   3.167   3.744  17.345
 2336SOL     OW18635   3.425   3.301  16.340
 2336SOL    HW118636   3.462   3.214  16.355
 2336SOL    HW218637   3.481   3.359  16.391
 2337SOL     OW18638   2.601   3.958  17.123
 2337SOL    HW118639   2.542   4.029  17.100
 2337SOL    HW218640   2.618   3.913  17.040
 2338SOL     OW18641   0.779   0.224  18.265
 2338SOL    HW118642   0.793   0.243  18.172
 2338SOL    HW218643   0.787   0.309  18.308
 2339SOL     OW18644   4.193   3.200  16.849
 2339SOL    HW118645   4.146   3.174  16.770
 2339SOL    HW218646   4.278   3.157  16.841
 2340SOL     OW18647   2.003   3.404  21.816
 2340SOL    HW118648   1.965   3.320  21.842
 2340SOL    HW218649   1.944   3.438  21.749
 2341SOL     OW18650   3.325   1.721  18.349
 2341SOL    HW118651   3.270   1.696  18.424
 2341SOL    HW218652   3.318   1.816  18.345
 2342SOL     OW18653   3.921   3.337  16.102
 2342SOL    HW118654   3.983   3.365  16.035
 2342SOL    HW218655   3.970   3.345  16.184
 2343SOL     OW18656   2.596   1.556  19.047
 2343SOL    HW118657   2.629   1.596  18.967
 2343SOL    HW218658   2.515   1.603  19.066
 2344SOL     OW18659   3.048   4.640  17.204
 2344SOL    HW118660   3.005   4.725  17.212
 2344SOL    HW218661   3.012   4.603  17.123
 2345SOL     OW18662   2.902   3.071  16.588
 2345SOL    HW118663   2.894   2.996  16.529
 2345SOL    HW218664   2.894   3.148  16.531
 2346SOL     OW18665   4.244   3.730  27.772
 2346SOL    HW118666   4.193   3.776  27.706
 2346SOL    HW218667   4.312   3.792  27.797
 2347SOL     OW18668   0.580   0.559  16.830
 2347SOL    HW118669   0.659   0.576  16.881
 2347SOL    HW218670   0.608   0.565  16.739
 2348SOL     OW18671   3.599   4.463  18.284
 2348SOL    HW118672   3.629   4.553  18.295
 2348SOL    HW218673   3.517   4.470  18.235
 2349SOL     OW18674   2.806   4.311  16.700
 2349SOL    HW118675   2.806   4.315  16.796
 2349SOL    HW218676   2.797   4.402  16.672
 2350SOL     OW18677   0.673   1.754  19.635
 2350SOL    HW118678   0.740   1.819  19.615
 2350SOL    HW218679   0.610   1.762  19.563
 2351SOL     OW18680   0.664   3.539  17.741
 2351SOL    HW118681   0.728   3.541  17.812
 2351SOL    HW218682   0.711   3.502  17.666
 2352SOL     OW18683   1.831   0.667  17.077
 2352SOL    HW118684   1.782   0.686  17.157
 2352SOL    HW218685   1.778   0.603  17.030
 2353SOL     OW18686   1.249   4.716  23.742
 2353SOL    HW118687   1.315   4.773  23.703
 2353SOL    HW218688   1.285   4.694  23.828
 2354SOL     OW18689   2.374   3.537  19.327
 2354SOL    HW118690   2.344   3.458  19.283
 2354SOL    HW218691   2.410   3.506  19.410
 2355SOL     OW18692   4.041   3.599  27.937
 2355SOL    HW118693   3.973   3.591  27.870
 2355SOL    HW218694   4.118   3.631  27.889
 2356SOL     OW18695   0.641   2.449  17.451
 2356SOL    HW118696   0.654   2.476  17.360
 2356SOL    HW218697   0.717   2.395  17.471
 2357SOL     OW18698   0.261   4.558  25.965
 2357SOL    HW118699   0.225   4.641  25.934
 2357SOL    HW218700   0.251   4.498  25.891
 2358SOL     OW18701   3.927   3.393  17.083
 2358SOL    HW118702   3.917   3.448  17.160
 2358SOL    HW218703   3.843   3.399  17.038
 2359SOL     OW18704   2.605   4.205  16.541
 2359SOL    HW118705   2.653   4.133  16.500
 2359SOL    HW218706   2.654   4.223  16.622
 2360SOL     OW18707   0.421   2.551  25.286
 2360SOL    HW118708   0.443   2.642  25.305
 2360SOL    HW218709   0.326   2.547  25.293
 2361SOL     OW18710   4.592   3.676  15.913
 2361SOL    HW118711   4.615   3.747  15.853
 2361SOL    HW218712   4.515   3.635  15.874
 2362SOL     OW18713   0.396   1.069  20.847
 2362SOL    HW118714   0.447   1.043  20.770
 2362SOL    HW218715   0.363   1.156  20.826
 2363SOL     OW18716   0.527   3.448  16.991
 2363SOL    HW118717   0.614   3.488  16.996
 2363SOL    HW218718   0.501   3.458  16.899
 2364SOL     OW18719   0.139   3.760  22.545
 2364SOL    HW118720   0.182   3.845  22.553
 2364SOL    HW218721   0.051   3.780  22.513
 2365SOL     OW18722   4.583   3.816  17.824
 2365SOL    HW118723   4.663   3.832  17.773
 2365SOL    HW218724   4.586   3.882  17.893
 2366SOL     OW18725   1.527   1.239  16.270
 2366SOL    HW118726   1.583   1.174  16.227
 2366SOL    HW218727   1.450   1.245  16.214
 2367SOL     OW18728   0.038   1.065  17.675
 2367SOL    HW118729   0.121   1.069  17.627
 2367SOL    HW218730   0.003   0.978  17.654
 2368SOL     OW18731   2.839   3.635  16.217
 2368SOL    HW118732   2.912   3.644  16.278
 2368SOL    HW218733   2.879   3.600  16.137
 2369SOL     OW18734   2.819   2.819  16.987
 2369SOL    HW118735   2.835   2.805  17.080
 2369SOL    HW218736   2.841   2.735  16.946
 2370SOL     OW18737   2.946   3.048  16.876
 2370SOL    HW118738   2.928   3.049  16.782
 2370SOL    HW218739   2.889   2.979  16.911
 2371SOL     OW18740   3.228   3.103  18.328
 2371SOL    HW118741   3.251   3.173  18.389
 2371SOL    HW218742   3.205   3.029  18.384
 2372SOL     OW18743   0.069   3.293  15.125
 2372SOL    HW118744   0.071   3.375  15.076
 2372SOL    HW218745   0.035   3.229  15.062
 2373SOL     OW18746   1.818   3.278  17.239
 2373SOL    HW118747   1.774   3.335  17.176
 2373SOL    HW218748   1.911   3.285  17.216
 2374SOL     OW18749   0.830   4.505  21.091
 2374SOL    HW118750   0.777   4.583  21.107
 2374SOL    HW218751   0.817   4.485  20.998
 2375SOL     OW18752   3.009   3.982  16.237
 2375SOL    HW118753   2.999   3.890  16.263
 2375SOL    HW218754   3.043   3.978  16.148
 2376SOL     OW18755   4.012   3.401  16.639
 2376SOL    HW118756   4.023   3.306  16.646
 2376SOL    HW218757   4.098   3.434  16.612
 2377SOL     OW18758   1.346   4.186  17.084
 2377SOL    HW118759   1.325   4.109  17.136
 2377SOL    HW218760   1.437   4.206  17.105
 2378SOL     OW18761   1.710   4.299  18.260
 2378SOL    HW118762   1.646   4.344  18.315
 2378SOL    HW218763   1.698   4.337  18.173
 2379SOL     OW18764   3.418   2.556  26.129
 2379SOL    HW118765   3.385   2.596  26.209
 2379SOL    HW218766   3.464   2.477  26.159
 2380SOL     OW18767   4.700   3.788  17.052
 2380SOL    HW118768   0.003   3.743  17.035
 2380SOL    HW218769   4.701   3.863  16.993
 2381SOL     OW18770   3.099   3.598  15.781
 2381SOL    HW118771   3.151   3.525  15.815
 2381SOL    HW218772   3.107   3.666  15.848
 2382SOL     OW18773   1.841   1.802  27.306
 2382SOL    HW118774   1.787   1.790  27.384
 2382SOL    HW218775   1.789   1.858  27.249
 2383SOL     OW18776   1.214   1.929  14.923
 2383SOL    HW118777   1.238   2.021  14.933
 2383SOL    HW218778   1.163   1.908  15.001
 2384SOL     OW18779   2.080   3.362  17.178
 2384SOL    HW118780   2.046   3.413  17.105
 2384SOL    HW218781   2.172   3.387  17.184
 2385SOL     OW18782   2.646   2.135  24.785
 2385SOL    HW118783   2.605   2.057  24.822
 2385SOL    HW218784   2.663   2.113  24.693
 2386SOL     OW18785   3.221   4.546  17.718
 2386SOL    HW118786   3.219   4.568  17.625
 2386SOL    HW218787   3.293   4.483  17.726
 2387SOL     OW18788   1.182   1.075  17.730
 2387SOL    HW118789   1.146   1.107  17.648
 2387SOL    HW218790   1.147   1.134  17.797
 2388SOL     OW18791   3.461   3.569  16.724
 2388SOL    HW118792   3.542   3.531  16.689
 2388SOL    HW218793   3.391   3.530  16.671
 2389SOL     OW18794   3.754   0.904   1.186
 2389SOL    HW118795   3.798   0.986   1.163
 2389SOL    HW218796   3.665   0.915   1.153
 2390SOL     OW18797   1.901   0.363  16.899
 2390SOL    HW118798   1.831   0.418  16.935
 2390SOL    HW218799   1.975   0.423  16.889
 2391SOL     OW18800   4.200   2.178  18.518
 2391SOL    HW118801   4.186   2.181  18.423
 2391SOL    HW218802   4.139   2.111  18.549
 2392SOL     OW18803   1.910   0.860  16.860
 2392SOL    HW118804   1.983   0.843  16.801
 2392SOL    HW218805   1.898   0.777  16.907
 2393SOL     OW18806   3.808   2.624  17.945
 2393SOL    HW118807   3.849   2.619  17.859
 2393SOL    HW218808   3.818   2.716  17.971
 2394SOL     OW18809   3.319   3.211  16.094
 2394SOL    HW118810   3.394   3.173  16.049
 2394SOL    HW218811   3.355   3.244  16.176
 2395SOL     OW18812   3.462   3.563  16.994
 2395SOL    HW118813   3.452   3.584  16.901
 2395SOL    HW218814   3.467   3.648  17.037
 2396SOL     OW18815   3.643   1.465  27.701
 2396SOL    HW118816   3.602   1.496  27.621
 2396SOL    HW218817   3.621   1.531  27.766
 2397SOL     OW18818   0.655   4.672  24.433
 2397SOL    HW118819   0.736   4.719  24.415
 2397SOL    HW218820   0.680   4.605  24.497
 2398SOL     OW18821   0.333   0.566  22.355
 2398SOL    HW118822   0.329   0.551  22.449
 2398SOL    HW218823   0.415   0.614  22.342
 2399SOL     OW18824   1.961   1.285   1.436
 2399SOL    HW118825   1.984   1.206   1.484
 2399SOL    HW218826   1.975   1.262   1.344
 2400SOL     OW18827   0.158   3.635   1.686
 2400SOL    HW118828   0.085   3.655   1.628
 2400SOL    HW218829   0.123   3.571   1.747
 2401SOL     OW18830   2.988   2.683   9.794
 2401SOL    HW118831   2.955   2.634   9.870
 2401SOL    HW218832   2.918   2.676   9.729
 2402SOL     OW18833   2.154   2.861  28.228
 2402SOL    HW118834   2.166   2.953  28.203
 2402SOL    HW218835   2.211   2.849  28.304
 2403SOL     OW18836   2.509   4.559  23.355
 2403SOL    HW118837   2.492   4.493  23.288
 2403SOL    HW218838   2.593   4.534  23.393
 2404SOL     OW18839   0.863   1.419  18.666
 2404SOL    HW118840   0.883   1.336  18.623
 2404SOL    HW218841   0.946   1.467  18.665
 2405SOL     OW18842   3.499   4.208  23.402
 2405SOL    HW118843   3.455   4.125  23.417
 2405SOL    HW218844   3.561   4.190  23.331
 2406SOL     OW18845   4.454   0.463  27.792
 2406SOL    HW118846   4.525   0.418  27.837
 2406SOL    HW218847   4.495   0.540  27.753
 2407SOL     OW18848   1.200   2.783  23.538
 2407SOL    HW118849   1.175   2.874  23.524
 2407SOL    HW218850   1.198   2.743  23.451
 2408SOL     OW18851   2.669   4.062   5.791
 2408SOL    HW118852   2.692   4.120   5.864
 2408SOL    HW218853   2.581   4.030   5.812
 2409SOL     OW18854   2.450   1.327   0.180
 2409SOL    HW118855   2.509   1.296   0.249
 2409SOL    HW218856   2.371   1.355   0.226
 2410SOL     OW18857   1.137   2.309   3.762
 2410SOL    HW118858   1.127   2.299   3.667
 2410SOL    HW218859   1.062   2.263   3.799
 2411SOL     OW18860   0.097   0.793   4.344
 2411SOL    HW118861   0.042   0.727   4.302
 2411SOL    HW218862   0.187   0.765   4.326
 2412SOL     OW18863   3.645   3.600   3.829
 2412SOL    HW118864   3.592   3.547   3.770
 2412SOL    HW218865   3.724   3.548   3.843
 2413SOL     OW18866   3.635   0.016  22.713
 2413SOL    HW118867   3.727   4.770  22.709
 2413SOL    HW218868   3.589   4.734  22.657
 2414SOL     OW18869   3.869   1.329  23.372
 2414SOL    HW118870   3.901   1.246  23.335
 2414SOL    HW218871   3.946   1.368  23.413
 2415SOL     OW18872   2.327   0.073  16.948
 2415SOL    HW118873   2.400   0.134  16.944
 2415SOL    HW218874   2.367   4.769  16.970
 2416SOL     OW18875   2.179   3.725  24.885
 2416SOL    HW118876   2.179   3.774  24.803
 2416SOL    HW218877   2.233   3.648  24.867
 2417SOL     OW18878   0.907   3.020   0.479
 2417SOL    HW118879   0.945   2.954   0.537
 2417SOL    HW218880   0.826   2.980   0.446
 2418SOL     OW18881   2.660   4.446  21.877
 2418SOL    HW118882   2.735   4.453  21.936
 2418SOL    HW218883   2.694   4.472  21.791
 2419SOL     OW18884   1.581   4.745  18.446
 2419SOL    HW118885   1.644   4.704  18.505
 2419SOL    HW218886   1.513   4.778  18.504
 2420SOL     OW18887   1.153   2.813   7.976
 2420SOL    HW118888   1.238   2.855   7.964
 2420SOL    HW218889   1.105   2.832   7.895
 2421SOL     OW18890   1.434   1.369  17.253
 2421SOL    HW118891   1.520   1.401  17.279
 2421SOL    HW218892   1.389   1.352  17.336
 2422SOL     OW18893   1.965   0.229  22.670
 2422SOL    HW118894   1.897   0.169  22.640
 2422SOL    HW218895   1.927   0.274  22.745
 2423SOL     OW18896   2.176   0.049   3.421
 2423SOL    HW118897   2.122   0.048   3.500
 2423SOL    HW218898   2.172   4.739   3.389
 2424SOL     OW18899   2.494   0.745   8.042
 2424SOL    HW118900   2.450   0.826   8.069
 2424SOL    HW218901   2.579   0.748   8.087
 2425SOL     OW18902   4.268   4.518  21.210
 2425SOL    HW118903   4.233   4.460  21.278
 2425SOL    HW218904   4.192   4.566  21.178
 2426SOL     OW18905   2.730   0.781   7.054
 2426SOL    HW118906   2.809   0.738   7.085
 2426SOL    HW218907   2.758   0.869   7.031
 2427SOL     OW18908   4.737   3.915   5.823
 2427SOL    HW118909   4.720   3.966   5.902
 2427SOL    HW218910   4.662   3.856   5.816
 2428SOL     OW18911   1.930   0.297  17.249
 2428SOL    HW118912   1.907   0.246  17.171
 2428SOL    HW218913   2.012   0.341  17.225
 2429SOL     OW18914   2.141   3.610  27.367
 2429SOL    HW118915   2.074   3.571  27.311
 2429SOL    HW218916   2.106   3.602  27.456
 2430SOL     OW18917   2.267   4.429   9.805
 2430SOL    HW118918   2.202   4.448   9.872
 2430SOL    HW218919   2.228   4.360   9.752
 2431SOL     OW18920   2.604   4.187  17.391
 2431SOL    HW118921   2.686   4.206  17.346
 2431SOL    HW218922   2.563   4.273  17.403
 2432SOL     OW18923   3.509   0.759  24.832
 2432SOL    HW118924   3.562   0.751  24.753
 2432SOL    HW218925   3.558   0.710  24.898
 2433SOL     OW18926   2.974   0.325  16.486
 2433SOL    HW118927   3.046   0.327  16.423
 2433SOL    HW218928   2.900   0.289  16.437
 2434SOL     OW18929   2.922   1.692   5.812
 2434SOL    HW118930   2.998   1.750   5.808
 2434SOL    HW218931   2.947   1.616   5.759
 2435SOL     OW18932   2.717   2.693   2.262
 2435SOL    HW118933   2.738   2.702   2.355
 2435SOL    HW218934   2.702   2.599   2.250
 2436SOL     OW18935   2.152   4.514   4.324
 2436SOL    HW118936   2.204   4.435   4.311
 2436SOL    HW218937   2.182   4.575   4.257
 2437SOL     OW18938   1.840   2.449   1.135
 2437SOL    HW118939   1.769   2.491   1.184
 2437SOL    HW218940   1.911   2.440   1.198
 2438SOL     OW18941   0.729   0.962  28.086
 2438SOL    HW118942   0.656   0.971  28.025
 2438SOL    HW218943   0.687   0.958  28.172
 2439SOL     OW18944   0.852   4.434   0.352
 2439SOL    HW118945   0.792   4.487   0.299
 2439SOL    HW218946   0.845   4.471   0.440
 2440SOL     OW18947   0.638   2.425   3.520
 2440SOL    HW118948   0.648   2.422   3.425
 2440SOL    HW218949   0.670   2.512   3.544
 2441SOL     OW18950   3.683   3.545   2.502
 2441SOL    HW118951   3.692   3.531   2.596
 2441SOL    HW218952   3.738   3.621   2.484
 2442SOL     OW18953   1.356   0.767   1.091
 2442SOL    HW118954   1.433   0.719   1.059
 2442SOL    HW218955   1.291   0.755   1.022
 2443SOL     OW18956   1.250   4.624   9.753
 2443SOL    HW118957   1.332   4.671   9.770
 2443SOL    HW218958   1.230   4.580   9.836
 2444SOL     OW18959   4.099   1.558   5.316
 2444SOL    HW118960   4.116   1.641   5.361
 2444SOL    HW218961   4.028   1.517   5.366
 2445SOL     OW18962   0.065   2.536   7.324
 2445SOL    HW118963   0.135   2.543   7.259
 2445SOL    HW218964   4.775   2.591   7.290
 2446SOL     OW18965   1.601   4.241  25.590
 2446SOL    HW118966   1.649   4.322  25.571
 2446SOL    HW218967   1.602   4.192  25.508
 2447SOL     OW18968   0.419   2.413   0.994
 2447SOL    HW118969   0.495   2.393   0.940
 2447SOL    HW218970   0.413   2.509   0.994
 2448SOL     OW18971   0.167   1.788   9.686
 2448SOL    HW118972   0.250   1.750   9.658
 2448SOL    HW218973   0.192   1.866   9.736
 2449SOL     OW18974   3.456   4.426  16.596
 2449SOL    HW118975   3.375   4.477  16.591
 2449SOL    HW218976   3.525   4.488  16.574
 2450SOL     OW18977   3.621   1.184  16.203
 2450SOL    HW118978   3.623   1.278  16.223
 2450SOL    HW218979   3.609   1.180  16.108
 2451SOL     OW18980   0.541   1.160   6.207
 2451SOL    HW118981   0.630   1.175   6.175
 2451SOL    HW218982   0.486   1.172   6.130
 2452SOL     OW18983   4.661   4.771  25.312
 2452SOL    HW118984   4.696   0.018  25.228
 2452SOL    HW218985   4.737   4.739  25.361
 2453SOL     OW18986   3.490   4.609  28.087
 2453SOL    HW118987   3.559   4.645  28.143
 2453SOL    HW218988   3.537   4.563  28.017
 2454SOL     OW18989   2.039   4.316  20.762
 2454SOL    HW118990   2.129   4.343  20.779
 2454SOL    HW218991   2.045   4.224  20.736
 2455SOL     OW18992   4.036   3.153  17.051
 2455SOL    HW118993   3.983   3.231  17.069
 2455SOL    HW218994   4.094   3.179  16.979
 2456SOL     OW18995   0.739   4.775  27.270
 2456SOL    HW118996   0.678   0.058  27.308
 2456SOL    HW218997   0.714   4.771  27.178
 2457SOL     OW18998   1.081   2.328   3.491
 2457SOL    HW118999   1.022   2.391   3.449
 2457SOL    HW219000   1.135   2.294   3.419
 2458SOL     OW19001   3.973   1.418  19.610
 2458SOL    HW119002   3.886   1.387  19.584
 2458SOL    HW219003   4.009   1.458  19.531
 2459SOL     OW19004   3.546   0.626  28.039
 2459SOL    HW119005   3.562   0.716  28.067
 2459SOL    HW219006   3.539   0.576  28.120
 2460SOL     OW19007   3.563   3.235  16.775
 2460SOL    HW119008   3.604   3.160  16.731
 2460SOL    HW219009   3.595   3.311  16.727
 2461SOL     OW19010   0.497   3.458  17.281
 2461SOL    HW119011   0.523   3.368  17.298
 2461SOL    HW219012   0.488   3.463  17.186
 2462SOL     OW19013   3.466   0.707  20.311
 2462SOL    HW119014   3.560   0.725  20.311
 2462SOL    HW219015   3.433   0.754  20.234
 2463SOL     OW19016   1.048   2.065   8.994
 2463SOL    HW119017   1.081   2.017   9.070
 2463SOL    HW219018   1.115   2.131   8.976
 2464SOL     OW19019   2.660   4.428  20.500
 2464SOL    HW119020   2.582   4.414  20.446
 2464SOL    HW219021   2.733   4.403  20.444
 2465SOL     OW19022   0.841   3.166   9.039
 2465SOL    HW119023   0.909   3.151   9.104
 2465SOL    HW219024   0.810   3.079   9.015
 2466SOL     OW19025   3.625   3.587  18.184
 2466SOL    HW119026   3.717   3.588  18.159
 2466SOL    HW219027   3.624   3.624  18.272
 2467SOL     OW19028   4.683   1.009   3.636
 2467SOL    HW119029   4.728   1.091   3.657
 2467SOL    HW219030   4.613   1.003   3.701
 2468SOL     OW19031   0.866   3.568  17.307
 2468SOL    HW119032   0.801   3.636  17.322
 2468SOL    HW219033   0.938   3.613  17.262
 2469SOL     OW19034   2.953   4.268  27.171
 2469SOL    HW119035   2.934   4.215  27.248
 2469SOL    HW219036   3.019   4.217  27.123
 2470SOL     OW19037   2.127   0.337   3.539
 2470SOL    HW119038   2.190   0.395   3.581
 2470SOL    HW219039   2.166   0.317   3.454
 2471SOL     OW19040   2.351   0.399  25.603
 2471SOL    HW119041   2.445   0.393  25.617
 2471SOL    HW219042   2.315   0.327  25.654
 2472SOL     OW19043   1.891   4.532   8.478
 2472SOL    HW119044   1.845   4.449   8.470
 2472SOL    HW219045   1.907   4.560   8.388
 2473SOL     OW19046   2.801   0.985   9.995
 2473SOL    HW119047   2.779   1.073  10.026
 2473SOL    HW219048   2.716   0.941   9.988
 2474SOL     OW19049   1.826   1.911   2.837
 2474SOL    HW119050   1.873   1.927   2.919
 2474SOL    HW219051   1.884   1.855   2.786
 2475SOL     OW19052   3.160   2.782  27.527
 2475SOL    HW119053   3.145   2.726  27.603
 2475SOL    HW219054   3.250   2.812  27.536
 2476SOL     OW19055   4.541   2.249  24.525
 2476SOL    HW119056   4.598   2.321  24.499
 2476SOL    HW219057   4.485   2.234  24.449
 2477SOL     OW19058   1.094   2.569  20.931
 2477SOL    HW119059   1.155   2.501  20.901
 2477SOL    HW219060   1.142   2.651  20.921
 2478SOL     OW19061   3.950   1.033  22.213
 2478SOL    HW119062   3.962   1.096  22.284
 2478SOL    HW219063   3.889   1.076  22.153
 2479SOL     OW19064   2.770   2.923   8.348
 2479SOL    HW119065   2.720   2.900   8.270
 2479SOL    HW219066   2.817   2.843   8.371
 2480SOL     OW19067   4.240   0.802   0.735
 2480SOL    HW119068   4.147   0.781   0.743
 2480SOL    HW219069   4.270   0.813   0.825
 2481SOL     OW19070   3.748   4.225   1.870
 2481SOL    HW119071   3.780   4.284   1.801
 2481SOL    HW219072   3.809   4.237   1.942
 2482SOL     OW19073   3.995   4.592  25.075
 2482SOL    HW119074   3.962   4.535  25.006
 2482SOL    HW219075   4.074   4.631  25.038
 2483SOL     OW19076   4.067   1.917  25.508
 2483SOL    HW119077   4.132   1.867  25.558
 2483SOL    HW219078   3.983   1.891  25.547
 2484SOL     OW19079   2.398   4.636  28.449
 2484SOL    HW119080   2.472   4.693  28.471
 2484SOL    HW219081   2.382   4.586   0.010
 2485SOL     OW19082   1.605   0.348  19.630
 2485SOL    HW119083   1.556   0.404  19.570
 2485SOL    HW219084   1.538   0.293  19.672
 2486SOL     OW19085   0.659   1.792  22.755
 2486SOL    HW119086   0.596   1.783  22.684
 2486SOL    HW219087   0.723   1.723  22.738
 2487SOL     OW19088   1.818   2.374  20.834
 2487SOL    HW119089   1.753   2.443  20.842
 2487SOL    HW219090   1.827   2.340  20.923
 2488SOL     OW19091   3.055   1.974  20.930
 2488SOL    HW119092   3.037   1.949  20.839
 2488SOL    HW219093   2.986   1.930  20.980
 2489SOL     OW19094   4.356   0.937   1.124
 2489SOL    HW119095   4.442   0.979   1.115
 2489SOL    HW219096   4.365   0.854   1.076
 2490SOL     OW19097   3.203   3.051  24.015
 2490SOL    HW119098   3.255   3.014  24.086
 2490SOL    HW219099   3.112   3.038  24.043
 2491SOL     OW19100   0.203   1.496   8.883
 2491SOL    HW119101   0.138   1.425   8.884
 2491SOL    HW219102   0.220   1.513   8.975
 2492SOL     OW19103   0.462   0.538  21.756
 2492SOL    HW119104   0.527   0.510  21.820
 2492SOL    HW219105   0.421   0.615  21.795
 2493SOL     OW19106   1.192   0.729   7.381
 2493SOL    HW119107   1.243   0.673   7.322
 2493SOL    HW219108   1.181   0.811   7.333
 2494SOL     OW19109   2.915   1.975  22.102
 2494SOL    HW119110   2.984   2.038  22.124
 2494SOL    HW219111   2.906   1.982  22.007
 2495SOL     OW19112   4.292   4.406  22.172
 2495SOL    HW119113   4.364   4.450  22.128
 2495SOL    HW219114   4.314   4.313  22.167
 2496SOL     OW19115   3.058   1.630  23.536
 2496SOL    HW119116   3.117   1.621  23.610
 2496SOL    HW219117   3.036   1.540  23.512
 2497SOL     OW19118   4.196   0.851  21.040
 2497SOL    HW119119   4.173   0.769  21.084
 2497SOL    HW219120   4.292   0.851  21.039
 2498SOL     OW19121   3.616   1.552   2.257
 2498SOL    HW119122   3.537   1.502   2.278
 2498SOL    HW219123   3.663   1.498   2.194
 2499SOL     OW19124   1.090   4.646   4.702
 2499SOL    HW119125   1.069   4.556   4.727
 2499SOL    HW219126   1.013   4.676   4.654
 2500SOL     OW19127   4.396   1.374  27.910
 2500SOL    HW119128   4.424   1.319  27.983
 2500SOL    HW219129   4.371   1.312  27.841
 2501SOL     OW19130   3.602   0.496   1.009
 2501SOL    HW119131   3.636   0.570   0.958
 2501SOL    HW219132   3.669   0.480   1.076
 2502SOL     OW19133   0.058   2.892  23.908
 2502SOL    HW119134   0.125   2.824  23.905
 2502SOL    HW219135   0.055   2.918  24.000
 2503SOL     OW19136   3.053   3.264  27.598
 2503SOL    HW119137   3.034   3.342  27.545
 2503SOL    HW219138   3.108   3.210  27.542
 2504SOL     OW19139   2.499   0.375  28.033
 2504SOL    HW119140   2.420   0.338  28.073
 2504SOL    HW219141   2.526   0.311  27.967
 2505SOL     OW19142   4.580   2.802   3.884
 2505SOL    HW119143   4.652   2.756   3.841
 2505SOL    HW219144   4.522   2.828   3.812
 2506SOL     OW19145   0.927   1.574   2.662
 2506SOL    HW119146   0.977   1.572   2.580
 2506SOL    HW219147   0.872   1.496   2.659
 2507SOL     OW19148   2.502   2.390  26.375
 2507SOL    HW119149   2.524   2.321  26.438
 2507SOL    HW219150   2.417   2.423  26.404
 2508SOL     OW19151   1.295   2.730  24.283
 2508SOL    HW119152   1.283   2.673  24.359
 2508SOL    HW219153   1.330   2.673  24.215
 2509SOL     OW19154   1.239   1.575  15.169
 2509SOL    HW119155   1.161   1.630  15.174
 2509SOL    HW219156   1.312   1.634  15.189
 2510SOL     OW19157   2.872   3.662   2.127
 2510SOL    HW119158   2.868   3.608   2.048
 2510SOL    HW219159   2.850   3.602   2.198
 2511SOL     OW19160   0.591   1.760  28.233
 2511SOL    HW119161   0.676   1.740  28.272
 2511SOL    HW219162   0.551   1.823  28.293
 2512SOL     OW19163   0.819   0.082   7.892
 2512SOL    HW119164   0.815   0.058   7.799
 2512SOL    HW219165   0.793   0.002   7.938
 2513SOL     OW19166   2.373   1.034   5.946
 2513SOL    HW119167   2.292   1.009   5.991
 2513SOL    HW219168   2.402   0.954   5.902
 2514SOL     OW19169   2.162   2.572   4.485
 2514SOL    HW119170   2.175   2.659   4.523
 2514SOL    HW219171   2.250   2.534   4.483
 2515SOL     OW19172   1.254   1.009   0.007
 2515SOL    HW119173   1.301   0.957  28.461
 2515SOL    HW219174   1.309   1.006   0.085
 2516SOL     OW19175   2.673   1.664   4.107
 2516SOL    HW119176   2.624   1.618   4.174
 2516SOL    HW219177   2.606   1.701   4.049
 2517SOL     OW19178   0.374   0.188  11.241
 2517SOL    HW119179   0.314   0.245  11.289
 2517SOL    HW219180   0.458   0.199  11.285
 2518SOL     OW19181   4.197   1.878   0.909
 2518SOL    HW119182   4.259   1.825   0.858
 2518SOL    HW219183   4.162   1.817   0.975
 2519SOL     OW19184   1.228   3.478   4.056
 2519SOL    HW119185   1.227   3.448   3.965
 2519SOL    HW219186   1.245   3.399   4.108
 2520SOL     OW19187   2.927   0.629   8.486
 2520SOL    HW119188   2.925   0.621   8.391
 2520SOL    HW219189   3.014   0.597   8.510
 2521SOL     OW19190   3.724   1.390  24.110
 2521SOL    HW119191   3.649   1.342  24.074
 2521SOL    HW219192   3.685   1.469  24.149
 2522SOL     OW19193   0.177   2.266   6.273
 2522SOL    HW119194   0.138   2.197   6.219
 2522SOL    HW219195   0.102   2.317   6.304
 2523SOL     OW19196   4.331   1.341  26.626
 2523SOL    HW119197   4.422   1.368  26.612
 2523SOL    HW219198   4.320   1.339  26.721
 2524SOL     OW19199   3.077   2.362  20.871
 2524SOL    HW119200   3.069   2.434  20.934
 2524SOL    HW219201   3.037   2.396  20.791
 2525SOL     OW19202   3.197   0.925   2.288
 2525SOL    HW119203   3.286   0.895   2.271
 2525SOL    HW219204   3.176   0.979   2.212
 2526SOL     OW19205   1.494   2.876  19.237
 2526SOL    HW119206   1.431   2.946  19.257
 2526SOL    HW219207   1.506   2.831  19.320
 2527SOL     OW19208   3.558   1.730  18.142
 2527SOL    HW119209   3.636   1.693  18.101
 2527SOL    HW219210   3.560   1.823  18.119
 2528SOL     OW19211   0.638   2.952   4.446
 2528SOL    HW119212   0.570   3.012   4.479
 2528SOL    HW219213   0.603   2.865   4.462
 2529SOL     OW19214   0.011   0.973  23.241
 2529SOL    HW119215   0.014   0.877  23.243
 2529SOL    HW219216   4.765   0.995  23.152
 2530SOL     OW19217   2.744   3.757  20.140
 2530SOL    HW119218   2.662   3.736  20.096
 2530SOL    HW219219   2.735   3.720  20.228
 2531SOL     OW19220   1.129   1.471  25.102
 2531SOL    HW119221   1.086   1.502  25.182
 2531SOL    HW219222   1.142   1.550  25.050
 2532SOL     OW19223   2.031   0.953  21.051
 2532SOL    HW119224   1.946   0.994  21.035
 2532SOL    HW219225   2.076   0.959  20.967
 2533SOL     OW19226   4.190   3.207  26.218
 2533SOL    HW119227   4.230   3.294  26.213
 2533SOL    HW219228   4.097   3.223  26.203
 2534SOL     OW19229   0.566   2.606   5.733
 2534SOL    HW119230   0.541   2.697   5.717
 2534SOL    HW219231   0.496   2.571   5.788
 2535SOL     OW19232   2.653   3.163  22.954
 2535SOL    HW119233   2.562   3.190  22.940
 2535SOL    HW219234   2.646   3.071  22.981
 2536SOL     OW19235   1.424   3.189  26.080
 2536SOL    HW119236   1.370   3.201  26.158
 2536SOL    HW219237   1.501   3.243  26.096
 2537SOL     OW19238   2.804   1.166  27.747
 2537SOL    HW119239   2.750   1.108  27.800
 2537SOL    HW219240   2.889   1.122  27.742
 2538SOL     OW19241   3.355   4.103  27.243
 2538SOL    HW119242   3.319   4.187  27.215
 2538SOL    HW219243   3.331   4.042  27.173
 2539SOL     OW19244   4.462   1.061   4.613
 2539SOL    HW119245   4.478   1.056   4.707
 2539SOL    HW219246   4.370   1.038   4.603
 2540SOL     OW19247   3.498   3.329  22.651
 2540SOL    HW119248   3.507   3.401  22.713
 2540SOL    HW219249   3.409   3.338  22.617
 2541SOL     OW19250   4.147   1.758   1.504
 2541SOL    HW119251   4.144   1.684   1.443
 2541SOL    HW219252   4.147   1.718   1.591
 2542SOL     OW19253   1.026   0.421   6.846
 2542SOL    HW119254   1.008   0.514   6.835
 2542SOL    HW219255   0.953   0.388   6.899
 2543SOL     OW19256   1.618   4.219  17.102
 2543SOL    HW119257   1.694   4.208  17.159
 2543SOL    HW219258   1.655   4.243  17.017
 2544SOL     OW19259   4.204   1.224   1.593
 2544SOL    HW119260   4.243   1.153   1.541
 2544SOL    HW219261   4.142   1.180   1.651
 2545SOL     OW19262   3.707   4.755  25.508
 2545SOL    HW119263   3.792   0.017  25.493
 2545SOL    HW219264   3.713   4.672  25.461
 2546SOL     OW19265   1.895   0.300  19.838
 2546SOL    HW119266   1.916   0.227  19.780
 2546SOL    HW219267   1.915   0.378  19.786
 2547SOL     OW19268   3.045   2.963   1.090
 2547SOL    HW119269   2.966   3.018   1.088
 2547SOL    HW219270   3.029   2.896   1.023
 2548SOL     OW19271   4.050   2.629  20.036
 2548SOL    HW119272   4.075   2.682  20.112
 2548SOL    HW219273   3.998   2.689  19.982
 2549SOL     OW19274   0.263   2.799  24.691
 2549SOL    HW119275   0.175   2.819  24.658
 2549SOL    HW219276   0.261   2.828  24.782
 2550SOL     OW19277   0.661   2.026  15.081
 2550SOL    HW119278   0.715   2.099  15.051
 2550SOL    HW219279   0.612   1.999  15.003
 2551SOL     OW19280   3.772   0.334  22.744
 2551SOL    HW119281   3.829   0.402  22.780
 2551SOL    HW219282   3.689   0.346  22.789
 2552SOL     OW19283   3.697   1.062  10.485
 2552SOL    HW119284   3.660   1.110  10.559
 2552SOL    HW219285   3.743   0.988  10.525
 2553SOL     OW19286   4.348   2.839  16.896
 2553SOL    HW119287   4.340   2.792  16.813
 2553SOL    HW219288   4.374   2.772  16.959
 2554SOL     OW19289   2.829   0.921  19.815
 2554SOL    HW119290   2.921   0.897  19.819
 2554SOL    HW219291   2.782   0.838  19.820
 2555SOL     OW19292   2.062   3.010  20.543
 2555SOL    HW119293   2.107   2.970  20.468
 2555SOL    HW219294   2.132   3.028  20.606
 2556SOL     OW19295   2.026   2.540   4.057
 2556SOL    HW119296   1.979   2.623   4.054
 2556SOL    HW219297   2.118   2.565   4.055
 2557SOL     OW19298   3.337   0.810  21.787
 2557SOL    HW119299   3.358   0.818  21.694
 2557SOL    HW219300   3.243   0.828  21.793
 2558SOL     OW19301   2.968   0.386   9.342
 2558SOL    HW119302   3.025   0.326   9.295
 2558SOL    HW219303   2.896   0.404   9.281
 2559SOL     OW19304   0.008   3.468   2.500
 2559SOL    HW119305   0.096   3.504   2.494
 2559SOL    HW219306   4.741   3.507   2.427
 2560SOL     OW19307   0.295   3.365  23.482
 2560SOL    HW119308   0.292   3.407  23.396
 2560SOL    HW219309   0.203   3.347  23.504
 2561SOL     OW19310   1.878   1.328   6.550
 2561SOL    HW119311   1.789   1.321   6.584
 2561SOL    HW219312   1.868   1.316   6.455
 2562SOL     OW19313   1.570   3.665  25.545
 2562SOL    HW119314   1.599   3.593  25.490
 2562SOL    HW219315   1.650   3.714  25.566
 2563SOL     OW19316   2.641   3.090  20.748
 2563SOL    HW119317   2.584   3.098  20.825
 2563SOL    HW219318   2.722   3.133  20.774
 2564SOL     OW19319   0.812   1.537  23.020
 2564SOL    HW119320   0.798   1.560  22.928
 2564SOL    HW219321   0.790   1.444  23.025
 2565SOL     OW19322   1.039   1.467   6.836
 2565SOL    HW119323   1.124   1.448   6.876
 2565SOL    HW219324   1.025   1.395   6.775
 2566SOL     OW19325   3.598   1.995  20.690
 2566SOL    HW119326   3.689   1.965  20.695
 2566SOL    HW219327   3.597   2.078  20.737
 2567SOL     OW19328   1.042   4.160   8.907
 2567SOL    HW119329   1.039   4.256   8.905
 2567SOL    HW219330   0.978   4.135   8.973
 2568SOL     OW19331   1.864   4.516  23.576
 2568SOL    HW119332   1.828   4.491  23.491
 2568SOL    HW219333   1.958   4.499  23.568
 2569SOL     OW19334   1.760   1.450   0.429
 2569SOL    HW119335   1.737   1.542   0.445
 2569SOL    HW219336   1.686   1.401   0.464
 2570SOL     OW19337   3.243   2.959   1.884
 2570SOL    HW119338   3.169   2.901   1.868
 2570SOL    HW219339   3.252   3.009   1.803
 2571SOL     OW19340   2.141   3.527  26.092
 2571SOL    HW119341   2.087   3.450  26.109
 2571SOL    HW219342   2.167   3.558  26.179
 2572SOL     OW19343   3.975   1.164  17.866
 2572SOL    HW119344   4.051   1.144  17.812
 2572SOL    HW219345   3.926   1.082  17.871
 2573SOL     OW19346   1.433   3.044  28.188
 2573SOL    HW119347   1.502   3.109  28.199
 2573SOL    HW219348   1.479   2.962  28.171
 2574SOL     OW19349   3.214   4.390  20.260
 2574SOL    HW119350   3.131   4.415  20.220
 2574SOL    HW219351   3.218   4.295  20.249
 2575SOL     OW19352   2.640   4.769   4.431
 2575SOL    HW119353   2.585   4.691   4.430
 2575SOL    HW219354   2.584   0.058   4.398
 2576SOL     OW19355   1.496   3.497   3.155
 2576SOL    HW119356   1.461   3.585   3.139
 2576SOL    HW219357   1.590   3.506   3.140
 2577SOL     OW19358   2.246   3.277  26.866
 2577SOL    HW119359   2.162   3.232  26.863
 2577SOL    HW219360   2.223   3.370  26.867
 2578SOL     OW19361   2.935   0.479  10.686
 2578SOL    HW119362   2.842   0.501  10.695
 2578SOL    HW219363   2.944   0.454  10.594
 2579SOL     OW19364   3.851   1.766  26.904
 2579SOL    HW119365   3.833   1.785  26.812
 2579SOL    HW219366   3.924   1.824  26.926
 2580SOL     OW19367   2.755   3.558  25.800
 2580SOL    HW119368   2.771   3.625  25.734
 2580SOL    HW219369   2.825   3.571  25.865
 2581SOL     OW19370   3.706   1.799   1.692
 2581SOL    HW119371   3.763   1.742   1.743
 2581SOL    HW219372   3.736   1.888   1.712
 2582SOL     OW19373   3.154   4.728   2.340
 2582SOL    HW119374   3.196   4.752   2.257
 2582SOL    HW219375   3.218   4.673   2.384
 2583SOL     OW19376   1.588   3.527   6.460
 2583SOL    HW119377   1.572   3.434   6.445
 2583SOL    HW219378   1.521   3.553   6.523
 2584SOL     OW19379   2.610   0.702   6.760
 2584SOL    HW119380   2.516   0.722   6.764
 2584SOL    HW219381   2.651   0.786   6.738
 2585SOL     OW19382   2.773   4.772   8.736
 2585SOL    HW119383   2.738   4.763   8.824
 2585SOL    HW219384   2.867   0.002   8.749
 2586SOL     OW19385   4.466   0.470  22.173
 2586SOL    HW119386   4.372   0.488  22.169
 2586SOL    HW219387   4.477   0.391  22.121
 2587SOL     OW19388   1.384   2.403   7.112
 2587SOL    HW119389   1.350   2.427   7.198
 2587SOL    HW219390   1.407   2.487   7.071
 2588SOL     OW19391   4.359   0.387  11.172
 2588SOL    HW119392   4.423   0.420  11.108
 2588SOL    HW219393   4.384   0.429  11.254
 2589SOL     OW19394   0.925   1.660  26.140
 2589SOL    HW119395   0.921   1.725  26.069
 2589SOL    HW219396   1.006   1.612  26.124
 2590SOL     OW19397   3.630   1.397  18.535
 2590SOL    HW119398   3.613   1.488  18.510
 2590SOL    HW219399   3.547   1.352  18.519
 2591SOL     OW19400   1.502   0.669   0.704
 2591SOL    HW119401   1.435   0.731   0.731
 2591SOL    HW219402   1.492   0.661   0.609
 2592SOL     OW19403   1.751   3.381   7.339
 2592SOL    HW119404   1.677   3.333   7.377
 2592SOL    HW219405   1.733   3.473   7.359
 2593SOL     OW19406   3.947   2.187  25.461
 2593SOL    HW119407   3.999   2.116  25.499
 2593SOL    HW219408   3.973   2.265  25.511
 2594SOL     OW19409   3.568   4.148  22.425
 2594SOL    HW119410   3.629   4.081  22.457
 2594SOL    HW219411   3.495   4.145  22.486
 2595SOL     OW19412   2.453   0.005  21.976
 2595SOL    HW119413   2.540   4.778  21.936
 2595SOL    HW219414   2.414   0.082  21.936
 2596SOL     OW19415   4.512   2.248  26.672
 2596SOL    HW119416   4.589   2.252  26.616
 2596SOL    HW219417   4.443   2.212  26.616
 2597SOL     OW19418   2.270   1.259  20.776
 2597SOL    HW119419   2.361   1.288  20.770
 2597SOL    HW219420   2.233   1.277  20.690
 2598SOL     OW19421   2.236   1.801   3.371
 2598SOL    HW119422   2.325   1.810   3.405
 2598SOL    HW219423   2.183   1.782   3.448
 2599SOL     OW19424   4.529   2.767  28.441
 2599SOL    HW119425   4.446   2.740  28.481
 2599SOL    HW219426   4.505   2.797  28.353
 2600SOL     OW19427   0.189   0.601  24.031
 2600SOL    HW119428   0.093   0.601  24.029
 2600SOL    HW219429   0.214   0.517  23.992
 2601SOL     OW19430   3.755   3.976   1.778
 2601SOL    HW119431   3.780   3.911   1.843
 2601SOL    HW219432   3.738   4.055   1.829
 2602SOL     OW19433   4.595   2.347   0.811
 2602SOL    HW119434   4.557   2.307   0.890
 2602SOL    HW219435   4.538   2.422   0.793
 2603SOL     OW19436   0.321   0.597  25.969
 2603SOL    HW119437   0.382   0.599  25.896
 2603SOL    HW219438   0.295   0.688  25.982
 2604SOL     OW19439   2.750   0.952  10.422
 2604SOL    HW119440   2.783   1.030  10.467
 2604SOL    HW219441   2.678   0.921  10.477
 2605SOL     OW19442   3.467   1.814   4.156
 2605SOL    HW119443   3.443   1.905   4.138
 2605SOL    HW219444   3.430   1.765   4.083
 2606SOL     OW19445   4.258   3.996  16.269
 2606SOL    HW119446   4.288   4.001  16.360
 2606SOL    HW219447   4.173   4.041  16.269
 2607SOL     OW19448   0.880   0.911  18.726
 2607SOL    HW119449   0.891   0.915  18.631
 2607SOL    HW219450   0.790   0.882  18.738
 2608SOL     OW19451   1.027   4.750  23.929
 2608SOL    HW119452   1.092   4.760  23.860
 2608SOL    HW219453   1.012   4.656  23.934
 2609SOL     OW19454   2.217   1.511  19.255
 2609SOL    HW119455   2.149   1.520  19.188
 2609SOL    HW219456   2.292   1.557  19.218
 2610SOL     OW19457   2.125   4.432   1.946
 2610SOL    HW119458   2.042   4.397   1.913
 2610SOL    HW219459   2.143   4.382   2.025
 2611SOL     OW19460   1.874   3.640   3.444
 2611SOL    HW119461   1.919   3.631   3.528
 2611SOL    HW219462   1.924   3.707   3.397
 2612SOL     OW19463   4.214   3.360   6.669
 2612SOL    HW119464   4.247   3.385   6.755
 2612SOL    HW219465   4.252   3.425   6.610
 2613SOL     OW19466   0.571   3.759   3.882
 2613SOL    HW119467   0.593   3.837   3.830
 2613SOL    HW219468   0.479   3.742   3.863
 2614SOL     OW19469   0.577   2.122   5.869
 2614SOL    HW119470   0.525   2.076   5.935
 2614SOL    HW219471   0.516   2.137   5.797
 2615SOL     OW19472   2.489   1.102   0.936
 2615SOL    HW119473   2.397   1.081   0.954
 2615SOL    HW219474   2.487   1.144   0.850
 2616SOL     OW19475   0.077   1.055  25.238
 2616SOL    HW119476   0.133   1.132  25.247
 2616SOL    HW219477   0.005   1.071  25.299
 2617SOL     OW19478   2.761   0.592  17.792
 2617SOL    HW119479   2.838   0.612  17.845
 2617SOL    HW219480   2.690   0.641  17.834
 2618SOL     OW19481   0.850   2.250  26.398
 2618SOL    HW119482   0.860   2.171  26.451
 2618SOL    HW219483   0.756   2.259  26.385
 2619SOL     OW19484   1.285   0.069  24.918
 2619SOL    HW119485   1.262   0.024  24.837
 2619SOL    HW219486   1.378   0.088  24.909
 2620SOL     OW19487   0.058   4.028   8.575
 2620SOL    HW119488   0.003   4.091   8.529
 2620SOL    HW219489   0.017   3.943   8.559
 2621SOL     OW19490   1.340   3.099  22.663
 2621SOL    HW119491   1.416   3.079  22.718
 2621SOL    HW219492   1.312   3.186  22.692
 2622SOL     OW19493   1.503   2.824  19.642
 2622SOL    HW119494   1.527   2.732  19.632
 2622SOL    HW219495   1.552   2.869  19.573
 2623SOL     OW19496   4.615   1.580   3.861
 2623SOL    HW119497   4.610   1.567   3.766
 2623SOL    HW219498   4.660   1.664   3.871
 2624SOL     OW19499   2.297   2.204  23.339
 2624SOL    HW119500   2.256   2.153  23.409
 2624SOL    HW219501   2.257   2.291  23.345
 2625SOL     OW19502   2.938   3.805   5.886
 2625SOL    HW119503   2.984   3.879   5.926
 2625SOL    HW219504   2.999   3.773   5.819
 2626SOL     OW19505   1.669   0.578   9.029
 2626SOL    HW119506   1.638   0.560   8.940
 2626SOL    HW219507   1.702   0.494   9.060
 2627SOL     OW19508   0.757   3.782  20.376
 2627SOL    HW119509   0.830   3.721  20.367
 2627SOL    HW219510   0.778   3.833  20.454
 2628SOL     OW19511   4.215   4.400  25.282
 2628SOL    HW119512   4.163   4.320  25.274
 2628SOL    HW219513   4.156   4.470  25.252
 2629SOL     OW19514   0.356   4.041   6.752
 2629SOL    HW119515   0.427   4.052   6.688
 2629SOL    HW219516   0.316   4.128   6.760
 2630SOL     OW19517   2.311   4.517  24.799
 2630SOL    HW119518   2.250   4.444  24.809
 2630SOL    HW219519   2.256   4.595  24.798
 2631SOL     OW19520   0.525   2.277  26.460
 2631SOL    HW119521   0.520   2.205  26.523
 2631SOL    HW219522   0.461   2.254  26.392
 2632SOL     OW19523   1.487   0.882   0.191
 2632SOL    HW119524   1.546   0.871   0.117
 2632SOL    HW219525   1.429   0.806   0.188
 2633SOL     OW19526   2.267   0.877  23.472
 2633SOL    HW119527   2.196   0.920  23.424
 2633SOL    HW219528   2.223   0.822  23.537
 2634SOL     OW19529   0.860   3.977   1.653
 2634SOL    HW119530   0.775   4.022   1.652
 2634SOL    HW219531   0.899   4.001   1.737
 2635SOL     OW19532   4.209   3.040  20.321
 2635SOL    HW119533   4.151   3.093  20.375
 2635SOL    HW219534   4.291   3.089  20.319
 2636SOL     OW19535   0.048   2.162  28.046
 2636SOL    HW119536   4.747   2.211  28.035
 2636SOL    HW219537   0.110   2.226  28.083
 2637SOL     OW19538   1.040   2.533   8.128
 2637SOL    HW119539   1.132   2.530   8.153
 2637SOL    HW219540   1.041   2.564   8.037
 2638SOL     OW19541   3.200   0.432  24.074
 2638SOL    HW119542   3.134   0.448  24.007
 2638SOL    HW219543   3.229   0.519  24.101
 2639SOL     OW19544   1.754   4.533  24.597
 2639SOL    HW119545   1.758   4.463  24.662
 2639SOL    HW219546   1.789   4.493  24.517
 2640SOL     OW19547   2.340   2.163  18.521
 2640SOL    HW119548   2.377   2.111  18.592
 2640SOL    HW219549   2.388   2.246  18.523
 2641SOL     OW19550   4.689   4.111   6.022
 2641SOL    HW119551   4.656   4.193   6.059
 2641SOL    HW219552   4.660   4.044   6.084
 2642SOL     OW19553   4.546   2.653   6.078
 2642SOL    HW119554   4.639   2.658   6.056
 2642SOL    HW219555   4.502   2.691   6.002
 2643SOL     OW19556   1.387   1.098  27.311
 2643SOL    HW119557   1.314   1.137  27.359
 2643SOL    HW219558   1.345   1.046  27.242
 2644SOL     OW19559   1.668   2.967   6.807
 2644SOL    HW119560   1.612   3.045   6.806
 2644SOL    HW219561   1.612   2.897   6.840
 2645SOL     OW19562   0.334   2.672  22.519
 2645SOL    HW119563   0.346   2.610  22.447
 2645SOL    HW219564   0.259   2.726  22.492
 2646SOL     OW19565   1.680   2.928   2.228
 2646SOL    HW119566   1.622   2.959   2.159
 2646SOL    HW219567   1.645   2.842   2.252
 2647SOL     OW19568   3.908   4.340  18.312
 2647SOL    HW119569   3.914   4.245  18.306
 2647SOL    HW219570   3.998   4.371  18.303
 2648SOL     OW19571   2.078   4.385  21.598
 2648SOL    HW119572   2.019   4.416  21.529
 2648SOL    HW219573   2.166   4.397  21.562
 2649SOL     OW19574   2.183   2.799   9.063
 2649SOL    HW119575   2.098   2.827   9.030
 2649SOL    HW219576   2.245   2.825   8.995
 2650SOL     OW19577   3.015   1.136   7.766
 2650SOL    HW119578   2.965   1.119   7.686
 2650SOL    HW219579   2.984   1.222   7.795
 2651SOL     OW19580   3.279   0.249   5.342
 2651SOL    HW119581   3.240   0.250   5.429
 2651SOL    HW219582   3.233   0.180   5.295
 2652SOL     OW19583   1.413   2.762  21.139
 2652SOL    HW119584   1.442   2.674  21.164
 2652SOL    HW219585   1.483   2.820  21.168
 2653SOL     OW19586   0.585   3.696   4.217
 2653SOL    HW119587   0.579   3.762   4.148
 2653SOL    HW219588   0.624   3.620   4.174
 2654SOL     OW19589   0.583   2.233  25.792
 2654SOL    HW119590   0.576   2.323  25.824
 2654SOL    HW219591   0.651   2.237  25.724
 2655SOL     OW19592   4.036   4.323  20.601
 2655SOL    HW119593   4.039   4.239  20.555
 2655SOL    HW219594   4.090   4.382  20.548
 2656SOL     OW19595   1.880   3.583  27.931
 2656SOL    HW119596   1.881   3.490  27.909
 2656SOL    HW219597   1.851   3.586  28.022
 2657SOL     OW19598   2.129   2.946   3.325
 2657SOL    HW119599   2.034   2.932   3.328
 2657SOL    HW219600   2.140   3.041   3.335
 2658SOL     OW19601   3.925   2.606  27.628
 2658SOL    HW119602   3.942   2.639  27.540
 2658SOL    HW219603   4.011   2.584  27.663
 2659SOL     OW19604   1.432   2.476  27.659
 2659SOL    HW119605   1.411   2.524  27.739
 2659SOL    HW219606   1.374   2.400  27.661
 2660SOL     OW19607   0.589   3.557  23.294
 2660SOL    HW119608   0.663   3.547  23.234
 2660SOL    HW219609   0.576   3.470  23.331
 2661SOL     OW19610   0.777   0.246  10.696
 2661SOL    HW119611   0.687   0.228  10.669
 2661SOL    HW219612   0.781   0.216  10.787
 2662SOL     OW19613   0.871   3.366  20.630
 2662SOL    HW119614   0.934   3.310  20.584
 2662SOL    HW219615   0.908   3.378  20.717
 2663SOL     OW19616   2.488   2.532  25.754
 2663SOL    HW119617   2.424   2.510  25.821
 2663SOL    HW219618   2.505   2.625  25.766
 2664SOL     OW19619   3.841   0.934  23.025
 2664SOL    HW119620   3.798   0.943  22.940
 2664SOL    HW219621   3.927   0.898  23.005
 2665SOL     OW19622   2.488   3.928  21.409
 2665SOL    HW119623   2.436   3.857  21.447
 2665SOL    HW219624   2.469   4.004  21.464
 2666SOL     OW19625   3.288   1.963  23.937
 2666SOL    HW119626   3.254   2.033  23.993
 2666SOL    HW219627   3.237   1.886  23.961
 2667SOL     OW19628   3.282   0.534  27.161
 2667SOL    HW119629   3.318   0.600  27.220
 2667SOL    HW219630   3.291   0.452  27.209
 2668SOL     OW19631   0.095   2.399  26.125
 2668SOL    HW119632   0.042   2.376  26.049
 2668SOL    HW219633   0.031   2.425  26.191
 2669SOL     OW19634   3.492   4.376  18.775
 2669SOL    HW119635   3.526   4.287  18.788
 2669SOL    HW219636   3.561   4.421  18.727
 2670SOL     OW19637   2.233   2.424   6.953
 2670SOL    HW119638   2.283   2.505   6.948
 2670SOL    HW219639   2.177   2.435   7.030
 2671SOL     OW19640   0.057   1.603  12.346
 2671SOL    HW119641   0.121   1.537  12.320
 2671SOL    HW219642   0.016   1.568  12.425
 2672SOL     OW19643   4.268   2.802  23.195
 2672SOL    HW119644   4.192   2.744  23.189
 2672SOL    HW219645   4.230   2.889  23.210
 2673SOL     OW19646   3.024   2.381  17.922
 2673SOL    HW119647   3.093   2.437  17.887
 2673SOL    HW219648   2.994   2.426  18.001
 2674SOL     OW19649   0.105   1.802  23.296
 2674SOL    HW119650   0.023   1.770  23.258
 2674SOL    HW219651   0.101   1.775  23.388
 2675SOL     OW19652   0.450   0.500   8.079
 2675SOL    HW119653   0.379   0.480   8.018
 2675SOL    HW219654   0.423   0.582   8.120
 2676SOL     OW19655   3.682   1.589  10.784
 2676SOL    HW119656   3.705   1.682  10.784
 2676SOL    HW219657   3.633   1.576  10.865
 2677SOL     OW19658   1.947   2.166   0.173
 2677SOL    HW119659   2.001   2.238   0.139
 2677SOL    HW219660   1.957   2.171   0.268
 2678SOL     OW19661   2.243   0.317   9.420
 2678SOL    HW119662   2.296   0.252   9.374
 2678SOL    HW219663   2.289   0.330   9.503
 2679SOL     OW19664   1.356   4.093  28.235
 2679SOL    HW119665   1.303   4.033  28.288
 2679SOL    HW219666   1.323   4.180  28.257
 2680SOL     OW19667   1.192   0.820   7.892
 2680SOL    HW119668   1.146   0.772   7.961
 2680SOL    HW219669   1.133   0.817   7.817
 2681SOL     OW19670   0.739   4.628  25.296
 2681SOL    HW119671   0.716   4.688  25.367
 2681SOL    HW219672   0.833   4.615  25.305
 2682SOL     OW19673   1.705   2.328  25.265
 2682SOL    HW119674   1.622   2.305  25.306
 2682SOL    HW219675   1.753   2.375  25.333
 2683SOL     OW19676   1.651   3.978  21.298
 2683SOL    HW119677   1.663   3.904  21.358
 2683SOL    HW219678   1.617   4.048  21.353
 2684SOL     OW19679   0.020   3.682  26.709
 2684SOL    HW119680   0.053   3.635  26.785
 2684SOL    HW219681   0.012   3.615  26.641
 2685SOL     OW19682   4.634   2.161  27.205
 2685SOL    HW119683   4.701   2.141  27.270
 2685SOL    HW219684   4.669   2.235  27.156
 2686SOL     OW19685   1.328   4.292   3.326
 2686SOL    HW119686   1.405   4.302   3.269
 2686SOL    HW219687   1.309   4.381   3.356
 2687SOL     OW19688   1.234   3.546   8.256
 2687SOL    HW119689   1.316   3.559   8.208
 2687SOL    HW219690   1.170   3.522   8.189
 2688SOL     OW19691   2.835   4.164  22.084
 2688SOL    HW119692   2.886   4.086  22.104
 2688SOL    HW219693   2.859   4.187  21.994
 2689SOL     OW19694   2.383   3.995   1.033
 2689SOL    HW119695   2.319   3.986   0.962
 2689SOL    HW219696   2.468   3.995   0.989
 2690SOL     OW19697   1.704   4.222  25.208
 2690SOL    HW119698   1.796   4.227  25.233
 2690SOL    HW219699   1.667   4.154  25.264
 2691SOL     OW19700   2.316   4.717  27.896
 2691SOL    HW119701   2.397   4.674  27.924
 2691SOL    HW219702   2.246   4.659  27.928
 2692SOL     OW19703   1.781   0.419  25.858
 2692SOL    HW119704   1.765   0.472  25.780
 2692SOL    HW219705   1.694   0.396  25.889
 2693SOL     OW19706   1.477   0.571  20.318
 2693SOL    HW119707   1.504   0.596  20.406
 2693SOL    HW219708   1.391   0.530  20.330
 2694SOL     OW19709   1.475   1.038   6.470
 2694SOL    HW119710   1.554   0.986   6.454
 2694SOL    HW219711   1.507   1.128   6.480
 2695SOL     OW19712   2.325   3.972   9.053
 2695SOL    HW119713   2.314   3.935   8.965
 2695SOL    HW219714   2.240   4.010   9.073
 2696SOL     OW19715   2.009   1.000   1.629
 2696SOL    HW119716   2.053   1.028   1.709
 2696SOL    HW219717   2.078   0.957   1.578
 2697SOL     OW19718   2.702   1.031  23.209
 2697SOL    HW119719   2.703   1.065  23.299
 2697SOL    HW219720   2.765   1.086  23.162
 2698SOL     OW19721   4.189   0.882   1.517
 2698SOL    HW119722   4.169   0.896   1.610
 2698SOL    HW219723   4.106   0.898   1.472
 2699SOL     OW19724   0.717   0.234  22.712
 2699SOL    HW119725   0.705   0.220  22.618
 2699SOL    HW219726   0.643   0.289  22.738
 2700SOL     OW19727   3.862   1.817  25.662
 2700SOL    HW119728   3.900   1.746  25.713
 2700SOL    HW219729   3.771   1.822  25.691
 2701SOL     OW19730   0.601   4.118   9.790
 2701SOL    HW119731   0.560   4.039   9.824
 2701SOL    HW219732   0.695   4.103   9.801
 2702SOL     OW19733   2.647   2.902   1.454
 2702SOL    HW119734   2.708   2.925   1.524
 2702SOL    HW219735   2.572   2.960   1.467
 2703SOL     OW19736   4.020   3.016  24.997
 2703SOL    HW119737   3.994   3.105  24.975
 2703SOL    HW219738   3.991   3.005  25.088
 2704SOL     OW19739   2.228   2.542  27.865
 2704SOL    HW119740   2.182   2.469  27.823
 2704SOL    HW219741   2.165   2.614  27.866
 2705SOL     OW19742   0.398   3.280   9.329
 2705SOL    HW119743   0.443   3.309   9.408
 2705SOL    HW219744   0.339   3.211   9.359
 2706SOL     OW19745   3.462   2.189   1.008
 2706SOL    HW119746   3.499   2.277   1.012
 2706SOL    HW219747   3.409   2.189   0.929
 2707SOL     OW19748   3.481   2.644   3.565
 2707SOL    HW119749   3.431   2.726   3.562
 2707SOL    HW219750   3.565   2.665   3.524
 2708SOL     OW19751   1.781   1.473  19.334
 2708SOL    HW119752   1.768   1.379  19.319
 2708SOL    HW219753   1.693   1.509  19.342
 2709SOL     OW19754   0.115   3.240   0.834
 2709SOL    HW119755   0.173   3.287   0.894
 2709SOL    HW219756   0.122   3.288   0.751
 2710SOL     OW19757   0.007   3.743  27.541
 2710SOL    HW119758   0.097   3.764  27.568
 2710SOL    HW219759   0.012   3.733  27.446
 2711SOL     OW19760   0.859   0.734   6.520
 2711SOL    HW119761   0.826   0.822   6.504
 2711SOL    HW219762   0.891   0.705   6.435
 2712SOL     OW19763   2.582   0.899   1.943
 2712SOL    HW119764   2.625   0.980   1.914
 2712SOL    HW219765   2.489   0.914   1.926
 2713SOL     OW19766   2.725   1.413  21.448
 2713SOL    HW119767   2.645   1.364  21.431
 2713SOL    HW219768   2.704   1.469  21.523
 2714SOL     OW19769   0.237   4.168   4.855
 2714SOL    HW119770   0.152   4.133   4.882
 2714SOL    HW219771   0.297   4.094   4.866
 2715SOL     OW19772   1.714   0.264   8.063
 2715SOL    HW119773   1.733   0.263   7.969
 2715SOL    HW219774   1.734   0.353   8.091
 2716SOL     OW19775   3.079   1.737  25.134
 2716SOL    HW119776   3.160   1.786  25.147
 2716SOL    HW219777   3.107   1.655  25.093
 2717SOL     OW19778   1.881   3.469   4.475
 2717SOL    HW119779   1.813   3.453   4.541
 2717SOL    HW219780   1.961   3.481   4.525
 2718SOL     OW19781   3.872   4.094   1.177
 2718SOL    HW119782   3.812   4.128   1.111
 2718SOL    HW219783   3.858   4.150   1.254
 2719SOL     OW19784   2.632   0.423  25.191
 2719SOL    HW119785   2.585   0.506  25.188
 2719SOL    HW219786   2.673   0.415  25.105
 2720SOL     OW19787   3.717   0.092  28.422
 2720SOL    HW119788   3.735   0.137  28.505
 2720SOL    HW219789   3.635   0.045  28.437
 2721SOL     OW19790   2.475   1.659   8.953
 2721SOL    HW119791   2.428   1.576   8.942
 2721SOL    HW219792   2.552   1.636   9.004
 2722SOL     OW19793   3.216   0.457   0.494
 2722SOL    HW119794   3.180   0.385   0.545
 2722SOL    HW219795   3.180   0.536   0.535
 2723SOL     OW19796   3.924   4.667   8.741
 2723SOL    HW119797   3.884   4.724   8.807
 2723SOL    HW219798   3.881   4.690   8.659
 2724SOL     OW19799   2.935   2.471   0.087
 2724SOL    HW119800   3.005   2.413   0.057
 2724SOL    HW219801   2.935   2.543   0.024
 2725SOL     OW19802   0.714   0.253  18.993
 2725SOL    HW119803   0.786   0.222  18.937
 2725SOL    HW219804   0.641   0.195  18.972
 2726SOL     OW19805   1.704   0.930   6.042
 2726SOL    HW119806   1.763   0.952   6.114
 2726SOL    HW219807   1.762   0.901   5.972
 2727SOL     OW19808   2.280   0.803  28.139
 2727SOL    HW119809   2.321   0.878  28.183
 2727SOL    HW219810   2.239   0.753  28.210
 2728SOL     OW19811   3.178   0.429   5.750
 2728SOL    HW119812   3.217   0.397   5.831
 2728SOL    HW219813   3.112   0.492   5.779
 2729SOL     OW19814   0.987   3.304  24.195
 2729SOL    HW119815   0.979   3.214  24.164
 2729SOL    HW219816   1.081   3.323  24.190
 2730SOL     OW19817   1.033   0.695  22.959
 2730SOL    HW119818   1.054   0.649  22.878
 2730SOL    HW219819   1.073   0.781  22.949
 2731SOL     OW19820   0.979   3.498   5.782
 2731SOL    HW119821   1.013   3.475   5.696
 2731SOL    HW219822   1.028   3.443   5.843
 2732SOL     OW19823   3.175   4.110  25.206
 2732SOL    HW119824   3.127   4.068  25.134
 2732SOL    HW219825   3.127   4.191  25.222
 2733SOL     OW19826   4.648   1.204   1.331
 2733SOL    HW119827   4.666   1.245   1.415
 2733SOL    HW219828   4.722   1.230   1.275
 2734SOL     OW19829   0.597   1.927  23.334
 2734SOL    HW119830   0.650   1.935  23.254
 2734SOL    HW219831   0.573   2.017  23.356
 2735SOL     OW19832   1.282   0.361   5.610
 2735SOL    HW119833   1.198   0.365   5.656
 2735SOL    HW219834   1.277   0.430   5.544
 2736SOL     OW19835   4.459   1.781  10.609
 2736SOL    HW119836   4.391   1.757  10.546
 2736SOL    HW219837   4.506   1.853  10.567
 2737SOL     OW19838   3.708   0.317   5.470
 2737SOL    HW119839   3.696   0.397   5.418
 2737SOL    HW219840   3.720   0.349   5.560
 2738SOL     OW19841   2.902   2.662  28.386
 2738SOL    HW119842   2.969   2.657  28.318
 2738SOL    HW219843   2.833   2.603  28.356
 2739SOL     OW19844   2.040   1.123   2.932
 2739SOL    HW119845   2.041   1.041   2.981
 2739SOL    HW219846   1.997   1.185   2.990
 2740SOL     OW19847   3.841   2.017   2.301
 2740SOL    HW119848   3.763   2.038   2.353
 2740SOL    HW219849   3.815   1.941   2.249
 2741SOL     OW19850   4.184   0.644  17.942
 2741SOL    HW119851   4.279   0.634  17.940
 2741SOL    HW219852   4.164   0.693  17.862
 2742SOL     OW19853   4.095   1.593  27.652
 2742SOL    HW119854   4.043   1.662  27.694
 2742SOL    HW219855   4.176   1.636  27.626
 2743SOL     OW19856   2.771   3.170   9.043
 2743SOL    HW119857   2.680   3.154   9.019
 2743SOL    HW219858   2.815   3.187   8.960
 2744SOL     OW19859   3.903   1.889  20.346
 2744SOL    HW119860   3.967   1.911  20.279
 2744SOL    HW219861   3.824   1.867  20.297
 2745SOL     OW19862   1.806   2.392   9.010
 2745SOL    HW119863   1.844   2.407   9.096
 2745SOL    HW219864   1.718   2.428   9.016
 2746SOL     OW19865   3.464   1.778   0.844
 2746SOL    HW119866   3.495   1.747   0.929
 2746SOL    HW219867   3.521   1.852   0.824
 2747SOL     OW19868   4.399   4.682   9.540
 2747SOL    HW119869   4.392   4.767   9.584
 2747SOL    HW219870   4.474   4.640   9.582
 2748SOL     OW19871   2.501   2.438  24.317
 2748SOL    HW119872   2.587   2.465  24.284
 2748SOL    HW219873   2.456   2.520  24.338
 2749SOL     OW19874   3.236   1.196   0.318
 2749SOL    HW119875   3.260   1.288   0.322
 2749SOL    HW219876   3.319   1.149   0.325
 2750SOL     OW19877   1.980   2.543  21.135
 2750SOL    HW119878   1.901   2.580  21.096
 2750SOL    HW219879   2.024   2.498  21.063
 2751SOL     OW19880   3.445   0.932   4.527
 2751SOL    HW119881   3.449   0.850   4.477
 2751SOL    HW219882   3.421   0.998   4.462
 2752SOL     OW19883   3.377   1.776  17.557
 2752SOL    HW119884   3.379   1.854  17.502
 2752SOL    HW219885   3.431   1.712  17.511
 2753SOL     OW19886   0.082   2.455  17.469
 2753SOL    HW119887   0.042   2.524  17.522
 2753SOL    HW219888   0.169   2.489  17.447
 2754SOL     OW19889   0.024   2.193   3.859
 2754SOL    HW119890   4.779   2.279   3.826
 2754SOL    HW219891   4.732   2.168   3.917
 2755SOL     OW19892   4.699   0.967  20.257
 2755SOL    HW119893   4.641   1.031  20.215
 2755SOL    HW219894   4.641   0.894  20.280
 2756SOL     OW19895   2.492   1.551  10.236
 2756SOL    HW119896   2.456   1.622  10.290
 2756SOL    HW219897   2.498   1.476  10.295
 2757SOL     OW19898   4.123   0.405   3.477
 2757SOL    HW119899   4.213   0.414   3.447
 2757SOL    HW219900   4.126   0.426   3.570
 2758SOL     OW19901   1.004   4.715  25.448
 2758SOL    HW119902   0.976   0.015  25.405
 2758SOL    HW219903   1.100   4.719  25.446
 2759SOL     OW19904   1.137   4.081   2.433
 2759SOL    HW119905   1.131   4.007   2.493
 2759SOL    HW219906   1.112   4.157   2.485
 2760SOL     OW19907   0.186   3.578  17.556
 2760SOL    HW119908   0.280   3.596  17.553
 2760SOL    HW219909   0.180   3.484  17.571
 2761SOL     OW19910   0.322   0.943  18.470
 2761SOL    HW119911   0.316   1.032  18.435
 2761SOL    HW219912   0.265   0.943  18.547
 2762SOL     OW19913   3.962   4.057   9.107
 2762SOL    HW119914   3.933   4.013   9.027
 2762SOL    HW219915   3.985   4.146   9.079
 2763SOL     OW19916   3.620   1.882  17.788
 2763SOL    HW119917   3.713   1.894  17.770
 2763SOL    HW219918   3.601   1.793  17.757
 2764SOL     OW19919   0.906   3.213   7.690
 2764SOL    HW119920   0.927   3.295   7.646
 2764SOL    HW219921   0.954   3.146   7.641
 2765SOL     OW19922   2.668   1.262   7.898
 2765SOL    HW119923   2.616   1.337   7.928
 2765SOL    HW219924   2.755   1.298   7.883
 2766SOL     OW19925   3.281   4.228  21.578
 2766SOL    HW119926   3.256   4.172  21.651
 2766SOL    HW219927   3.353   4.181  21.536
 2767SOL     OW19928   1.132   2.436   4.606
 2767SOL    HW119929   1.037   2.428   4.616
 2767SOL    HW219930   1.149   2.530   4.611
 2768SOL     OW19931   4.683   3.162   7.358
 2768SOL    HW119932   4.689   3.135   7.266
 2768SOL    HW219933   4.737   3.099   7.405
 2769SOL     OW19934   0.619   1.462  25.482
 2769SOL    HW119935   0.697   1.426  25.525
 2769SOL    HW219936   0.549   1.402  25.507
 2770SOL     OW19937   3.434   2.603   4.177
 2770SOL    HW119938   3.475   2.543   4.239
 2770SOL    HW219939   3.496   2.608   4.105
 2771SOL     OW19940   2.587   0.010  28.155
 2771SOL    HW119941   2.574   0.076  28.087
 2771SOL    HW219942   2.505   0.009  28.204
 2772SOL     OW19943   4.449   2.678   7.714
 2772SOL    HW119944   4.394   2.754   7.695
 2772SOL    HW219945   4.396   2.603   7.689
 2773SOL     OW19946   4.214   1.210   1.899
 2773SOL    HW119947   4.132   1.188   1.854
 2773SOL    HW219948   4.256   1.126   1.915
 2774SOL     OW19949   2.738   0.909  24.519
 2774SOL    HW119950   2.688   0.916  24.437
 2774SOL    HW219951   2.807   0.845  24.500
 2775SOL     OW19952   3.972   2.609   6.153
 2775SOL    HW119953   4.048   2.561   6.121
 2775SOL    HW219954   3.939   2.656   6.076
 2776SOL     OW19955   1.520   1.194  25.566
 2776SOL    HW119956   1.539   1.174  25.658
 2776SOL    HW219957   1.582   1.263  25.543
 2777SOL     OW19958   4.191   1.766   8.325
 2777SOL    HW119959   4.223   1.676   8.320
 2777SOL    HW219960   4.192   1.786   8.419
 2778SOL     OW19961   2.925   4.084  20.482
 2778SOL    HW119962   2.945   4.009  20.426
 2778SOL    HW219963   2.988   4.078  20.554
 2779SOL     OW19964   2.211   1.491  26.760
 2779SOL    HW119965   2.150   1.418  26.769
 2779SOL    HW219966   2.203   1.540  26.842
 2780SOL     OW19967   3.053   2.713   6.209
 2780SOL    HW119968   2.968   2.758   6.213
 2780SOL    HW219969   3.076   2.698   6.301
 2781SOL     OW19970   4.129   4.022  21.803
 2781SOL    HW119971   4.071   3.962  21.756
 2781SOL    HW219972   4.161   4.082  21.735
 2782SOL     OW19973   2.166   3.311  20.448
 2782SOL    HW119974   2.125   3.345  20.527
 2782SOL    HW219975   2.243   3.264  20.480
 2783SOL     OW19976   3.831   4.131   3.552
 2783SOL    HW119977   3.848   4.041   3.524
 2783SOL    HW219978   3.913   4.160   3.591
 2784SOL     OW19979   3.444   2.018  18.589
 2784SOL    HW119980   3.466   2.110  18.578
 2784SOL    HW219981   3.528   1.972  18.586
 2785SOL     OW19982   0.239   0.563  23.256
 2785SOL    HW119983   0.170   0.587  23.318
 2785SOL    HW219984   0.256   0.470  23.273
 2786SOL     OW19985   3.623   3.687  22.610
 2786SOL    HW119986   3.563   3.684  22.685
 2786SOL    HW219987   3.707   3.659  22.646
 2787SOL     OW19988   4.635   2.718   4.950
 2787SOL    HW119989   4.596   2.758   4.873
 2787SOL    HW219990   4.571   2.733   5.020
 2788SOL     OW19991   3.196   3.516  26.486
 2788SOL    HW119992   3.260   3.446  26.472
 2788SOL    HW219993   3.121   3.472  26.527
 2789SOL     OW19994   0.212   3.857   5.783
 2789SOL    HW119995   0.247   3.946   5.787
 2789SOL    HW219996   0.117   3.868   5.793
 2790SOL     OW19997   4.631   1.562   4.761
 2790SOL    HW119998   4.695   1.633   4.765
 2790SOL    HW219999   4.660   1.508   4.687
 2791SOL     OW20000   4.132   4.660  20.725
 2791SOL    HW120001   4.161   4.751  20.726
 2791SOL    HW220002   4.166   4.624  20.643
 2792SOL     OW20003   1.796   1.104   8.039
 2792SOL    HW120004   1.755   1.038   8.095
 2792SOL    HW220005   1.742   1.105   7.960
 2793SOL     OW20006   4.045   2.139   2.496
 2793SOL    HW120007   4.075   2.213   2.444
 2793SOL    HW220008   3.975   2.100   2.444
 2794SOL     OW20009   2.676   1.197   2.466
 2794SOL    HW120010   2.652   1.160   2.381
 2794SOL    HW220011   2.697   1.289   2.448
 2795SOL     OW20012   0.766   0.131  20.637
 2795SOL    HW120013   0.779   0.051  20.687
 2795SOL    HW220014   0.854   0.161  20.616
 2796SOL     OW20015   4.243   4.556  20.501
 2796SOL    HW120016   4.323   4.506  20.516
 2796SOL    HW220017   4.272   4.634  20.453
 2797SOL     OW20018   2.619   4.583   8.587
 2797SOL    HW120019   2.687   4.635   8.631
 2797SOL    HW220020   2.656   4.495   8.582
 2798SOL     OW20021   4.186   0.350   9.753
 2798SOL    HW120022   4.109   0.337   9.809
 2798SOL    HW220023   4.258   0.365   9.814
 2799SOL     OW20024   3.611   2.093  27.920
 2799SOL    HW120025   3.615   2.162  27.986
 2799SOL    HW220026   3.553   2.128  27.853
 2800SOL     OW20027   4.203   4.122   3.397
 2800SOL    HW120028   4.146   4.108   3.473
 2800SOL    HW220029   4.287   4.083   3.422
 2801SOL     OW20030   2.470   1.070  26.355
 2801SOL    HW120031   2.419   1.078  26.274
 2801SOL    HW220032   2.407   1.085  26.425
 2802SOL     OW20033   2.901   3.394   3.626
 2802SOL    HW120034   2.893   3.486   3.602
 2802SOL    HW220035   2.940   3.395   3.714
 2803SOL     OW20036   4.303   3.110   6.602
 2803SOL    HW120037   4.289   3.200   6.630
 2803SOL    HW220038   4.227   3.062   6.636
 2804SOL     OW20039   0.035   2.554  23.724
 2804SOL    HW120040   0.077   2.640  23.727
 2804SOL    HW220041   0.054   2.521  23.636
 2805SOL     OW20042   2.219   2.105   8.793
 2805SOL    HW120043   2.201   2.188   8.837
 2805SOL    HW220044   2.248   2.047   8.863
 2806SOL     OW20045   2.655   2.633  18.136
 2806SOL    HW120046   2.709   2.681  18.073
 2806SOL    HW220047   2.650   2.691  18.212
 2807SOL     OW20048   0.124   3.130   7.664
 2807SOL    HW120049   0.219   3.142   7.659
 2807SOL    HW220050   0.088   3.211   7.629
 2808SOL     OW20051   3.943   1.093  23.234
 2808SOL    HW120052   4.003   1.160  23.201
 2808SOL    HW220053   3.917   1.044  23.156
 2809SOL     OW20054   0.042   3.719   6.137
 2809SOL    HW120055   0.050   3.654   6.207
 2809SOL    HW220056   0.119   3.705   6.082
 2810SOL     OW20057   0.172   0.218  19.156
 2810SOL    HW120058   0.249   0.217  19.212
 2810SOL    HW220059   0.104   0.174  19.207
 2811SOL     OW20060   2.829   1.549  20.203
 2811SOL    HW120061   2.751   1.494  20.204
 2811SOL    HW220062   2.900   1.490  20.179
 2812SOL     OW20063   0.542   3.906   6.372
 2812SOL    HW120064   0.489   3.828   6.356
 2812SOL    HW220065   0.586   3.922   6.289
 2813SOL     OW20066   2.268   0.680   7.497
 2813SOL    HW120067   2.332   0.624   7.452
 2813SOL    HW220068   2.297   0.682   7.588
 2814SOL     OW20069   3.662   4.545  27.886
 2814SOL    HW120070   3.661   4.538  27.790
 2814SOL    HW220071   3.754   4.536  27.909
 2815SOL     OW20072   2.045   3.436   8.316
 2815SOL    HW120073   2.056   3.341   8.315
 2815SOL    HW220074   1.956   3.451   8.283
 2816SOL     OW20075   1.225   3.914  19.107
 2816SOL    HW120076   1.299   3.854  19.106
 2816SOL    HW220077   1.213   3.936  19.199
 2817SOL     OW20078   1.924   4.775   4.361
 2817SOL    HW120079   1.837   0.023   4.332
 2817SOL    HW220080   1.931   0.028   4.450
 2818SOL     OW20081   1.582   1.020   6.759
 2818SOL    HW120082   1.506   0.975   6.721
 2818SOL    HW220083   1.577   1.001   6.853
 2819SOL     OW20084   3.567   0.387   6.007
 2819SOL    HW120085   3.591   0.294   6.011
 2819SOL    HW220086   3.622   0.422   5.937
 2820SOL     OW20087   1.861   3.243  22.930
 2820SOL    HW120088   1.813   3.319  22.897
 2820SOL    HW220089   1.842   3.173  22.867
 2821SOL     OW20090   0.856   2.678  17.470
 2821SOL    HW120091   0.799   2.636  17.406
 2821SOL    HW220092   0.838   2.632  17.552
 2822SOL     OW20093   3.142   0.260  27.126
 2822SOL    HW120094   3.142   0.318  27.050
 2822SOL    HW220095   3.082   0.189  27.102
 2823SOL     OW20096   0.507   1.542  19.166
 2823SOL    HW120097   0.519   1.582  19.080
 2823SOL    HW220098   0.456   1.463  19.149
 2824SOL     OW20099   1.903   2.005  21.684
 2824SOL    HW120100   1.900   1.912  21.708
 2824SOL    HW220101   1.994   2.031  21.701
 2825SOL     OW20102   2.233   3.359   2.466
 2825SOL    HW120103   2.309   3.354   2.524
 2825SOL    HW220104   2.170   3.298   2.505
 2826SOL     OW20105   4.751   2.753   8.449
 2826SOL    HW120106   4.779   2.732   8.360
 2826SOL    HW220107   4.691   2.827   8.438
 2827SOL     OW20108   4.574   0.757  28.269
 2827SOL    HW120109   4.645   0.753  28.333
 2827SOL    HW220110   4.499   0.717  28.313
 2828SOL     OW20111   2.633   2.320  23.049
 2828SOL    HW120112   2.610   2.269  23.127
 2828SOL    HW220113   2.552   2.365  23.026
 2829SOL     OW20114   1.354   4.170  24.964
 2829SOL    HW120115   1.331   4.114  25.038
 2829SOL    HW220116   1.366   4.109  24.891
 2830SOL     OW20117   4.238   2.709   8.716
 2830SOL    HW120118   4.207   2.657   8.642
 2830SOL    HW220119   4.331   2.723   8.698
 2831SOL     OW20120   2.035   3.761   6.124
 2831SOL    HW120121   2.021   3.666   6.120
 2831SOL    HW220122   1.947   3.798   6.135
 2832SOL     OW20123   0.459   3.773   2.517
 2832SOL    HW120124   0.493   3.844   2.463
 2832SOL    HW220125   0.530   3.753   2.578
 2833SOL     OW20126   2.671   3.695   8.279
 2833SOL    HW120127   2.752   3.662   8.239
 2833SOL    HW220128   2.688   3.691   8.373
 2834SOL     OW20129   1.955   2.365   7.524
 2834SOL    HW120130   1.997   2.294   7.573
 2834SOL    HW220131   1.924   2.323   7.444
 2835SOL     OW20132   0.427   1.609  24.353
 2835SOL    HW120133   0.503   1.565  24.316
 2835SOL    HW220134   0.447   1.702  24.346
 2836SOL     OW20135   3.117   4.299  19.940
 2836SOL    HW120136   3.203   4.285  19.979
 2836SOL    HW220137   3.114   4.239  19.866
 2837SOL     OW20138   4.047   2.998   4.027
 2837SOL    HW120139   4.073   2.941   4.099
 2837SOL    HW220140   4.043   2.940   3.951
 2838SOL     OW20141   0.930   4.419  28.464
 2838SOL    HW120142   0.984   4.498  28.466
 2838SOL    HW220143   0.922   4.393   0.037
 2839SOL     OW20144   3.881   3.773  20.008
 2839SOL    HW120145   3.813   3.810  19.951
 2839SOL    HW220146   3.881   3.679  19.988
 2840SOL     OW20147   3.808   4.465  24.007
 2840SOL    HW120148   3.729   4.506  23.972
 2840SOL    HW220149   3.818   4.385  23.956
 2841SOL     OW20150   0.537   2.858  23.788
 2841SOL    HW120151   0.487   2.807  23.724
 2841SOL    HW220152   0.542   2.946  23.750
 2842SOL     OW20153   1.108   4.359  25.182
 2842SOL    HW120154   1.111   4.406  25.099
 2842SOL    HW220155   1.199   4.336  25.200
 2843SOL     OW20156   3.528   0.263   6.673
 2843SOL    HW120157   3.558   0.192   6.616
 2843SOL    HW220158   3.476   0.219   6.740
 2844SOL     OW20159   1.723   0.143   5.083
 2844SOL    HW120160   1.643   0.145   5.031
 2844SOL    HW220161   1.793   0.125   5.020
 2845SOL     OW20162   2.072   4.691  26.248
 2845SOL    HW120163   2.116   4.760  26.298
 2845SOL    HW220164   2.038   4.735  26.170
 2846SOL     OW20165   0.919   1.406   0.897
 2846SOL    HW120166   0.965   1.465   0.836
 2846SOL    HW220167   0.960   1.423   0.982
 2847SOL     OW20168   2.383   1.403  26.207
 2847SOL    HW120169   2.339   1.320  26.187
 2847SOL    HW220170   2.399   1.399  26.301
 2848SOL     OW20171   0.318   2.794   3.666
 2848SOL    HW120172   0.384   2.774   3.732
 2848SOL    HW220173   0.321   2.889   3.656
 2849SOL     OW20174   0.057   0.394  25.913
 2849SOL    HW120175   0.148   0.415  25.934
 2849SOL    HW220176   0.009   0.475  25.929
 2850SOL     OW20177   4.143   0.770   7.923
 2850SOL    HW120178   4.092   0.834   7.874
 2850SOL    HW220179   4.130   0.793   8.015
 2851SOL     OW20180   2.835   3.676  10.697
 2851SOL    HW120181   2.756   3.729  10.705
 2851SOL    HW220182   2.852   3.645  10.786
 2852SOL     OW20183   2.019   1.657  25.551
 2852SOL    HW120184   2.074   1.581  25.532
 2852SOL    HW220185   1.955   1.659  25.480
 2853SOL     OW20186   4.210   0.610  20.784
 2853SOL    HW120187   4.229   0.585  20.694
 2853SOL    HW220188   4.252   0.696  20.794
 2854SOL     OW20189   1.703   2.669  28.173
 2854SOL    HW120190   1.739   2.718  28.099
 2854SOL    HW220191   1.639   2.729  28.212
 2855SOL     OW20192   2.184   4.322  28.344
 2855SOL    HW120193   2.237   4.277  28.410
 2855SOL    HW220194   2.140   4.392  28.392
 2856SOL     OW20195   3.894   0.783  25.666
 2856SOL    HW120196   3.870   0.756  25.577
 2856SOL    HW220197   3.966   0.844  25.654
 2857SOL     OW20198   1.901   0.078   6.216
 2857SOL    HW120199   1.936   4.780   6.258
 2857SOL    HW220200   1.823   0.048   6.169
 2858SOL     OW20201   0.791   0.918  26.925
 2858SOL    HW120202   0.800   0.925  27.020
 2858SOL    HW220203   0.698   0.932  26.909
 2859SOL     OW20204   1.634   2.128  28.063
 2859SOL    HW120205   1.704   2.100  28.123
 2859SOL    HW220206   1.610   2.216  28.093
 2860SOL     OW20207   3.882   3.512  19.945
 2860SOL    HW120208   3.801   3.462  19.941
 2860SOL    HW220209   3.909   3.521  19.854
 2861SOL     OW20210   0.387   3.585  23.645
 2861SOL    HW120211   0.319   3.650  23.626
 2861SOL    HW220212   0.372   3.516  23.581
 2862SOL     OW20213   3.165   1.973  26.384
 2862SOL    HW120214   3.182   2.060  26.419
 2862SOL    HW220215   3.176   1.983  26.289
 2863SOL     OW20216   0.042   2.241  22.895
 2863SOL    HW120217   0.027   2.160  22.944
 2863SOL    HW220218   0.135   2.260  22.908
 2864SOL     OW20219   1.006   0.051   5.970
 2864SOL    HW120220   0.921   0.007   5.975
 2864SOL    HW220221   1.066   4.764   5.939
 2865SOL     OW20222   1.119   0.878  25.839
 2865SOL    HW120223   1.160   0.961  25.815
 2865SOL    HW220224   1.151   0.815  25.774
 2866SOL     OW20225   2.992   4.492   8.537
 2866SOL    HW120226   3.024   4.579   8.512
 2866SOL    HW220227   3.013   4.485   8.630
 2867SOL     OW20228   0.470   0.588   7.106
 2867SOL    HW120229   0.502   0.507   7.066
 2867SOL    HW220230   0.377   0.590   7.084
 2868SOL     OW20231   4.157   1.507  24.709
 2868SOL    HW120232   4.244   1.544  24.697
 2868SOL    HW220233   4.130   1.481  24.621
 2869SOL     OW20234   1.818   3.640   0.819
 2869SOL    HW120235   1.735   3.673   0.853
 2869SOL    HW220236   1.866   3.611   0.897
 2870SOL     OW20237   4.498   2.581   5.639
 2870SOL    HW120238   4.518   2.488   5.650
 2870SOL    HW220239   4.448   2.586   5.557
 2871SOL     OW20240   1.090   1.011   3.753
 2871SOL    HW120241   1.132   1.061   3.823
 2871SOL    HW220242   1.114   0.920   3.770
 2872SOL     OW20243   2.100   0.461   7.009
 2872SOL    HW120244   2.110   0.430   6.919
 2872SOL    HW220245   2.179   0.513   7.025
 2873SOL     OW20246   0.245   3.882   8.952
 2873SOL    HW120247   0.173   3.828   8.985
 2873SOL    HW220248   0.209   3.971   8.949
 2874SOL     OW20249   4.285   4.522  20.113
 2874SOL    HW120250   4.356   4.573  20.074
 2874SOL    HW220251   4.263   4.457  20.047
 2875SOL     OW20252   0.245   0.639   9.140
 2875SOL    HW120253   0.197   0.565   9.102
 2875SOL    HW220254   0.337   0.612   9.136
 2876SOL     OW20255   0.267   2.882  25.588
 2876SOL    HW120256   0.191   2.932  25.617
 2876SOL    HW220257   0.257   2.796  25.628
 2877SOL     OW20258   3.732   0.954   6.975
 2877SOL    HW120259   3.764   0.964   6.885
 2877SOL    HW220260   3.777   1.023   7.024
 2878SOL     OW20261   2.632   0.390  21.768
 2878SOL    HW120262   2.676   0.305  21.778
 2878SOL    HW220263   2.668   0.426  21.687
 2879SOL     OW20264   2.777   2.282   4.640
 2879SOL    HW120265   2.817   2.361   4.602
 2879SOL    HW220266   2.729   2.243   4.568
 2880SOL     OW20267   4.003   0.653  23.633
 2880SOL    HW120268   3.979   0.742  23.607
 2880SOL    HW220269   4.044   0.663  23.719
 2881SOL     OW20270   1.068   1.165   0.297
 2881SOL    HW120271   1.017   1.206   0.366
 2881SOL    HW220272   1.003   1.140   0.231
 2882SOL     OW20273   0.637   4.270  23.550
 2882SOL    HW120274   0.707   4.308  23.603
 2882SOL    HW220275   0.656   4.297  23.460
 2883SOL     OW20276   1.997   1.726  20.139
 2883SOL    HW120277   1.926   1.779  20.102
 2883SOL    HW220278   2.029   1.777  20.213
 2884SOL     OW20279   3.739   4.245  24.949
 2884SOL    HW120280   3.713   4.329  24.911
 2884SOL    HW220281   3.691   4.240  25.032
 2885SOL     OW20282   3.055   4.728  26.686
 2885SOL    HW120283   3.080   4.780  26.762
 2885SOL    HW220284   3.009   0.009  26.629
 2886SOL     OW20285   1.589   1.719  23.446
 2886SOL    HW120286   1.587   1.813  23.429
 2886SOL    HW220287   1.516   1.705  23.507
 2887SOL     OW20288   3.106   2.411   4.078
 2887SOL    HW120289   3.156   2.411   3.996
 2887SOL    HW220290   3.151   2.348   4.134
 2888SOL     OW20291   4.177   1.162  24.156
 2888SOL    HW120292   4.234   1.186  24.229
 2888SOL    HW220293   4.232   1.174  24.078
 2889SOL     OW20294   3.692   2.577   6.201
 2889SOL    HW120295   3.787   2.576   6.211
 2889SOL    HW220296   3.664   2.492   6.235
 2890SOL     OW20297   2.175   0.980  20.825
 2890SOL    HW120298   2.201   1.051  20.767
 2890SOL    HW220299   2.141   0.912  20.767
 2891SOL     OW20300   0.423   0.259  18.510
 2891SOL    HW120301   0.456   0.299  18.430
 2891SOL    HW220302   0.490   0.196  18.535
 2892SOL     OW20303   3.626   0.434  19.347
 2892SOL    HW120304   3.641   0.487  19.425
 2892SOL    HW220305   3.628   0.497  19.275
 2893SOL     OW20306   3.831   1.720   9.216
 2893SOL    HW120307   3.776   1.652   9.177
 2893SOL    HW220308   3.819   1.796   9.160
 2894SOL     OW20309   4.476   2.235  22.037
 2894SOL    HW120310   4.499   2.171  22.104
 2894SOL    HW220311   4.501   2.194  21.954
 2895SOL     OW20312   4.152   0.644  19.777
 2895SOL    HW120313   4.113   0.729  19.754
 2895SOL    HW220314   4.111   0.582  19.717
 2896SOL     OW20315   2.583   3.455  27.106
 2896SOL    HW120316   2.631   3.468  27.024
 2896SOL    HW220317   2.536   3.373  27.093
 2897SOL     OW20318   3.791   2.608   8.214
 2897SOL    HW120319   3.880   2.631   8.187
 2897SOL    HW220320   3.799   2.587   8.307
 2898SOL     OW20321   2.173   3.254  23.026
 2898SOL    HW120322   2.119   3.209  22.961
 2898SOL    HW220323   2.110   3.293  23.087
 2899SOL     OW20324   0.013   0.561  27.921
 2899SOL    HW120325   4.754   0.474  27.919
 2899SOL    HW220326   0.104   0.547  27.894
 2900SOL     OW20327   1.819   0.753  15.785
 2900SOL    HW120328   1.752   0.799  15.734
 2900SOL    HW220329   1.872   0.709  15.719
 2901SOL     OW20330   0.624   0.704  24.204
 2901SOL    HW120331   0.707   0.705  24.156
 2901SOL    HW220332   0.621   0.618  24.246
 2902SOL     OW20333   0.037   3.315  23.523
 2902SOL    HW120334   4.750   3.367  23.480
 2902SOL    HW220335   0.009   3.224  23.511
 2903SOL     OW20336   1.682   4.120  18.620
 2903SOL    HW120337   1.702   4.207  18.587
 2903SOL    HW220338   1.756   4.098  18.677
 2904SOL     OW20339   3.823   0.059   8.915
 2904SOL    HW120340   3.747   0.067   8.972
 2904SOL    HW220341   3.897   0.083   8.971
 2905SOL     OW20342   2.109   2.102  23.550
 2905SOL    HW120343   2.080   2.193  23.540
 2905SOL    HW220344   2.038   2.059  23.597
 2906SOL     OW20345   0.794   0.900   2.684
 2906SOL    HW120346   0.731   0.831   2.707
 2906SOL    HW220347   0.830   0.929   2.768
 2907SOL     OW20348   3.832   1.172  22.008
 2907SOL    HW120349   3.748   1.216  21.994
 2907SOL    HW220350   3.897   1.235  21.978
 2908SOL     OW20351   4.458   4.305  23.167
 2908SOL    HW120352   4.452   4.213  23.194
 2908SOL    HW220353   4.525   4.305  23.099
 2909SOL     OW20354   1.876   4.559   9.325
 2909SOL    HW120355   1.875   4.653   9.310
 2909SOL    HW220356   1.786   4.537   9.349
 2910SOL     OW20357   0.196   0.131   6.253
 2910SOL    HW120358   0.193   0.189   6.329
 2910SOL    HW220359   0.189   0.043   6.289
 2911SOL     OW20360   2.184   4.387  22.394
 2911SOL    HW120361   2.138   4.345  22.466
 2911SOL    HW220362   2.208   4.315  22.336
 2912SOL     OW20363   3.808   2.953  24.475
 2912SOL    HW120364   3.819   2.861  24.451
 2912SOL    HW220365   3.821   2.954  24.570
 2913SOL     OW20366   1.470   3.832  23.694
 2913SOL    HW120367   1.456   3.738  23.707
 2913SOL    HW220368   1.403   3.857  23.630
 2914SOL     OW20369   2.215   2.495   0.794
 2914SOL    HW120370   2.181   2.423   0.742
 2914SOL    HW220371   2.310   2.481   0.796
 2915SOL     OW20372   0.981   0.415   4.863
 2915SOL    HW120373   1.018   0.473   4.929
 2915SOL    HW220374   0.906   0.463   4.828
 2916SOL     OW20375   0.517   2.209  25.424
 2916SOL    HW120376   0.588   2.163  25.470
 2916SOL    HW220377   0.562   2.266  25.361
 2917SOL     OW20378   4.576   1.495  10.541
 2917SOL    HW120379   4.656   1.523  10.496
 2917SOL    HW220380   4.544   1.574  10.584
 2918SOL     OW20381   0.345   2.515   3.734
 2918SOL    HW120382   0.315   2.569   3.660
 2918SOL    HW220383   0.329   2.569   3.811
 2919SOL     OW20384   0.538   1.760   3.437
 2919SOL    HW120385   0.547   1.749   3.342
 2919SOL    HW220386   0.489   1.683   3.465
 2920SOL     OW20387   1.795   3.968   1.285
 2920SOL    HW120388   1.720   3.911   1.267
 2920SOL    HW220389   1.848   3.920   1.349
 2921SOL     OW20390   3.211   3.630  20.033
 2921SOL    HW120391   3.123   3.622  19.996
 2921SOL    HW220392   3.206   3.707  20.089
 2922SOL     OW20393   1.799   2.992   4.577
 2922SOL    HW120394   1.753   3.057   4.631
 2922SOL    HW220395   1.891   3.004   4.599
 2923SOL     OW20396   3.674   2.788   2.785
 2923SOL    HW120397   3.746   2.728   2.806
 2923SOL    HW220398   3.644   2.820   2.870
 2924SOL     OW20399   2.476   0.901  27.551
 2924SOL    HW120400   2.451   0.991  27.569
 2924SOL    HW220401   2.456   0.854  27.632
 2925SOL     OW20402   4.769   0.947   6.018
 2925SOL    HW120403   4.740   0.858   6.039
 2925SOL    HW220404   4.707   0.978   5.951
 2926SOL     OW20405   4.525   2.346  21.586
 2926SOL    HW120406   4.587   2.273  21.581
 2926SOL    HW220407   4.448   2.316  21.537
 2927SOL     OW20408   0.065   4.754  22.438
 2927SOL    HW120409   0.022   4.700  22.504
 2927SOL    HW220410   0.085   0.055  22.484
 2928SOL     OW20411   1.089   1.443   9.495
 2928SOL    HW120412   1.024   1.387   9.452
 2928SOL    HW220413   1.154   1.382   9.529
 2929SOL     OW20414   3.284   3.294  21.305
 2929SOL    HW120415   3.351   3.236  21.342
 2929SOL    HW220416   3.289   3.374  21.358
 2930SOL     OW20417   1.003   3.892  23.639
 2930SOL    HW120418   1.024   3.984  23.625
 2930SOL    HW220419   0.911   3.892  23.666
 2931SOL     OW20420   0.655   1.750  15.258
 2931SOL    HW120421   0.665   1.829  15.205
 2931SOL    HW220422   0.734   1.747  15.312
 2932SOL     OW20423   1.655   1.023   2.312
 2932SOL    HW120424   1.679   0.934   2.338
 2932SOL    HW220425   1.691   1.032   2.224
 2933SOL     OW20426   4.770   4.565  19.909
 2933SOL    HW120427   0.015   4.493  19.851
 2933SOL    HW220428   0.065   4.624  19.908
 2934SOL     OW20429   3.123   2.374   5.258
 2934SOL    HW120430   3.145   2.449   5.314
 2934SOL    HW220431   3.167   2.392   5.175
 2935SOL     OW20432   3.615   1.811  25.761
 2935SOL    HW120433   3.526   1.778  25.772
 2935SOL    HW220434   3.604   1.905  25.745
 2936SOL     OW20435   4.689   2.305  19.716
 2936SOL    HW120436   4.695   2.388  19.764
 2936SOL    HW220437   4.743   2.318  19.638
 2937SOL     OW20438   3.809   3.901   1.527
 2937SOL    HW120439   3.785   3.921   1.617
 2937SOL    HW220440   3.747   3.951   1.474
 2938SOL     OW20441   3.262   0.795  23.848
 2938SOL    HW120442   3.329   0.739  23.886
 2938SOL    HW220443   3.219   0.740  23.782
 2939SOL     OW20444   4.361   4.687   4.610
 2939SOL    HW120445   4.355   4.705   4.516
 2939SOL    HW220446   4.455   4.684   4.628
 2940SOL     OW20447   0.420   3.673   8.173
 2940SOL    HW120448   0.429   3.578   8.183
 2940SOL    HW220449   0.505   3.708   8.199
 2941SOL     OW20450   4.113   0.862   2.131
 2941SOL    HW120451   4.058   0.791   2.165
 2941SOL    HW220452   4.200   0.822   2.122
 2942SOL     OW20453   0.656   2.377  23.557
 2942SOL    HW120454   0.742   2.335  23.549
 2942SOL    HW220455   0.673   2.470  23.540
 2943SOL     OW20456   2.067   4.724  17.298
 2943SOL    HW120457   2.060   4.757  17.209
 2943SOL    HW220458   2.160   4.730  17.319
 2944SOL     OW20459   0.127   2.351   8.076
 2944SOL    HW120460   0.040   2.390   8.074
 2944SOL    HW220461   0.132   2.299   7.996
 2945SOL     OW20462   3.207   1.860   2.525
 2945SOL    HW120463   3.150   1.916   2.473
 2945SOL    HW220464   3.178   1.771   2.506
 2946SOL     OW20465   3.219   4.320  22.921
 2946SOL    HW120466   3.231   4.242  22.975
 2946SOL    HW220467   3.302   4.367  22.927
 2947SOL     OW20468   3.583   3.516   5.197
 2947SOL    HW120469   3.523   3.449   5.165
 2947SOL    HW220470   3.574   3.513   5.292
 2948SOL     OW20471   4.033   4.437  22.166
 2948SOL    HW120472   4.014   4.369  22.101
 2948SOL    HW220473   4.128   4.444  22.166
 2949SOL     OW20474   1.520   3.621  17.847
 2949SOL    HW120475   1.463   3.545  17.863
 2949SOL    HW220476   1.577   3.594  17.775
 2950SOL     OW20477   4.306   0.764  21.658
 2950SOL    HW120478   4.231   0.821  21.643
 2950SOL    HW220479   4.305   0.747  21.752
 2951SOL     OW20480   2.056   4.171   9.993
 2951SOL    HW120481   2.151   4.170  10.008
 2951SOL    HW220482   2.022   4.105  10.053
 2952SOL     OW20483   3.396   0.448  22.124
 2952SOL    HW120484   3.439   0.487  22.048
 2952SOL    HW220485   3.307   0.428  22.094
 2953SOL     OW20486   4.359   0.347  20.007
 2953SOL    HW120487   4.390   0.337  19.917
 2953SOL    HW220488   4.429   0.395  20.052
 2954SOL     OW20489   0.065   1.924   7.355
 2954SOL    HW120490   0.134   1.858   7.351
 2954SOL    HW220491   4.765   1.874   7.368
 2955SOL     OW20492   2.984   1.995   0.007
 2955SOL    HW120493   3.079   2.002   0.019
 2955SOL    HW220494   2.948   2.056   0.071
 2956SOL     OW20495   2.589   3.980  26.897
 2956SOL    HW120496   2.649   4.029  26.953
 2956SOL    HW220497   2.503   4.017  26.917
 2957SOL     OW20498   3.624   4.671  20.920
 2957SOL    HW120499   3.533   4.676  20.948
 2957SOL    HW220500   3.673   4.712  20.991
 2958SOL     OW20501   0.230   1.694  17.637
 2958SOL    HW120502   0.171   1.632  17.680
 2958SOL    HW220503   0.317   1.668  17.666
 2959SOL     OW20504   1.305   1.626   6.519
 2959SOL    HW120505   1.253   1.649   6.596
 2959SOL    HW220506   1.287   1.696   6.456
 2960SOL     OW20507   3.819   0.679   1.560
 2960SOL    HW120508   3.734   0.683   1.516
 2960SOL    HW220509   3.834   0.586   1.576
 2961SOL     OW20510   0.608   2.138   4.144
 2961SOL    HW120511   0.560   2.210   4.103
 2961SOL    HW220512   0.698   2.170   4.151
 2962SOL     OW20513   0.811   2.395  12.484
 2962SOL    HW120514   0.867   2.438  12.548
 2962SOL    HW220515   0.746   2.349  12.537
 2963SOL     OW20516   4.487   2.849   3.608
 2963SOL    HW120517   4.562   2.867   3.551
 2963SOL    HW220518   4.424   2.917   3.587
 2964SOL     OW20519   4.728   3.032   0.387
 2964SOL    HW120520   4.731   2.946   0.345
 2964SOL    HW220521   0.037   3.046   0.419
 2965SOL     OW20522   1.940   4.225   2.406
 2965SOL    HW120523   2.025   4.194   2.374
 2965SOL    HW220524   1.960   4.265   2.491
 2966SOL     OW20525   0.978   2.158  24.046
 2966SOL    HW120526   1.032   2.185  23.971
 2966SOL    HW220527   0.988   2.063  24.049
 2967SOL     OW20528   4.052   2.625   8.346
 2967SOL    HW120529   4.086   2.564   8.412
 2967SOL    HW220530   4.119   2.693   8.340
 2968SOL     OW20531   4.050   4.335   6.337
 2968SOL    HW120532   4.130   4.309   6.382
 2968SOL    HW220533   4.066   4.315   6.245
 2969SOL     OW20534   1.960   0.250  21.768
 2969SOL    HW120535   1.881   0.222  21.815
 2969SOL    HW220536   1.978   0.338  21.800
 2970SOL     OW20537   1.909   3.503  28.203
 2970SOL    HW120538   1.881   3.413  28.219
 2970SOL    HW220539   1.877   3.552  28.279
 2971SOL     OW20540   2.712   1.805  18.425
 2971SOL    HW120541   2.801   1.776  18.405
 2971SOL    HW220542   2.722   1.867  18.498
 2972SOL     OW20543   1.930   0.584   7.264
 2972SOL    HW120544   2.020   0.552   7.258
 2972SOL    HW220545   1.920   0.640   7.187
 2973SOL     OW20546   1.437   4.715   2.717
 2973SOL    HW120547   1.525   4.688   2.690
 2973SOL    HW220548   1.451   0.006   2.779
 2974SOL     OW20549   4.289   0.306  27.301
 2974SOL    HW120550   4.335   0.322  27.383
 2974SOL    HW220551   4.199   0.333  27.318
 2975SOL     OW20552   1.493   0.208   8.826
 2975SOL    HW120553   1.398   0.196   8.823
 2975SOL    HW220554   1.527   0.141   8.767
 2976SOL     OW20555   2.840   2.199   3.088
 2976SOL    HW120556   2.869   2.113   3.058
 2976SOL    HW220557   2.868   2.259   3.019
 2977SOL     OW20558   2.072   1.052   8.641
 2977SOL    HW120559   2.094   1.142   8.617
 2977SOL    HW220560   1.989   1.059   8.688
 2978SOL     OW20561   3.081   2.482  23.770
 2978SOL    HW120562   3.160   2.435  23.796
 2978SOL    HW220563   3.018   2.413  23.749
 2979SOL     OW20564   4.736   1.162   2.259
 2979SOL    HW120565   4.681   1.240   2.253
 2979SOL    HW220566   0.045   1.194   2.244
 2980SOL     OW20567   1.282   1.205  21.740
 2980SOL    HW120568   1.304   1.178  21.651
 2980SOL    HW220569   1.280   1.301  21.737
 2981SOL     OW20570   3.261   3.049   5.346
 2981SOL    HW120571   3.295   2.997   5.418
 2981SOL    HW220572   3.331   3.111   5.326
 2982SOL     OW20573   2.756   2.214   4.243
 2982SOL    HW120574   2.739   2.157   4.168
 2982SOL    HW220575   2.820   2.277   4.210
 2983SOL     OW20576   0.408   3.313  22.497
 2983SOL    HW120577   0.353   3.307  22.419
 2983SOL    HW220578   0.362   3.374  22.555
 2984SOL     OW20579   0.034   4.234  25.807
 2984SOL    HW120580   0.044   4.140  25.823
 2984SOL    HW220581   4.737   4.259  25.858
 2985SOL     OW20582   4.489   4.513  22.042
 2985SOL    HW120583   4.511   4.600  22.076
 2985SOL    HW220584   4.571   4.481  22.004
 2986SOL     OW20585   1.940   4.351   1.667
 2986SOL    HW120586   1.855   4.309   1.681
 2986SOL    HW220587   1.924   4.415   1.598
 2987SOL     OW20588   3.502   3.786   6.207
 2987SOL    HW120589   3.515   3.765   6.299
 2987SOL    HW220590   3.457   3.709   6.171
 2988SOL     OW20591   4.679   0.195   9.774
 2988SOL    HW120592   4.655   0.288   9.780
 2988SOL    HW220593   4.774   0.194   9.786
 2989SOL     OW20594   1.345   3.286   0.403
 2989SOL    HW120595   1.350   3.288   0.307
 2989SOL    HW220596   1.380   3.371   0.430
 2990SOL     OW20597   1.452   0.562   3.108
 2990SOL    HW120598   1.386   0.610   3.059
 2990SOL    HW220599   1.531   0.567   3.054
 2991SOL     OW20600   2.661   1.245  26.456
 2991SOL    HW120601   2.631   1.332  26.429
 2991SOL    HW220602   2.583   1.190  26.452
 2992SOL     OW20603   3.993   0.537  22.194
 2992SOL    HW120604   3.968   0.546  22.286
 2992SOL    HW220605   3.916   0.498  22.152
 2993SOL     OW20606   0.503   0.014  24.767
 2993SOL    HW120607   0.503   0.046  24.857
 2993SOL    HW220608   0.495   4.699  24.775
 2994SOL     OW20609   0.666   4.620   5.534
 2994SOL    HW120610   0.619   4.686   5.482
 2994SOL    HW220611   0.755   4.654   5.541
 2995SOL     OW20612   2.439   2.645   5.547
 2995SOL    HW120613   2.430   2.734   5.580
 2995SOL    HW220614   2.359   2.630   5.497
 2996SOL     OW20615   4.608   1.078  20.832
 2996SOL    HW120616   4.558   1.108  20.756
 2996SOL    HW220617   4.545   1.078  20.904
 2997SOL     OW20618   4.013   1.135  11.147
 2997SOL    HW120619   3.957   1.193  11.095
 2997SOL    HW220620   4.040   1.189  11.222
 2998SOL     OW20621   4.056   1.341  16.479
 2998SOL    HW120622   3.992   1.409  16.461
 2998SOL    HW220623   4.037   1.273  16.415
 2999SOL     OW20624   0.840   3.933  22.172
 2999SOL    HW120625   0.847   3.907  22.264
 2999SOL    HW220626   0.931   3.938  22.142
 3000SOL     OW20627   2.925   0.151  18.244
 3000SOL    HW120628   2.949   0.123  18.156
 3000SOL    HW220629   2.909   0.070  18.292
 3001SOL     OW20630   2.591   2.212   6.930
 3001SOL    HW120631   2.634   2.127   6.917
 3001SOL    HW220632   2.549   2.204   7.016
 3002SOL     OW20633   4.444   3.481  27.345
 3002SOL    HW120634   4.540   3.483  27.339
 3002SOL    HW220635   4.417   3.569  27.318
 3003SOL     OW20636   1.099   2.427  27.476
 3003SOL    HW120637   1.106   2.508  27.426
 3003SOL    HW220638   1.065   2.363  27.414
 3004SOL     OW20639   1.454   0.536  10.510
 3004SOL    HW120640   1.371   0.579  10.529
 3004SOL    HW220641   1.516   0.608  10.497
 3005SOL     OW20642   0.091   1.884  11.708
 3005SOL    HW120643   0.004   1.894  11.669
 3005SOL    HW220644   0.078   1.900  11.801
 3006SOL     OW20645   3.709   2.453  20.053
 3006SOL    HW120646   3.751   2.512  19.991
 3006SOL    HW220647   3.710   2.368  20.009
 3007SOL     OW20648   2.847   0.509   1.091
 3007SOL    HW120649   2.826   0.602   1.081
 3007SOL    HW220650   2.804   0.483   1.172
 3008SOL     OW20651   3.336   0.312   1.647
 3008SOL    HW120652   3.346   0.394   1.696
 3008SOL    HW220653   3.385   0.326   1.566
 3009SOL     OW20654   4.709   0.435   2.616
 3009SOL    HW120655   0.016   0.408   2.643
 3009SOL    HW220656   4.713   0.531   2.615
 3010SOL     OW20657   3.096   3.248   5.118
 3010SOL    HW120658   3.114   3.163   5.158
 3010SOL    HW220659   3.116   3.311   5.187
 3011SOL     OW20660   1.786   3.270   0.833
 3011SOL    HW120661   1.839   3.235   0.761
 3011SOL    HW220662   1.696   3.251   0.808
 3012SOL     OW20663   1.605   0.210  22.976
 3012SOL    HW120664   1.598   0.171  22.889
 3012SOL    HW220665   1.574   0.141  23.035
 3013SOL     OW20666   2.957   2.264  10.254
 3013SOL    HW120667   3.016   2.287  10.326
 3013SOL    HW220668   3.011   2.214  10.193
 3014SOL     OW20669   2.558   3.131   4.913
 3014SOL    HW120670   2.652   3.139   4.896
 3014SOL    HW220671   2.529   3.221   4.930
 3015SOL     OW20672   0.504   2.922  27.757
 3015SOL    HW120673   0.437   2.960  27.814
 3015SOL    HW220674   0.584   2.970  27.779
 3016SOL     OW20675   3.740   4.777   2.236
 3016SOL    HW120676   3.668   0.033   2.185
 3016SOL    HW220677   3.811   0.059   2.225
 3017SOL     OW20678   0.839   0.768   2.327
 3017SOL    HW120679   0.874   0.807   2.247
 3017SOL    HW220680   0.756   0.813   2.341
 3018SOL     OW20681   2.228   3.164   4.918
 3018SOL    HW120682   2.281   3.131   4.846
 3018SOL    HW220683   2.278   3.142   4.997
 3019SOL     OW20684   1.722   0.691  26.355
 3019SOL    HW120685   1.698   0.669  26.265
 3019SOL    HW220686   1.642   0.726  26.393
 3020SOL     OW20687   1.474   0.559   9.280
 3020SOL    HW120688   1.536   0.632   9.286
 3020SOL    HW220689   1.515   0.498   9.219
 3021SOL     OW20690   2.786   1.166   9.571
 3021SOL    HW120691   2.782   1.259   9.550
 3021SOL    HW220692   2.852   1.160   9.641
 3022SOL     OW20693   0.328   3.388  23.833
 3022SOL    HW120694   0.362   3.457  23.776
 3022SOL    HW220695   0.241   3.369  23.799
 3023SOL     OW20696   4.346   4.354   2.370
 3023SOL    HW120697   4.392   4.288   2.318
 3023SOL    HW220698   4.255   4.346   2.343
 3024SOL     OW20699   2.662   3.979   5.279
 3024SOL    HW120700   2.749   4.004   5.311
 3024SOL    HW220701   2.663   3.883   5.279
 3025SOL     OW20702   4.393   4.014  21.897
 3025SOL    HW120703   4.358   3.972  21.975
 3025SOL    HW220704   4.316   4.048  21.851
 3026SOL     OW20705   3.382   0.949  27.053
 3026SOL    HW120706   3.376   0.977  26.962
 3026SOL    HW220707   3.473   0.923  27.065
 3027SOL     OW20708   2.329   2.656  20.191
 3027SOL    HW120709   2.337   2.716  20.265
 3027SOL    HW220710   2.393   2.688  20.128
 3028SOL     OW20711   0.753   0.511  26.295
 3028SOL    HW120712   0.823   0.573  26.273
 3028SOL    HW220713   0.732   0.529  26.387
 3029SOL     OW20714   0.063   1.565   9.536
 3029SOL    HW120715   0.096   1.635   9.592
 3029SOL    HW220716   4.753   1.590   9.517
 3030SOL     OW20717   1.952   0.836   9.082
 3030SOL    HW120718   1.921   0.746   9.074
 3030SOL    HW220719   2.026   0.841   9.021
 3031SOL     OW20720   1.540   4.636   8.357
 3031SOL    HW120721   1.488   4.598   8.286
 3031SOL    HW220722   1.630   4.635   8.324
 3032SOL     OW20723   0.862   1.670  19.325
 3032SOL    HW120724   0.900   1.748  19.284
 3032SOL    HW220725   0.768   1.685  19.322
 3033SOL     OW20726   2.601   1.535  26.444
 3033SOL    HW120727   2.528   1.483  26.478
 3033SOL    HW220728   2.665   1.537  26.515
 3034SOL     OW20729   1.512   4.001  21.062
 3034SOL    HW120730   1.572   4.064  21.022
 3034SOL    HW220731   1.545   3.991  21.151
 3035SOL     OW20732   3.225   3.924   6.860
 3035SOL    HW120733   3.292   3.913   6.792
 3035SOL    HW220734   3.273   3.962   6.934
 3036SOL     OW20735   3.984   4.564   0.597
 3036SOL    HW120736   4.048   4.507   0.554
 3036SOL    HW220737   3.917   4.504   0.630
 3037SOL     OW20738   2.916   1.082  28.169
 3037SOL    HW120739   2.971   1.115  28.098
 3037SOL    HW220740   2.966   1.009  28.206
 3038SOL     OW20741   2.827   1.404   6.562
 3038SOL    HW120742   2.787   1.326   6.600
 3038SOL    HW220743   2.901   1.424   6.619
 3039SOL     OW20744   3.302   1.229   4.600
 3039SOL    HW120745   3.305   1.170   4.524
 3039SOL    HW220746   3.391   1.264   4.607
 3040SOL     OW20747   3.327   3.483   4.195
 3040SOL    HW120748   3.350   3.568   4.158
 3040SOL    HW220749   3.277   3.504   4.274
 3041SOL     OW20750   0.877   2.555  21.157
 3041SOL    HW120751   0.961   2.566  21.113
 3041SOL    HW220752   0.812   2.570  21.088
 3042SOL     OW20753   2.138   4.503   3.935
 3042SOL    HW120754   2.068   4.477   3.994
 3042SOL    HW220755   2.170   4.586   3.970
 3043SOL     OW20756   2.871   0.129  27.043
 3043SOL    HW120757   2.886   0.127  26.948
 3043SOL    HW220758   2.781   0.160  27.053
 3044SOL     OW20759   2.703   0.291   1.537
 3044SOL    HW120760   2.723   0.370   1.587
 3044SOL    HW220761   2.629   0.251   1.582
 3045SOL     OW20762   4.435   1.317  23.631
 3045SOL    HW120763   4.411   1.246  23.571
 3045SOL    HW220764   4.360   1.377  23.628
 3046SOL     OW20765   1.056   1.047  19.277
 3046SOL    HW120766   1.055   1.115  19.209
 3046SOL    HW220767   1.017   1.089  19.354
 3047SOL     OW20768   1.369   1.007  21.097
 3047SOL    HW120769   1.412   0.987  21.014
 3047SOL    HW220770   1.357   1.102  21.096
 3048SOL     OW20771   3.415   4.040  22.184
 3048SOL    HW120772   3.368   3.994  22.253
 3048SOL    HW220773   3.507   4.026  22.205
 3049SOL     OW20774   4.554   4.153  28.277
 3049SOL    HW120775   4.591   4.195  28.199
 3049SOL    HW220776   4.461   4.177  28.275
 3050SOL     OW20777   0.490   3.582  22.663
 3050SOL    HW120778   0.562   3.606  22.722
 3050SOL    HW220779   0.508   3.630  22.582
 3051SOL     OW20780   0.542   0.058   5.439
 3051SOL    HW120781   0.583   0.099   5.515
 3051SOL    HW220782   0.448   0.074   5.450
 3052SOL     OW20783   4.147   4.733  10.507
 3052SOL    HW120784   4.170   4.641  10.520
 3052SOL    HW220785   4.064   4.731  10.460
 3053SOL     OW20786   4.541   2.852  18.270
 3053SOL    HW120787   4.542   2.887  18.359
 3053SOL    HW220788   4.454   2.875  18.236
 3054SOL     OW20789   2.254   3.840  18.748
 3054SOL    HW120790   2.246   3.749  18.777
 3054SOL    HW220791   2.294   3.834  18.661
 3055SOL     OW20792   0.307   1.500   9.186
 3055SOL    HW120793   0.399   1.477   9.202
 3055SOL    HW220794   0.258   1.427   9.223
 3056SOL     OW20795   2.731   3.982  26.587
 3056SOL    HW120796   2.774   3.903  26.618
 3056SOL    HW220797   2.720   4.036  26.665
 3057SOL     OW20798   1.815   3.373  18.574
 3057SOL    HW120799   1.883   3.425  18.617
 3057SOL    HW220800   1.799   3.419  18.491
 3058SOL     OW20801   3.223   2.349  27.050
 3058SOL    HW120802   3.203   2.294  26.975
 3058SOL    HW220803   3.224   2.289  27.124
 3059SOL     OW20804   4.354   3.811   8.449
 3059SOL    HW120805   4.445   3.782   8.460
 3059SOL    HW220806   4.309   3.781   8.528
 3060SOL     OW20807   1.672   3.736  20.116
 3060SOL    HW120808   1.742   3.746  20.051
 3060SOL    HW220809   1.600   3.695  20.067
 3061SOL     OW20810   3.327   2.204  22.932
 3061SOL    HW120811   3.377   2.243  22.860
 3061SOL    HW220812   3.350   2.256  23.009
 3062SOL     OW20813   3.599   2.196  20.337
 3062SOL    HW120814   3.517   2.219  20.294
 3062SOL    HW220815   3.646   2.279  20.345
 3063SOL     OW20816   2.119   3.093   8.629
 3063SOL    HW120817   2.167   3.168   8.662
 3063SOL    HW220818   2.164   3.017   8.666
 3064SOL     OW20819   0.440   4.294  23.301
 3064SOL    HW120820   0.469   4.205  23.320
 3064SOL    HW220821   0.512   4.349  23.331
 3065SOL     OW20822   1.638   2.473   9.651
 3065SOL    HW120823   1.588   2.472   9.570
 3065SOL    HW220824   1.613   2.554   9.695
 3066SOL     OW20825   3.028   1.812   9.571
 3066SOL    HW120826   2.985   1.831   9.655
 3066SOL    HW220827   3.008   1.720   9.555
 3067SOL     OW20828   1.643   0.754   7.847
 3067SOL    HW120829   1.630   0.661   7.867
 3067SOL    HW220830   1.682   0.790   7.927
 3068SOL     OW20831   0.694   3.593   5.269
 3068SOL    HW120832   0.749   3.605   5.346
 3068SOL    HW220833   0.627   3.530   5.296
 3069SOL     OW20834   2.544   3.876   1.911
 3069SOL    HW120835   2.552   3.948   1.973
 3069SOL    HW220836   2.625   3.826   1.923
 3070SOL     OW20837   1.961   1.303   3.147
 3070SOL    HW120838   1.901   1.297   3.222
 3070SOL    HW220839   2.044   1.268   3.180
 3071SOL     OW20840   2.698   2.073  27.304
 3071SOL    HW120841   2.751   2.006  27.262
 3071SOL    HW220842   2.621   2.026  27.337
 3072SOL     OW20843   2.263   1.158   6.278
 3072SOL    HW120844   2.220   1.207   6.207
 3072SOL    HW220845   2.328   1.219   6.313
 3073SOL     OW20846   1.078   0.226  22.158
 3073SOL    HW120847   1.033   0.250  22.077
 3073SOL    HW220848   1.081   0.130  22.156
 3074SOL     OW20849   0.979   2.940  26.825
 3074SOL    HW120850   0.922   2.945  26.901
 3074SOL    HW220851   0.923   2.905  26.755
 3075SOL     OW20852   2.543   2.697   7.253
 3075SOL    HW120853   2.492   2.671   7.329
 3075SOL    HW220854   2.560   2.790   7.266
 3076SOL     OW20855   2.106   0.389  26.364
 3076SOL    HW120856   2.097   0.483  26.376
 3076SOL    HW220857   2.017   0.355  26.373
 3077SOL     OW20858   0.915   1.742   4.128
 3077SOL    HW120859   0.841   1.736   4.068
 3077SOL    HW220860   0.992   1.736   4.072
 3078SOL     OW20861   0.236   1.856   8.727
 3078SOL    HW120862   0.208   1.884   8.814
 3078SOL    HW220863   0.157   1.821   8.686
 3079SOL     OW20864   2.009   0.635  17.581
 3079SOL    HW120865   1.943   0.578  17.542
 3079SOL    HW220866   1.960   0.694  17.638
 3080SOL     OW20867   2.337   2.078  20.999
 3080SOL    HW120868   2.319   2.136  21.073
 3080SOL    HW220869   2.336   1.990  21.036
 3081SOL     OW20870   1.060   4.441  27.923
 3081SOL    HW120871   1.071   4.364  27.979
 3081SOL    HW220872   1.146   4.454  27.882
 3082SOL     OW20873   4.465   3.504   5.245
 3082SOL    HW120874   4.415   3.470   5.319
 3082SOL    HW220875   4.466   3.599   5.259
 3083SOL     OW20876   2.404   3.699  27.798
 3083SOL    HW120877   2.402   3.785  27.840
 3083SOL    HW220878   2.420   3.717  27.706
 3084SOL     OW20879   4.660   3.831  18.688
 3084SOL    HW120880   4.572   3.824  18.650
 3084SOL    HW220881   4.719   3.806  18.617
 3085SOL     OW20882   2.490   0.124   7.150
 3085SOL    HW120883   2.556   0.059   7.174
 3085SOL    HW220884   2.541   0.200   7.122
 3086SOL     OW20885   4.256   4.605   6.223
 3086SOL    HW120886   4.304   4.688   6.222
 3086SOL    HW220887   4.187   4.617   6.157
 3087SOL     OW20888   3.951   3.262  24.893
 3087SOL    HW120889   3.983   3.270  24.803
 3087SOL    HW220890   3.867   3.308  24.892
 3088SOL     OW20891   4.246   3.759   5.144
 3088SOL    HW120892   4.342   3.760   5.149
 3088SOL    HW220893   4.227   3.735   5.053
 3089SOL     OW20894   4.546   4.266  24.070
 3089SOL    HW120895   4.602   4.289  23.996
 3089SOL    HW220896   4.536   4.171  24.065
 3090SOL     OW20897   3.252   1.627  18.064
 3090SOL    HW120898   3.183   1.581  18.112
 3090SOL    HW220899   3.205   1.679  17.999
 3091SOL     OW20900   0.567   1.881   1.810
 3091SOL    HW120901   0.641   1.872   1.751
 3091SOL    HW220902   0.491   1.890   1.752
 3092SOL     OW20903   3.098   0.616  24.725
 3092SOL    HW120904   3.088   0.588  24.634
 3092SOL    HW220905   3.047   0.552  24.775
 3093SOL     OW20906   1.926   4.041   7.851
 3093SOL    HW120907   1.850   4.044   7.909
 3093SOL    HW220908   1.888   4.032   7.763
 3094SOL     OW20909   1.959   3.869   4.932
 3094SOL    HW120910   2.009   3.806   4.984
 3094SOL    HW220911   1.931   3.820   4.855
 3095SOL     OW20912   2.379   4.324   4.325
 3095SOL    HW120913   2.340   4.245   4.289
 3095SOL    HW220914   2.391   4.305   4.418
 3096SOL     OW20915   2.305   0.752  28.464
 3096SOL    HW120916   2.370   0.785   0.007
 3096SOL    HW220917   2.355   0.700  28.402
 3097SOL     OW20918   3.210   2.822  26.049
 3097SOL    HW120919   3.160   2.901  26.067
 3097SOL    HW220920   3.144   2.753  26.038
 3098SOL     OW20921   4.135   2.835  28.076
 3098SOL    HW120922   4.170   2.869  27.994
 3098SOL    HW220923   4.044   2.814  28.056
 3099SOL     OW20924   0.544   4.371   5.950
 3099SOL    HW120925   0.500   4.424   5.883
 3099SOL    HW220926   0.577   4.435   6.013
 3100SOL     OW20927   2.174   4.637  24.025
 3100SOL    HW120928   2.252   4.608  23.977
 3100SOL    HW220929   2.148   4.718  23.981
 3101SOL     OW20930   4.331   1.630  28.023
 3101SOL    HW120931   4.373   1.556  27.979
 3101SOL    HW220932   4.237   1.615  28.010
 3102SOL     OW20933   2.386   0.789  22.024
 3102SOL    HW120934   2.395   0.871  21.975
 3102SOL    HW220935   2.399   0.720  21.959
 3103SOL     OW20936   3.369   3.832  22.762
 3103SOL    HW120937   3.417   3.760  22.803
 3103SOL    HW220938   3.327   3.793  22.685
 3104SOL     OW20939   3.852   1.911  17.639
 3104SOL    HW120940   3.833   1.966  17.563
 3104SOL    HW220941   3.837   1.821  17.608
 3105SOL     OW20942   0.147   1.250  25.682
 3105SOL    HW120943   0.168   1.319  25.620
 3105SOL    HW220944   0.159   1.169  25.633
 3106SOL     OW20945   4.522   2.098  19.605
 3106SOL    HW120946   4.583   2.024  19.608
 3106SOL    HW220947   4.574   2.173  19.635
 3107SOL     OW20948   1.933   0.342   2.274
 3107SOL    HW120949   1.841   0.348   2.300
 3107SOL    HW220950   1.977   0.413   2.322
 3108SOL     OW20951   3.965   3.878   3.141
 3108SOL    HW120952   4.027   3.920   3.081
 3108SOL    HW220953   3.928   3.950   3.192
 3109SOL     OW20954   2.898   4.133   5.625
 3109SOL    HW120955   2.864   4.107   5.540
 3109SOL    HW220956   2.842   4.089   5.688
 3110SOL     OW20957   0.183   0.976   3.389
 3110SOL    HW120958   0.106   0.946   3.341
 3110SOL    HW220959   0.176   1.071   3.388
 3111SOL     OW20960   1.739   0.839   8.717
 3111SOL    HW120961   1.683   0.898   8.769
 3111SOL    HW220962   1.678   0.788   8.665
 3112SOL     OW20963   1.804   4.288   0.740
 3112SOL    HW120964   1.742   4.221   0.711
 3112SOL    HW220965   1.834   4.257   0.826
 3113SOL     OW20966   1.072   4.101  21.859
 3113SOL    HW120967   0.979   4.094  21.837
 3113SOL    HW220968   1.118   4.092  21.775
 3114SOL     OW20969   3.224   2.219   4.255
 3114SOL    HW120970   3.151   2.178   4.300
 3114SOL    HW220971   3.261   2.279   4.319
 3115SOL     OW20972   2.620   2.625   7.924
 3115SOL    HW120973   2.544   2.673   7.891
 3115SOL    HW220974   2.627   2.651   8.016
 3116SOL     OW20975   2.184   4.064  23.292
 3116SOL    HW120976   2.227   4.011  23.225
 3116SOL    HW220977   2.242   4.139  23.305
 3117SOL     OW20978   3.492   1.987   4.403
 3117SOL    HW120979   3.490   1.949   4.315
 3117SOL    HW220980   3.451   1.921   4.458
 3118SOL     OW20981   1.580   1.353  20.538
 3118SOL    HW120982   1.592   1.262  20.511
 3118SOL    HW220983   1.663   1.395  20.516
 3119SOL     OW20984   0.524   4.202  24.408
 3119SOL    HW120985   0.533   4.187  24.314
 3119SOL    HW220986   0.607   4.173  24.446
 3120SOL     OW20987   2.465   1.170   6.661
 3120SOL    HW120988   2.423   1.163   6.575
 3120SOL    HW220989   2.557   1.185   6.641
 3121SOL     OW20990   1.560   3.495   7.919
 3121SOL    HW120991   1.597   3.407   7.923
 3121SOL    HW220992   1.528   3.511   8.008
 3122SOL     OW20993   2.941   2.134   9.614
 3122SOL    HW120994   2.907   2.096   9.695
 3122SOL    HW220995   2.979   2.060   9.567
 3123SOL     OW20996   1.751   2.499  20.060
 3123SOL    HW120997   1.696   2.422  20.072
 3123SOL    HW220998   1.831   2.481  20.110
 3124SOL     OW20999   4.739   3.188  27.778
 3124SOL    HW121000   0.033   3.218  27.726
 3124SOL    HW221001   4.745   3.238  27.859
 3125SOL     OW21002   0.111   4.445   8.859
 3125SOL    HW121003   0.034   4.463   8.805
 3125SOL    HW221004   0.086   4.473   8.947
 3126SOL     OW21005   0.851   2.920   6.441
 3126SOL    HW121006   0.817   2.849   6.496
 3126SOL    HW221007   0.911   2.876   6.380
 3127SOL     OW21008   2.689   2.259  23.933
 3127SOL    HW121009   2.667   2.258  23.840
 3127SOL    HW221010   2.608   2.285  23.977
 3128SOL     OW21011   0.014   0.804   6.350
 3128SOL    HW121012   0.074   0.780   6.421
 3128SOL    HW221013   4.719   0.842   6.395
 3129SOL     OW21014   2.403   1.098   8.731
 3129SOL    HW121015   2.392   1.008   8.761
 3129SOL    HW221016   2.335   1.147   8.777
 3130SOL     OW21017   1.242   2.175  24.279
 3130SOL    HW121018   1.155   2.177  24.239
 3130SOL    HW221019   1.258   2.083  24.299
 3131SOL     OW21020   3.697   2.016   0.370
 3131SOL    HW121021   3.737   1.993   0.286
 3131SOL    HW221022   3.771   2.027   0.429
 3132SOL     OW21023   3.989   0.753   0.831
 3132SOL    HW121024   3.921   0.753   0.764
 3132SOL    HW221025   3.953   0.699   0.902
 3133SOL     OW21026   2.270   1.644   8.080
 3133SOL    HW121027   2.192   1.591   8.061
 3133SOL    HW221028   2.278   1.642   8.175
 3134SOL     OW21029   2.676   2.774  23.915
 3134SOL    HW121030   2.629   2.701  23.876
 3134SOL    HW221031   2.671   2.844  23.850
 3135SOL     OW21032   2.836   2.767  22.555
 3135SOL    HW121033   2.892   2.692  22.535
 3135SOL    HW221034   2.821   2.809  22.470
 3136SOL     OW21035   1.940   2.732   4.332
 3136SOL    HW121036   1.963   2.816   4.372
 3136SOL    HW221037   1.978   2.666   4.390
 3137SOL     OW21038   0.178   3.530  21.434
 3137SOL    HW121039   0.171   3.445  21.477
 3137SOL    HW221040   0.121   3.588  21.485
 3138SOL     OW21041   4.065   0.377  24.546
 3138SOL    HW121042   3.974   0.351  24.530
 3138SOL    HW221043   4.117   0.314  24.496
 3139SOL     OW21044   0.409   4.242   3.144
 3139SOL    HW121045   0.445   4.213   3.228
 3139SOL    HW221046   0.428   4.171   3.083
 3140SOL     OW21047   1.826   3.732   5.215
 3140SOL    HW121048   1.856   3.805   5.269
 3140SOL    HW221049   1.895   3.721   5.150
 3141SOL     OW21050   2.440   2.274   1.669
 3141SOL    HW121051   2.445   2.288   1.764
 3141SOL    HW221052   2.530   2.253   1.643
 3142SOL     OW21053   4.575   4.747  22.404
 3142SOL    HW121054   4.581   4.652  22.417
 3142SOL    HW221055   4.661   4.773  22.371
 3143SOL     OW21056   1.842   0.716   5.393
 3143SOL    HW121057   1.820   0.670   5.474
 3143SOL    HW221058   1.778   0.683   5.329
 3144SOL     OW21059   4.091   4.595   4.319
 3144SOL    HW121060   4.144   4.620   4.395
 3144SOL    HW221061   4.153   4.551   4.260
 3145SOL     OW21062   4.687   2.756  20.971
 3145SOL    HW121063   4.631   2.764  20.894
 3145SOL    HW221064   4.748   2.830  20.965
 3146SOL     OW21065   1.770   0.668   0.233
 3146SOL    HW121066   1.713   0.697   0.162
 3146SOL    HW221067   1.803   0.583   0.204
 3147SOL     OW21068   4.418   3.378   2.471
 3147SOL    HW121069   4.399   3.328   2.550
 3147SOL    HW221070   4.454   3.461   2.503
 3148SOL     OW21071   2.518   0.960   7.292
 3148SOL    HW121072   2.517   0.866   7.276
 3148SOL    HW221073   2.463   0.972   7.370
 3149SOL     OW21074   4.611   4.588  24.707
 3149SOL    HW121075   4.612   4.502  24.748
 3149SOL    HW221076   4.527   4.626  24.733
 3150SOL     OW21077   3.085   1.019   0.862
 3150SOL    HW121078   2.991   1.024   0.877
 3150SOL    HW221079   3.094   0.965   0.784
 3151SOL     OW21080   1.839   3.074  22.696
 3151SOL    HW121081   1.850   2.980  22.709
 3151SOL    HW221082   1.835   3.084  22.601
 3152SOL     OW21083   2.054   2.810  25.842
 3152SOL    HW121084   2.108   2.857  25.779
 3152SOL    HW221085   1.970   2.800  25.798
 3153SOL     OW21086   1.575   1.122   9.858
 3153SOL    HW121087   1.541   1.138   9.770
 3153SOL    HW221088   1.585   1.027   9.864
 3154SOL     OW21089   0.379   3.716  10.887
 3154SOL    HW121090   0.299   3.751  10.925
 3154SOL    HW221091   0.354   3.629  10.855
 3155SOL     OW21092   4.568   1.072  18.551
 3155SOL    HW121093   4.601   1.007  18.489
 3155SOL    HW221094   4.638   1.137  18.557
 3156SOL     OW21095   3.250   2.600   5.353
 3156SOL    HW121096   3.344   2.607   5.335
 3156SOL    HW221097   3.240   2.640   5.439
 3157SOL     OW21098   3.932   2.859   3.687
 3157SOL    HW121099   3.931   2.831   3.595
 3157SOL    HW221100   3.985   2.939   3.687
 3158SOL     OW21101   3.031   3.724   5.571
 3158SOL    HW121102   3.050   3.642   5.617
 3158SOL    HW221103   3.109   3.778   5.585
 3159SOL     OW21104   4.642   3.935  23.630
 3159SOL    HW121105   4.610   4.002  23.570
 3159SOL    HW221106   4.711   3.979  23.680
 3160SOL     OW21107   3.306   1.293   3.047
 3160SOL    HW121108   3.315   1.331   3.134
 3160SOL    HW221109   3.240   1.347   3.004
 3161SOL     OW21110   4.123   3.467   1.065
 3161SOL    HW121111   4.080   3.516   1.135
 3161SOL    HW221112   4.135   3.531   0.995
 3162SOL     OW21113   2.537   0.163   2.356
 3162SOL    HW121114   2.612   0.103   2.350
 3162SOL    HW221115   2.545   0.203   2.442
 3163SOL     OW21116   4.222   3.875  28.322
 3163SOL    HW121117   4.153   3.934  28.291
 3163SOL    HW221118   4.280   3.932  28.373
 3164SOL     OW21119   1.171   4.180   9.878
 3164SOL    HW121120   1.132   4.096   9.902
 3164SOL    HW221121   1.108   4.220   9.818
 3165SOL     OW21122   0.752   4.604   2.476
 3165SOL    HW121123   0.828   4.640   2.429
 3165SOL    HW221124   0.685   4.593   2.408
 3166SOL     OW21125   2.309   0.972   8.091
 3166SOL    HW121126   2.370   1.013   8.030
 3166SOL    HW221127   2.224   1.008   8.067
 3167SOL     OW21128   3.047   2.632  18.572
 3167SOL    HW121129   2.956   2.630  18.543
 3167SOL    HW221130   3.044   2.667  18.661
 3168SOL     OW21131   4.705   2.555   4.495
 3168SOL    HW121132   4.636   2.561   4.429
 3168SOL    HW221133   4.660   2.525   4.574
 3169SOL     OW21134   3.547   0.790   5.282
 3169SOL    HW121135   3.500   0.824   5.358
 3169SOL    HW221136   3.538   0.858   5.215
 3170SOL     OW21137   4.111   1.056  17.320
 3170SOL    HW121138   4.055   1.133  17.317
 3170SOL    HW221139   4.090   1.007  17.240
 3171SOL     OW21140   4.428   0.055   0.159
 3171SOL    HW121141   4.402   0.081   0.070
 3171SOL    HW221142   4.440   0.138   0.205
 3172SOL     OW21143   3.353   3.129  20.390
 3172SOL    HW121144   3.331   3.055  20.333
 3172SOL    HW221145   3.446   3.145  20.374
 3173SOL     OW21146   4.084   0.157  21.514
 3173SOL    HW121147   4.157   0.114  21.470
 3173SOL    HW221148   4.125   0.227  21.565
 3174SOL     OW21149   2.865   4.353  23.568
 3174SOL    HW121150   2.938   4.403  23.604
 3174SOL    HW221151   2.865   4.271  23.618
 3175SOL     OW21152   0.151   2.288  28.322
 3175SOL    HW121153   0.065   2.299  28.362
 3175SOL    HW221154   0.169   2.194  28.331
 3176SOL     OW21155   0.002   0.666  25.908
 3176SOL    HW121156   0.055   0.728  25.859
 3176SOL    HW221157   4.744   0.718  25.979
 3177SOL     OW21158   0.382   3.814  25.534
 3177SOL    HW121159   0.414   3.725  25.518
 3177SOL    HW221160   0.350   3.812  25.624
 3178SOL     OW21161   0.556   1.133   8.999
 3178SOL    HW121162   0.587   1.063   8.942
 3178SOL    HW221163   0.626   1.145   9.063
 3179SOL     OW21164   1.423   2.202   1.121
 3179SOL    HW121165   1.388   2.240   1.202
 3179SOL    HW221166   1.364   2.233   1.052
 3180SOL     OW21167   4.179   1.529   1.352
 3180SOL    HW121168   4.104   1.479   1.320
 3180SOL    HW221169   4.244   1.463   1.375
 3181SOL     OW21170   1.738   4.709  24.244
 3181SOL    HW121171   1.830   4.683  24.247
 3181SOL    HW221172   1.726   4.747  24.157
 3182SOL     OW21173   4.085   2.673   5.483
 3182SOL    HW121174   4.091   2.740   5.552
 3182SOL    HW221175   3.999   2.633   5.496
 3183SOL     OW21176   1.506   0.586   3.868
 3183SOL    HW121177   1.506   0.513   3.930
 3183SOL    HW221178   1.415   0.615   3.864
 3184SOL     OW21179   0.129   0.127  22.996
 3184SOL    HW121180   0.068   0.201  22.996
 3184SOL    HW221181   0.074   0.051  22.976
 3185SOL     OW21182   1.246   3.811  24.156
 3185SOL    HW121183   1.256   3.844  24.245
 3185SOL    HW221184   1.195   3.731  24.165
 3186SOL     OW21185   4.715   4.596  10.608
 3186SOL    HW121186   4.664   4.667  10.648
 3186SOL    HW221187   0.013   4.589  10.663
 3187SOL     OW21188   4.623   4.093  26.646
 3187SOL    HW121189   4.655   4.182  26.662
 3187SOL    HW221190   4.537   4.091  26.688
 3188SOL     OW21191   4.449   0.161   5.268
 3188SOL    HW121192   4.402   0.217   5.330
 3188SOL    HW221193   4.508   0.221   5.222
 3189SOL     OW21194   1.146   3.066  23.492
 3189SOL    HW121195   1.101   3.122  23.555
 3189SOL    HW221196   1.106   3.087  23.408
 3190SOL     OW21197   1.158   4.408  24.746
 3190SOL    HW121198   1.097   4.336  24.761
 3190SOL    HW221199   1.148   4.428  24.653
 3191SOL     OW21200   1.867   2.318   6.206
 3191SOL    HW121201   1.948   2.289   6.165
 3191SOL    HW221202   1.820   2.364   6.136
 3192SOL     OW21203   4.287   0.427   0.767
 3192SOL    HW121204   4.239   0.395   0.844
 3192SOL    HW221205   4.222   0.477   0.718
 3193SOL     OW21206   1.635   3.585  21.746
 3193SOL    HW121207   1.579   3.539  21.684
 3193SOL    HW221208   1.592   3.669  21.761
 3194SOL     OW21209   3.835   4.044   0.592
 3194SOL    HW121210   3.857   4.022   0.502
 3194SOL    HW221211   3.739   4.039   0.596
 3195SOL     OW21212   2.230   0.009   7.156
 3195SOL    HW121213   2.160   0.074   7.151
 3195SOL    HW221214   2.309   0.056   7.129
 3196SOL     OW21215   0.707   2.080   1.572
 3196SOL    HW121216   0.713   1.985   1.564
 3196SOL    HW221217   0.621   2.102   1.536
 3197SOL     OW21218   2.272   4.017  19.231
 3197SOL    HW121219   2.213   4.021  19.156
 3197SOL    HW221220   2.258   3.929  19.267
 3198SOL     OW21221   3.455   4.016  25.223
 3198SOL    HW121222   3.469   3.943  25.162
 3198SOL    HW221223   3.366   4.046  25.205
 3199SOL     OW21224   2.992   4.514  27.797
 3199SOL    HW121225   2.984   4.588  27.736
 3199SOL    HW221226   3.016   4.554  27.880
 3200SOL     OW21227   3.509   1.434   4.586
 3200SOL    HW121228   3.569   1.371   4.546
 3200SOL    HW221229   3.507   1.507   4.525
 3201SOL     OW21230   0.253   0.149   0.853
 3201SOL    HW121231   0.209   0.184   0.931
 3201SOL    HW221232   0.242   0.217   0.787
 3202SOL     OW21233   2.543   2.075   9.186
 3202SOL    HW121234   2.579   1.991   9.215
 3202SOL    HW221235   2.577   2.087   9.097
 3203SOL     OW21236   4.052   3.265   8.144
 3203SOL    HW121237   3.980   3.318   8.179
 3203SOL    HW221238   4.130   3.320   8.155
 3204SOL     OW21239   1.260   0.246  18.637
 3204SOL    HW121240   1.199   0.189  18.684
 3204SOL    HW221241   1.241   0.334  18.669
 3205SOL     OW21242   4.696   2.912   1.911
 3205SOL    HW121243   4.778   2.961   1.907
 3205SOL    HW221244   4.694   2.861   1.830
 3206SOL     OW21245   3.288   0.624   8.715
 3206SOL    HW121246   3.233   0.570   8.658
 3206SOL    HW221247   3.262   0.714   8.694
 3207SOL     OW21248   4.495   0.901  16.996
 3207SOL    HW121249   4.422   0.859  17.041
 3207SOL    HW221250   4.532   0.832  16.942
 3208SOL     OW21251   3.007   4.410  24.165
 3208SOL    HW121252   2.993   4.382  24.074
 3208SOL    HW221253   3.008   4.328  24.215
 3209SOL     OW21254   2.506   1.818  21.705
 3209SOL    HW121255   2.548   1.900  21.678
 3209SOL    HW221256   2.414   1.841  21.716
 3210SOL     OW21257   2.831   0.363  22.426
 3210SOL    HW121258   2.736   0.373  22.436
 3210SOL    HW221259   2.864   0.453  22.424
 3211SOL     OW21260   0.020   3.939  28.295
 3211SOL    HW121261   4.749   3.859  28.306
 3211SOL    HW221262   4.764   3.980  28.217
 3212SOL     OW21263   3.854   3.305   5.756
 3212SOL    HW121264   3.835   3.262   5.839
 3212SOL    HW221265   3.852   3.398   5.777
 3213SOL     OW21266   3.026   1.873   2.818
 3213SOL    HW121267   2.983   1.793   2.786
 3213SOL    HW221268   3.004   1.877   2.911
 3214SOL     OW21269   2.123   2.287   3.500
 3214SOL    HW121270   2.144   2.248   3.415
 3214SOL    HW221271   2.202   2.273   3.552
 3215SOL     OW21272   3.769   2.151  23.129
 3215SOL    HW121273   3.790   2.082  23.192
 3215SOL    HW221274   3.676   2.139  23.110
 3216SOL     OW21275   1.723   0.791  24.563
 3216SOL    HW121276   1.779   0.759  24.492
 3216SOL    HW221277   1.644   0.823  24.519
 3217SOL     OW21278   2.300   3.526   5.829
 3217SOL    HW121279   2.229   3.464   5.846
 3217SOL    HW221280   2.255   3.607   5.804
 3218SOL     OW21281   3.876   3.296  20.638
 3218SOL    HW121282   3.794   3.249  20.624
 3218SOL    HW221283   3.850   3.386  20.657
 3219SOL     OW21284   4.397   1.203   5.958
 3219SOL    HW121285   4.324   1.265   5.958
 3219SOL    HW221286   4.463   1.244   5.902
 3220SOL     OW21287   4.522   4.416  21.056
 3220SOL    HW121288   4.457   4.398  20.988
 3220SOL    HW221289   4.471   4.421  21.137
 3221SOL     OW21290   0.439   0.859  21.026
 3221SOL    HW121291   0.519   0.867  21.078
 3221SOL    HW221292   0.438   0.937  20.971
 3222SOL     OW21293   1.331   2.338   6.816
 3222SOL    HW121294   1.408   2.395   6.806
 3222SOL    HW221295   1.361   2.265   6.870
 3223SOL     OW21296   3.649   4.657   6.369
 3223SOL    HW121297   3.660   4.721   6.298
 3223SOL    HW221298   3.663   4.707   6.449
 3224SOL     OW21299   3.651   3.287  28.297
 3224SOL    HW121300   3.718   3.308  28.362
 3224SOL    HW221301   3.576   3.257  28.348
 3225SOL     OW21302   0.639   0.525  18.068
 3225SOL    HW121303   0.624   0.540  17.975
 3225SOL    HW221304   0.715   0.579  18.089
 3226SOL     OW21305   0.432   0.770   1.601
 3226SOL    HW121306   0.397   0.850   1.562
 3226SOL    HW221307   0.524   0.770   1.576
 3227SOL     OW21308   0.950   3.925   5.072
 3227SOL    HW121309   1.040   3.924   5.104
 3227SOL    HW221310   0.923   3.833   5.076
 3228SOL     OW21311   0.212   1.312  26.448
 3228SOL    HW121312   0.122   1.282  26.438
 3228SOL    HW221313   0.264   1.247  26.401
 3229SOL     OW21314   3.613   3.704   1.811
 3229SOL    HW121315   3.703   3.721   1.837
 3229SOL    HW221316   3.599   3.612   1.832
 3230SOL     OW21317   2.771   0.580   2.537
 3230SOL    HW121318   2.835   0.647   2.559
 3230SOL    HW221319   2.809   0.535   2.461
 3231SOL     OW21320   3.428   2.190   3.089
 3231SOL    HW121321   3.461   2.102   3.073
 3231SOL    HW221322   3.404   2.190   3.182
 3232SOL     OW21323   4.281   1.399   2.188
 3232SOL    HW121324   4.288   1.345   2.110
 3232SOL    HW221325   4.270   1.336   2.260
 3233SOL     OW21326   3.109   0.854   8.712
 3233SOL    HW121327   3.116   0.895   8.798
 3233SOL    HW221328   3.045   0.784   8.724
 3234SOL     OW21329   2.561   0.442   2.197
 3234SOL    HW121330   2.636   0.404   2.151
 3234SOL    HW221331   2.500   0.369   2.208
 3235SOL     OW21332   4.050   4.698   0.095
 3235SOL    HW121333   4.055   4.682   0.001
 3235SOL    HW221334   4.045   0.013   0.103
 3236SOL     OW21335   0.271   2.915  21.356
 3236SOL    HW121336   0.225   2.844  21.402
 3236SOL    HW221337   0.207   2.986  21.352
 3237SOL     OW21338   3.941   3.900  22.366
 3237SOL    HW121339   3.938   3.857  22.451
 3237SOL    HW221340   4.010   3.966  22.374
 3238SOL     OW21341   0.318   0.069   6.744
 3238SOL    HW121342   0.330   0.093   6.652
 3238SOL    HW221343   0.229   0.097   6.764
 3239SOL     OW21344   2.428   0.137   6.223
 3239SOL    HW121345   2.508   0.188   6.239
 3239SOL    HW221346   2.453   0.074   6.155
 3240SOL     OW21347   4.631   1.726  24.387
 3240SOL    HW121348   4.570   1.780  24.338
 3240SOL    HW221349   4.588   1.641  24.393
 3241SOL     OW21350   2.743   2.562  20.456
 3241SOL    HW121351   2.672   2.499  20.463
 3241SOL    HW221352   2.722   2.614  20.378
 3242SOL     OW21353   3.366   2.934  24.191
 3242SOL    HW121354   3.360   2.839  24.186
 3242SOL    HW221355   3.456   2.954  24.166
 3243SOL     OW21356   2.301   1.273   2.576
 3243SOL    HW121357   2.275   1.196   2.626
 3243SOL    HW221358   2.227   1.291   2.518
 3244SOL     OW21359   3.559   2.655  23.526
 3244SOL    HW121360   3.565   2.625  23.435
 3244SOL    HW221361   3.478   2.617  23.559
 3245SOL     OW21362   2.842   1.812  20.638
 3245SOL    HW121363   2.815   1.722  20.622
 3245SOL    HW221364   2.935   1.806  20.659
 3246SOL     OW21365   3.754   2.117  22.148
 3246SOL    HW121366   3.732   2.035  22.104
 3246SOL    HW221367   3.774   2.178  22.077
 3247SOL     OW21368   1.676   1.658   1.616
 3247SOL    HW121369   1.623   1.601   1.671
 3247SOL    HW221370   1.761   1.615   1.611
 3248SOL     OW21371   0.267   0.541  27.330
 3248SOL    HW121372   0.293   0.449  27.321
 3248SOL    HW221373   0.222   0.545  27.414
 3249SOL     OW21374   2.455   0.978  19.890
 3249SOL    HW121375   2.457   0.885  19.866
 3249SOL    HW221376   2.512   1.020  19.826
 3250SOL     OW21377   0.733   2.548  24.350
 3250SOL    HW121378   0.671   2.490  24.395
 3250SOL    HW221379   0.679   2.621  24.319
 3251SOL     OW21380   1.814   2.542  28.413
 3251SOL    HW121381   1.770   2.523  28.330
 3251SOL    HW221382   1.823   2.637  28.414
 3252SOL     OW21383   2.492   3.792  23.300
 3252SOL    HW121384   2.576   3.826  23.331
 3252SOL    HW221385   2.511   3.702  23.274
 3253SOL     OW21386   3.484   0.087   3.744
 3253SOL    HW121387   3.538   0.164   3.727
 3253SOL    HW221388   3.546   0.014   3.747
 3254SOL     OW21389   3.834   0.860  18.751
 3254SOL    HW121390   3.921   0.893  18.774
 3254SOL    HW221391   3.841   0.838  18.658
 3255SOL     OW21392   2.394   0.706   2.503
 3255SOL    HW121393   2.386   0.741   2.414
 3255SOL    HW221394   2.480   0.734   2.533
 3256SOL     OW21395   3.570   3.461   7.537
 3256SOL    HW121396   3.557   3.549   7.501
 3256SOL    HW221397   3.486   3.440   7.579
 3257SOL     OW21398   3.454   4.068   8.786
 3257SOL    HW121399   3.515   4.110   8.725
 3257SOL    HW221400   3.495   4.078   8.872
 3258SOL     OW21401   3.697   2.336  28.298
 3258SOL    HW121402   3.765   2.403  28.292
 3258SOL    HW221403   3.629   2.376  28.352
 3259SOL     OW21404   3.490   3.436  26.942
 3259SOL    HW121405   3.561   3.476  26.992
 3259SOL    HW221406   3.411   3.480  26.974
 3260SOL     OW21407   0.736   4.681  25.789
 3260SOL    HW121408   0.689   4.598  25.790
 3260SOL    HW221409   0.825   4.659  25.815
 3261SOL     OW21410   2.901   3.684  25.992
 3261SOL    HW121411   2.901   3.725  26.079
 3261SOL    HW221412   2.986   3.641  25.987
 3262SOL     OW21413   0.484   0.405  22.783
 3262SOL    HW121414   0.527   0.487  22.808
 3262SOL    HW221415   0.420   0.390  22.852
 3263SOL     OW21416   3.939   0.231  21.824
 3263SOL    HW121417   3.993   0.157  21.795
 3263SOL    HW221418   3.945   0.229  21.920
 3264SOL     OW21419   2.050   2.681  24.450
 3264SOL    HW121420   2.127   2.714  24.404
 3264SOL    HW221421   1.984   2.750  24.441
 3265SOL     OW21422   0.858   2.403  10.223
 3265SOL    HW121423   0.904   2.458  10.286
 3265SOL    HW221424   0.844   2.460  10.147
 3266SOL     OW21425   1.263   0.202  26.837
 3266SOL    HW121426   1.206   0.157  26.899
 3266SOL    HW221427   1.325   0.135  26.809
 3267SOL     OW21428   1.283   3.037  19.286
 3267SOL    HW121429   1.221   2.983  19.237
 3267SOL    HW221430   1.236   3.060  19.366
 3268SOL     OW21431   4.530   3.478   7.730
 3268SOL    HW121432   4.522   3.550   7.792
 3268SOL    HW221433   4.469   3.500   7.659
 3269SOL     OW21434   3.488   0.178  26.514
 3269SOL    HW121435   3.512   0.163  26.422
 3269SOL    HW221436   3.545   0.250  26.542
 3270SOL     OW21437   4.499   3.117   2.090
 3270SOL    HW121438   4.539   3.074   2.165
 3270SOL    HW221439   4.468   3.045   2.035
 3271SOL     OW21440   3.428   1.570   1.400
 3271SOL    HW121441   3.463   1.520   1.474
 3271SOL    HW221442   3.345   1.526   1.379
 3272SOL     OW21443   4.039   0.843   4.405
 3272SOL    HW121444   3.950   0.833   4.372
 3272SOL    HW221445   4.083   0.762   4.380
 3273SOL     OW21446   1.802   3.656  19.714
 3273SOL    HW121447   1.826   3.685  19.802
 3273SOL    HW221448   1.754   3.730  19.677
 3274SOL     OW21449   2.818   3.212   4.897
 3274SOL    HW121450   2.826   3.293   4.847
 3274SOL    HW221451   2.872   3.226   4.975
 3275SOL     OW21452   3.876   4.405   3.290
 3275SOL    HW121453   3.903   4.388   3.380
 3275SOL    HW221454   3.937   4.472   3.258
 3276SOL     OW21455   3.374   2.597  20.292
 3276SOL    HW121456   3.368   2.599  20.388
 3276SOL    HW221457   3.323   2.521  20.266
 3277SOL     OW21458   0.195   2.508  19.217
 3277SOL    HW121459   0.166   2.597  19.236
 3277SOL    HW221460   0.128   2.452  19.256
 3278SOL     OW21461   0.032   3.880   8.008
 3278SOL    HW121462   0.041   3.812   7.941
 3278SOL    HW221463   0.030   3.832   8.091
 3279SOL     OW21464   3.590   2.099  25.718
 3279SOL    HW121465   3.573   2.082  25.625
 3279SOL    HW221466   3.677   2.138  25.720
 3280SOL     OW21467   1.720   0.338  22.166
 3280SOL    HW121468   1.814   0.322  22.162
 3280SOL    HW221469   1.710   0.412  22.226
 3281SOL     OW21470   2.688   2.921  22.082
 3281SOL    HW121471   2.645   3.003  22.058
 3281SOL    HW221472   2.755   2.909  22.015
 3282SOL     OW21473   1.157   2.204  19.812
 3282SOL    HW121474   1.117   2.173  19.731
 3282SOL    HW221475   1.215   2.132  19.839
 3283SOL     OW21476   1.389   1.622   9.238
 3283SOL    HW121477   1.478   1.657   9.233
 3283SOL    HW221478   1.353   1.633   9.150
 3284SOL     OW21479   2.884   1.943  27.136
 3284SOL    HW121480   2.934   1.908  27.210
 3284SOL    HW221481   2.917   1.896  27.060
 3285SOL     OW21482   1.642   1.070   8.985
 3285SOL    HW121483   1.689   1.065   9.068
 3285SOL    HW221484   1.587   0.991   8.984
 3286SOL     OW21485   1.391   0.127   8.311
 3286SOL    HW121486   1.448   0.056   8.340
 3286SOL    HW221487   1.342   0.090   8.238
 3287SOL     OW21488   2.063   3.953   8.232
 3287SOL    HW121489   2.087   4.025   8.174
 3287SOL    HW221490   2.110   3.877   8.197
 3288SOL     OW21491   2.163   3.044  21.392
 3288SOL    HW121492   2.239   2.986  21.392
 3288SOL    HW221493   2.198   3.130  21.415
 3289SOL     OW21494   1.149   2.750  27.987
 3289SOL    HW121495   1.131   2.657  27.997
 3289SOL    HW221496   1.197   2.756  27.904
 3290SOL     OW21497   0.366   1.629   5.228
 3290SOL    HW121498   0.452   1.590   5.246
 3290SOL    HW221499   0.314   1.609   5.306
 3291SOL     OW21500   1.954   0.749  22.923
 3291SOL    HW121501   2.020   0.782  22.863
 3291SOL    HW221502   1.871   0.763  22.878
 3292SOL     OW21503   4.770   3.052  23.476
 3292SOL    HW121504   4.711   3.006  23.416
 3292SOL    HW221505   0.077   3.040  23.438
 3293SOL     OW21506   0.904   1.336   7.105
 3293SOL    HW121507   0.916   1.431   7.105
 3293SOL    HW221508   0.862   1.317   7.021
 3294SOL     OW21509   3.059   1.420   6.726
 3294SOL    HW121510   3.087   1.421   6.818
 3294SOL    HW221511   3.129   1.375   6.680
 3295SOL     OW21512   2.940   0.543  21.494
 3295SOL    HW121513   2.966   0.455  21.520
 3295SOL    HW221514   2.846   0.546  21.511
 3296SOL     OW21515   4.574   2.298   8.803
 3296SOL    HW121516   4.649   2.298   8.863
 3296SOL    HW221517   4.565   2.206   8.777
 3297SOL     OW21518   4.778   4.547   9.384
 3297SOL    HW121519   4.694   4.532   9.340
 3297SOL    HW221520   4.756   4.550   9.477
 3298SOL     OW21521   4.442   4.037   2.423
 3298SOL    HW121522   4.495   4.054   2.501
 3298SOL    HW221523   4.493   4.074   2.351
 3299SOL     OW21524   3.922   1.707  24.327
 3299SOL    HW121525   3.867   1.637  24.362
 3299SOL    HW221526   3.925   1.772  24.397
 3300SOL     OW21527   4.688   1.467   4.514
 3300SOL    HW121528   4.770   1.419   4.501
 3300SOL    HW221529   4.620   1.409   4.480
 3301SOL     OW21530   2.881   2.297  24.817
 3301SOL    HW121531   2.843   2.354  24.750
 3301SOL    HW221532   2.809   2.240  24.843
 3302SOL     OW21533   1.025   2.530   0.064
 3302SOL    HW121534   1.092   2.566   0.122
 3302SOL    HW221535   0.992   2.605   0.015
 3303SOL     OW21536   1.605   0.059  23.291
 3303SOL    HW121537   1.642   0.017  23.213
 3303SOL    HW221538   1.669   0.041  23.360
 3304SOL     OW21539   2.621   1.004   5.607
 3304SOL    HW121540   2.662   1.031   5.525
 3304SOL    HW221541   2.688   1.019   5.674
 3305SOL     OW21542   3.206   0.972  10.382
 3305SOL    HW121543   3.157   0.983  10.301
 3305SOL    HW221544   3.140   0.945  10.446
 3306SOL     OW21545   4.681   1.628  19.659
 3306SOL    HW121546   4.745   1.572  19.615
 3306SOL    HW221547   4.639   1.677  19.588
 3307SOL     OW21548   0.660   2.815  24.235
 3307SOL    HW121549   0.590   2.864  24.192
 3307SOL    HW221550   0.723   2.796  24.165
 3308SOL     OW21551   1.423   2.569   5.420
 3308SOL    HW121552   1.387   2.584   5.333
 3308SOL    HW221553   1.453   2.478   5.418
 3309SOL     OW21554   1.643   4.297   9.277
 3309SOL    HW121555   1.601   4.383   9.272
 3309SOL    HW221556   1.575   4.236   9.249
 3310SOL     OW21557   0.330   1.326  20.736
 3310SOL    HW121558   0.350   1.384  20.662
 3310SOL    HW221559   0.237   1.340  20.753
 3311SOL     OW21560   3.852   0.754   5.657
 3311SOL    HW121561   3.944   0.767   5.681
 3311SOL    HW221562   3.848   0.663   5.627
 3312SOL     OW21563   0.359   1.761   6.419
 3312SOL    HW121564   0.291   1.744   6.484
 3312SOL    HW221565   0.423   1.815   6.465
 3313SOL     OW21566   2.019   1.761   6.821
 3313SOL    HW121567   2.094   1.756   6.881
 3313SOL    HW221568   2.043   1.703   6.749
 3314SOL     OW21569   2.336   4.637   0.459
 3314SOL    HW121570   2.385   4.569   0.505
 3314SOL    HW221571   2.291   4.686   0.528
 3315SOL     OW21572   3.758   2.377   5.287
 3315SOL    HW121573   3.703   2.389   5.210
 3315SOL    HW221574   3.822   2.311   5.260
 3316SOL     OW21575   1.705   4.022   5.719
 3316SOL    HW121576   1.778   4.076   5.688
 3316SOL    HW221577   1.640   4.085   5.749
 3317SOL     OW21578   4.398   2.095  25.437
 3317SOL    HW121579   4.479   2.120  25.392
 3317SOL    HW221580   4.331   2.097  25.369
 3318SOL     OW21581   1.978   2.824  23.808
 3318SOL    HW121582   1.892   2.790  23.833
 3318SOL    HW221583   2.026   2.833  23.891
 3319SOL     OW21584   4.077   2.798  20.257
 3319SOL    HW121585   4.125   2.881  20.253
 3319SOL    HW221586   4.003   2.816  20.315
 3320SOL     OW21587   0.741   4.701   5.900
 3320SOL    HW121588   0.712   4.671   5.986
 3320SOL    HW221589   0.774   4.622   5.857
 3321SOL     OW21590   2.439   4.217  24.404
 3321SOL    HW121591   2.370   4.211  24.338
 3321SOL    HW221592   2.467   4.309  24.401
 3322SOL     OW21593   1.362   1.770  25.385
 3322SOL    HW121594   1.437   1.792  25.330
 3322SOL    HW221595   1.361   1.674  25.387
 3323SOL     OW21596   4.031   4.759   9.376
 3323SOL    HW121597   4.056   0.052   9.433
 3323SOL    HW221598   4.114   4.722   9.347
 3324SOL     OW21599   4.589   1.306  11.475
 3324SOL    HW121600   4.659   1.285  11.537
 3324SOL    HW221601   4.629   1.370  11.416
 3325SOL     OW21602   4.324   0.042   8.810
 3325SOL    HW121603   4.280   0.116   8.853
 3325SOL    HW221604   4.323   0.064   8.717
 3326SOL     OW21605   0.048   0.042  18.109
 3326SOL    HW121606   0.093   0.126  18.100
 3326SOL    HW221607   0.039   0.030  18.203
 3327SOL     OW21608   3.205   1.352  21.502
 3327SOL    HW121609   3.300   1.357  21.511
 3327SOL    HW221610   3.189   1.267  21.461
 3328SOL     OW21611   3.569   3.158  19.758
 3328SOL    HW121612   3.535   3.090  19.816
 3328SOL    HW221613   3.599   3.110  19.680
 3329SOL     OW21614   3.319   1.558   4.119
 3329SOL    HW121615   3.296   1.529   4.031
 3329SOL    HW221616   3.241   1.605   4.150
 3330SOL     OW21617   4.168   0.357  22.441
 3330SOL    HW121618   4.161   0.316  22.355
 3330SOL    HW221619   4.257   0.392  22.443
 3331SOL     OW21620   3.336   0.467  21.631
 3331SOL    HW121621   3.302   0.473  21.720
 3331SOL    HW221622   3.430   0.455  21.642
 3332SOL     OW21623   1.663   0.755   2.287
 3332SOL    HW121624   1.613   0.688   2.239
 3332SOL    HW221625   1.753   0.744   2.256
 3333SOL     OW21626   4.596   1.251   0.107
 3333SOL    HW121627   4.580   1.291   0.192
 3333SOL    HW221628   4.547   1.305   0.045
 3334SOL     OW21629   3.104   0.958   5.080
 3334SOL    HW121630   3.145   0.875   5.055
 3334SOL    HW221631   3.010   0.939   5.082
 3335SOL     OW21632   0.166   2.440   6.753
 3335SOL    HW121633   0.139   2.395   6.833
 3335SOL    HW221634   0.135   2.530   6.765
 3336SOL     OW21635   4.650   2.914  25.020
 3336SOL    HW121636   4.646   2.989  24.961
 3336SOL    HW221637   4.576   2.859  24.994
 3337SOL     OW21638   2.763   0.744  20.363
 3337SOL    HW121639   2.849   0.715  20.392
 3337SOL    HW221640   2.776   0.834  20.335
 3338SOL     OW21641   2.276   1.496   0.366
 3338SOL    HW121642   2.198   1.517   0.417
 3338SOL    HW221643   2.305   1.580   0.331
 3339SOL     OW21644   3.791   2.959  22.666
 3339SOL    HW121645   3.792   2.865  22.685
 3339SOL    HW221646   3.748   2.999  22.742
 3340SOL     OW21647   0.107   3.636   1.381
 3340SOL    HW121648   0.029   3.691   1.378
 3340SOL    HW221649   0.142   3.638   1.292
 3341SOL     OW21650   2.557   0.885  20.131
 3341SOL    HW121651   2.573   0.792  20.112
 3341SOL    HW221652   2.499   0.914  20.061
 3342SOL     OW21653   1.012   1.794   8.270
 3342SOL    HW121654   1.060   1.772   8.190
 3342SOL    HW221655   0.968   1.876   8.249
 3343SOL     OW21656   2.407   3.829  24.043
 3343SOL    HW121657   2.348   3.902  24.062
 3343SOL    HW221658   2.362   3.752  24.078
 3344SOL     OW21659   3.804   3.119   2.738
 3344SOL    HW121660   3.865   3.175   2.786
 3344SOL    HW221661   3.858   3.049   2.702
 3345SOL     OW21662   3.621   3.247  18.296
 3345SOL    HW121663   3.644   3.251  18.203
 3345SOL    HW221664   3.591   3.335  18.317
 3346SOL     OW21665   3.129   3.562   7.868
 3346SOL    HW121666   3.172   3.490   7.915
 3346SOL    HW221667   3.088   3.614   7.937
 3347SOL     OW21668   0.615   1.879  15.573
 3347SOL    HW121669   0.548   1.833  15.522
 3347SOL    HW221670   0.638   1.954  15.519
 3348SOL     OW21671   0.477   2.457   9.128
 3348SOL    HW121672   0.402   2.513   9.149
 3348SOL    HW221673   0.549   2.518   9.112
 3349SOL     OW21674   2.959   4.110   0.078
 3349SOL    HW121675   2.974   4.204   0.083
 3349SOL    HW221676   2.967   4.080   0.168
 3350SOL     OW21677   2.497   0.705   0.428
 3350SOL    HW121678   2.506   0.798   0.409
 3350SOL    HW221679   2.587   0.674   0.439
 3351SOL     OW21680   3.692   1.756   5.497
 3351SOL    HW121681   3.605   1.731   5.529
 3351SOL    HW221682   3.753   1.713   5.557
 3352SOL     OW21683   2.724   4.492  20.098
 3352SOL    HW121684   2.753   4.576  20.132
 3352SOL    HW221685   2.804   4.441  20.088
 3353SOL     OW21686   1.637   3.993  26.609
 3353SOL    HW121687   1.673   3.992  26.698
 3353SOL    HW221688   1.650   4.083  26.579
 3354SOL     OW21689   3.733   4.453   8.836
 3354SOL    HW121690   3.719   4.418   8.924
 3354SOL    HW221691   3.819   4.496   8.841
 3355SOL     OW21692   0.825   1.594  22.700
 3355SOL    HW121693   0.918   1.617  22.697
 3355SOL    HW221694   0.812   1.539  22.623
 3356SOL     OW21695   1.552   0.075  25.135
 3356SOL    HW121696   1.516   4.767  25.140
 3356SOL    HW221697   1.646   0.063  25.148
 3357SOL     OW21698   4.012   4.778  26.359
 3357SOL    HW121699   3.972   4.744  26.279
 3357SOL    HW221700   4.023   4.701  26.415
 3358SOL     OW21701   2.956   3.690   7.694
 3358SOL    HW121702   3.007   3.649   7.764
 3358SOL    HW221703   2.883   3.732   7.739
 3359SOL     OW21704   0.942   1.105   8.833
 3359SOL    HW121705   0.887   1.134   8.760
 3359SOL    HW221706   0.979   1.022   8.803
 3360SOL     OW21707   4.275   1.543   2.520
 3360SOL    HW121708   4.247   1.454   2.541
 3360SOL    HW221709   4.260   1.592   2.601
 3361SOL     OW21710   2.898   4.132  26.774
 3361SOL    HW121711   2.949   4.055  26.800
 3361SOL    HW221712   2.943   4.166  26.697
 3362SOL     OW21713   0.426   3.244   3.932
 3362SOL    HW121714   0.518   3.256   3.910
 3362SOL    HW221715   0.379   3.279   3.856
 3363SOL     OW21716   3.731   3.475   6.616
 3363SOL    HW121717   3.761   3.396   6.660
 3363SOL    HW221718   3.772   3.547   6.665
 3364SOL     OW21719   2.803   3.650  22.932
 3364SOL    HW121720   2.835   3.709  22.864
 3364SOL    HW221721   2.805   3.563  22.891
 3365SOL     OW21722   1.982   0.555   9.092
 3365SOL    HW121723   2.060   0.570   9.145
 3365SOL    HW221724   2.014   0.504   9.017
 3366SOL     OW21725   1.632   2.658   2.231
 3366SOL    HW121726   1.704   2.636   2.172
 3366SOL    HW221727   1.653   2.613   2.313
 3367SOL     OW21728   2.221   0.771   7.251
 3367SOL    HW121729   2.172   0.850   7.274
 3367SOL    HW221730   2.234   0.726   7.334
 3368SOL     OW21731   0.755   1.901  23.885
 3368SOL    HW121732   0.741   1.807  23.874
 3368SOL    HW221733   0.704   1.924  23.963
 3369SOL     OW21734   0.154   4.338  22.925
 3369SOL    HW121735   0.175   4.422  22.966
 3369SOL    HW221736   0.199   4.341  22.841
 3370SOL     OW21737   4.731   3.357   4.650
 3370SOL    HW121738   4.734   3.449   4.676
 3370SOL    HW221739   4.762   3.309   4.727
 3371SOL     OW21740   4.369   1.342  20.040
 3371SOL    HW121741   4.276   1.362  20.030
 3371SOL    HW221742   4.412   1.390  19.969
 3372SOL     OW21743   2.448   1.591   3.136
 3372SOL    HW121744   2.388   1.607   3.209
 3372SOL    HW221745   2.534   1.615   3.170
 3373SOL     OW21746   3.970   2.191   6.059
 3373SOL    HW121747   4.018   2.118   6.020
 3373SOL    HW221748   3.936   2.156   6.141
 3374SOL     OW21749   2.252   2.767   8.509
 3374SOL    HW121750   2.157   2.760   8.518
 3374SOL    HW221751   2.281   2.679   8.484
 3375SOL     OW21752   2.050   1.912  28.289
 3375SOL    HW121753   2.108   1.954  28.226
 3375SOL    HW221754   2.092   1.927  28.374
 3376SOL     OW21755   0.276   1.342  23.172
 3376SOL    HW121756   0.229   1.425  23.180
 3376SOL    HW221757   0.305   1.340  23.081
 3377SOL     OW21758   1.182   4.244  24.476
 3377SOL    HW121759   1.095   4.284  24.469
 3377SOL    HW221760   1.243   4.318  24.471
 3378SOL     OW21761   3.064   1.263   8.369
 3378SOL    HW121762   2.974   1.285   8.392
 3378SOL    HW221763   3.085   1.187   8.424
 3379SOL     OW21764   1.142   2.762   7.082
 3379SOL    HW121765   1.092   2.740   7.161
 3379SOL    HW221766   1.091   2.724   7.010
 3380SOL     OW21767   3.306   1.747  21.328
 3380SOL    HW121768   3.355   1.671  21.297
 3380SOL    HW221769   3.291   1.800  21.250
 3381SOL     OW21770   1.931   1.540  22.264
 3381SOL    HW121771   1.884   1.486  22.200
 3381SOL    HW221772   1.952   1.480  22.336
 3382SOL     OW21773   2.924   4.023   5.375
 3382SOL    HW121774   2.918   4.108   5.331
 3382SOL    HW221775   3.015   3.997   5.364
 3383SOL     OW21776   1.010   1.680   3.180
 3383SOL    HW121777   0.945   1.678   3.109
 3383SOL    HW221778   1.094   1.666   3.136
 3384SOL     OW21779   1.143   3.571  10.643
 3384SOL    HW121780   1.199   3.573  10.721
 3384SOL    HW221781   1.064   3.526  10.671
 3385SOL     OW21782   3.443   2.358   3.579
 3385SOL    HW121783   3.531   2.324   3.560
 3385SOL    HW221784   3.454   2.453   3.580
 3386SOL     OW21785   4.524   3.070  23.695
 3386SOL    HW121786   4.585   3.004  23.661
 3386SOL    HW221787   4.576   3.121  23.757
 3387SOL     OW21788   1.278   2.769  22.355
 3387SOL    HW121789   1.267   2.674  22.347
 3387SOL    HW221790   1.362   2.780  22.400
 3388SOL     OW21791   2.457   2.885   4.126
 3388SOL    HW121792   2.517   2.959   4.135
 3388SOL    HW221793   2.509   2.808   4.150
 3389SOL     OW21794   0.175   0.930   0.100
 3389SOL    HW121795   0.172   0.978   0.183
 3389SOL    HW221796   0.248   0.969   0.052
 3390SOL     OW21797   0.829   4.139  22.818
 3390SOL    HW121798   0.756   4.123  22.758
 3390SOL    HW221799   0.808   4.222  22.860
 3391SOL     OW21800   3.717   4.148   2.176
 3391SOL    HW121801   3.699   4.236   2.209
 3391SOL    HW221802   3.812   4.143   2.171
 3392SOL     OW21803   4.125   3.062   6.799
 3392SOL    HW121804   4.049   3.050   6.742
 3392SOL    HW221805   4.118   2.992   6.864
 3393SOL     OW21806   2.534   2.487  20.751
 3393SOL    HW121807   2.561   2.404  20.712
 3393SOL    HW221808   2.610   2.544  20.740
 3394SOL     OW21809   0.680   1.814  27.095
 3394SOL    HW121810   0.661   1.882  27.160
 3394SOL    HW221811   0.597   1.768  27.084
 3395SOL     OW21812   2.270   1.023  28.447
 3395SOL    HW121813   2.179   1.049  28.460
 3395SOL    HW221814   2.267   0.927  28.444
 3396SOL     OW21815   1.195   1.883   8.457
 3396SOL    HW121816   1.165   1.927   8.536
 3396SOL    HW221817   1.115   1.853   8.414
 3397SOL     OW21818   1.594   1.080   1.410
 3397SOL    HW121819   1.622   1.134   1.336
 3397SOL    HW221820   1.673   1.032   1.435
 3398SOL     OW21821   2.535   1.000  22.231
 3398SOL    HW121822   2.486   1.055  22.170
 3398SOL    HW221823   2.616   1.049  22.247
 3399SOL     OW21824   2.553   0.697  19.047
 3399SOL    HW121825   2.600   0.636  18.990
 3399SOL    HW221826   2.491   0.642  19.095
 3400SOL     OW21827   1.729   0.486   3.517
 3400SOL    HW121828   1.759   0.407   3.562
 3400SOL    HW221829   1.736   0.464   3.424
 3401SOL     OW21830   1.551   1.790  25.195
 3401SOL    HW121831   1.502   1.717  25.158
 3401SOL    HW221832   1.582   1.840  25.119
 3402SOL     OW21833   1.462   1.496  25.408
 3402SOL    HW121834   1.553   1.470  25.420
 3402SOL    HW221835   1.411   1.420  25.435
 3403SOL     OW21836   2.085   3.404  27.735
 3403SOL    HW121837   2.105   3.352  27.813
 3403SOL    HW221838   2.115   3.492  27.757
 3404SOL     OW21839   0.339   0.374  11.606
 3404SOL    HW121840   0.395   0.327  11.668
 3404SOL    HW221841   0.394   0.445  11.574
 3405SOL     OW21842   3.928   2.716   2.460
 3405SOL    HW121843   3.924   2.784   2.393
 3405SOL    HW221844   3.921   2.634   2.412
 3406SOL     OW21845   0.547   3.170   6.750
 3406SOL    HW121846   0.567   3.084   6.786
 3406SOL    HW221847   0.628   3.220   6.761
 3407SOL     OW21848   1.692   2.550  27.745
 3407SOL    HW121849   1.682   2.626  27.688
 3407SOL    HW221850   1.609   2.503  27.738
 3408SOL     OW21851   2.402   0.265  23.737
 3408SOL    HW121852   2.347   0.315  23.678
 3408SOL    HW221853   2.484   0.253  23.689
 3409SOL     OW21854   0.797   3.642   9.166
 3409SOL    HW121855   0.711   3.600   9.174
 3409SOL    HW221856   0.840   3.595   9.095
 3410SOL     OW21857   0.575   3.004  26.832
 3410SOL    HW121858   0.587   3.097  26.850
 3410SOL    HW221859   0.480   2.992  26.829
 3411SOL     OW21860   2.645   2.973   6.506
 3411SOL    HW121861   2.559   2.947   6.472
 3411SOL    HW221862   2.705   2.959   6.433
 3412SOL     OW21863   4.073   2.072   0.758
 3412SOL    HW121864   4.049   2.050   0.668
 3412SOL    HW221865   4.109   1.991   0.794
 3413SOL     OW21866   4.522   4.012   5.116
 3413SOL    HW121867   4.481   4.079   5.170
 3413SOL    HW221868   4.613   4.040   5.107
 3414SOL     OW21869   0.184   4.010   0.406
 3414SOL    HW121870   0.231   4.093   0.399
 3414SOL    HW221871   0.180   3.977   0.316
 3415SOL     OW21872   3.908   4.752  10.395
 3415SOL    HW121873   3.887   4.771  10.303
 3415SOL    HW221874   3.881   0.050  10.443
 3416SOL     OW21875   0.574   0.591  28.154
 3416SOL    HW121876   0.596   0.675  28.194
 3416SOL    HW221877   0.531   0.542  28.224
 3417SOL     OW21878   0.926   0.391  25.947
 3417SOL    HW121879   0.852   0.426  25.997
 3417SOL    HW221880   0.891   0.314  25.902
 3418SOL     OW21881   2.780   0.745  20.654
 3418SOL    HW121882   2.811   0.721  20.567
 3418SOL    HW221883   2.825   0.684  20.713
 3419SOL     OW21884   2.544   3.010  26.880
 3419SOL    HW121885   2.510   3.059  26.805
 3419SOL    HW221886   2.637   2.997  26.860
 3420SOL     OW21887   1.951   3.230   4.915
 3420SOL    HW121888   2.046   3.219   4.911
 3420SOL    HW221889   1.918   3.182   4.839
 3421SOL     OW21890   3.003   0.956  22.969
 3421SOL    HW121891   3.066   0.897  23.010
 3421SOL    HW221892   2.920   0.908  22.969
 3422SOL     OW21893   1.948   0.883   0.246
 3422SOL    HW121894   1.898   0.802   0.257
 3422SOL    HW221895   1.887   0.952   0.270
 3423SOL     OW21896   2.495   0.508  23.951
 3423SOL    HW121897   2.459   0.476  23.869
 3423SOL    HW221898   2.538   0.432  23.990
 3424SOL     OW21899   1.313   0.177   4.127
 3424SOL    HW121900   1.350   0.127   4.200
 3424SOL    HW221901   1.322   0.120   4.051
 3425SOL     OW21902   4.463   0.456   0.002
 3425SOL    HW121903   4.371   0.442  28.499
 3425SOL    HW221904   4.462   0.531   0.061
 3426SOL     OW21905   3.155   0.057  25.607
 3426SOL    HW121906   3.197   0.085  25.526
 3426SOL    HW221907   3.132   4.746  25.592
 3427SOL     OW21908   4.463   3.186   3.372
 3427SOL    HW121909   4.533   3.244   3.341
 3427SOL    HW221910   4.452   3.210   3.464
 3428SOL     OW21911   0.502   2.410  23.085
 3428SOL    HW121912   0.421   2.363  23.063
 3428SOL    HW221913   0.504   2.484  23.025
 3429SOL     OW21914   2.431   0.742  17.040
 3429SOL    HW121915   2.337   0.738  17.055
 3429SOL    HW221916   2.440   0.779  16.952
 3430SOL     OW21917   4.010   2.091  27.868
 3430SOL    HW121918   4.084   2.085  27.808
 3430SOL    HW221919   3.938   2.124  27.814
 3431SOL     OW21920   2.708   0.233   6.663
 3431SOL    HW121921   2.627   0.281   6.680
 3431SOL    HW221922   2.777   0.296   6.682
 3432SOL     OW21923   3.421   4.378   0.894
 3432SOL    HW121924   3.353   4.429   0.851
 3432SOL    HW221925   3.375   4.304   0.933
 3433SOL     OW21926   0.507   1.529   7.410
 3433SOL    HW121927   0.585   1.570   7.448
 3433SOL    HW221928   0.482   1.587   7.338
 3434SOL     OW21929   4.415   2.242   4.284
 3434SOL    HW121930   4.420   2.324   4.234
 3434SOL    HW221931   4.418   2.269   4.376
 3435SOL     OW21932   2.761   4.411  24.880
 3435SOL    HW121933   2.690   4.437  24.822
 3435SOL    HW221934   2.820   4.486  24.881
 3436SOL     OW21935   4.124   0.388  27.850
 3436SOL    HW121936   4.113   0.481  27.869
 3436SOL    HW221937   4.117   0.382  27.755
 3437SOL     OW21938   0.273   0.829  19.148
 3437SOL    HW121939   0.199   0.791  19.101
 3437SOL    HW221940   0.329   0.754  19.169
 3438SOL     OW21941   2.215   1.465  21.761
 3438SOL    HW121942   2.205   1.479  21.667
 3438SOL    HW221943   2.161   1.534  21.801
 3439SOL     OW21944   1.884   3.630  25.401
 3439SOL    HW121945   1.928   3.568  25.459
 3439SOL    HW221946   1.813   3.579  25.361
 3440SOL     OW21947   4.486   0.800   0.394
 3440SOL    HW121948   4.552   0.734   0.413
 3440SOL    HW221949   4.535   0.882   0.388
 3441SOL     OW21950   0.763   3.328   2.067
 3441SOL    HW121951   0.858   3.329   2.077
 3441SOL    HW221952   0.731   3.293   2.150
 3442SOL     OW21953   0.988   0.881  21.667
 3442SOL    HW121954   0.936   0.814  21.712
 3442SOL    HW221955   0.962   0.963  21.709
 3443SOL     OW21956   4.456   2.747  19.238
 3443SOL    HW121957   4.423   2.837  19.236
 3443SOL    HW221958   4.377   2.693  19.244
 3444SOL     OW21959   2.364   0.482  23.527
 3444SOL    HW121960   2.302   0.518  23.590
 3444SOL    HW221961   2.409   0.559  23.492
 3445SOL     OW21962   2.803   2.685  20.707
 3445SOL    HW121963   2.731   2.725  20.756
 3445SOL    HW221964   2.789   2.713  20.616
 3446SOL     OW21965   3.940   1.815  27.807
 3446SOL    HW121966   3.866   1.824  27.867
 3446SOL    HW221967   3.992   1.894  27.821
 3447SOL     OW21968   2.783   4.105  25.295
 3447SOL    HW121969   2.826   4.161  25.230
 3447SOL    HW221970   2.694   4.094  25.262
 3448SOL     OW21971   4.282   4.409  24.158
 3448SOL    HW121972   4.201   4.413  24.107
 3448SOL    HW221973   4.346   4.371  24.098
 3449SOL     OW21974   4.651   4.104   3.760
 3449SOL    HW121975   4.602   4.062   3.831
 3449SOL    HW221976   4.728   4.141   3.803
 3450SOL     OW21977   0.383   3.374  21.055
 3450SOL    HW121978   0.439   3.358  20.979
 3450SOL    HW221979   0.370   3.287  21.094
 3451SOL     OW21980   3.487   1.229  21.120
 3451SOL    HW121981   3.573   1.261  21.093
 3451SOL    HW221982   3.489   1.232  21.216
 3452SOL     OW21983   0.796   2.889   5.855
 3452SOL    HW121984   0.745   2.881   5.774
 3452SOL    HW221985   0.765   2.816   5.909
 3453SOL     OW21986   1.167   0.421  26.653
 3453SOL    HW121987   1.199   0.383  26.735
 3453SOL    HW221988   1.225   0.496  26.637
 3454SOL     OW21989   2.092   1.545   9.323
 3454SOL    HW121990   2.172   1.546   9.376
 3454SOL    HW221991   2.054   1.632   9.334
 3455SOL     OW21992   4.193   0.517   4.681
 3455SOL    HW121993   4.126   0.585   4.678
 3455SOL    HW221994   4.256   0.542   4.613
 3456SOL     OW21995   0.577   3.367  21.931
 3456SOL    HW121996   0.649   3.385  21.992
 3456SOL    HW221997   0.543   3.282  21.958
 3457SOL     OW21998   1.840   1.706  25.328
 3457SOL    HW121999   1.901   1.759  25.278
 3457SOL    HW222000   1.769   1.687  25.267
 3458SOL     OW22001   1.055   4.672   2.817
 3458SOL    HW122002   1.039   4.702   2.727
 3458SOL    HW222003   1.063   4.752   2.868
 3459SOL     OW22004   3.129   1.314   4.210
 3459SOL    HW122005   3.082   1.382   4.258
 3459SOL    HW222006   3.173   1.361   4.139
 3460SOL     OW22007   3.863   1.243   7.968
 3460SOL    HW122008   3.846   1.286   7.884
 3460SOL    HW222009   3.779   1.206   7.994
 3461SOL     OW22010   3.692   1.853  26.273
 3461SOL    HW122011   3.720   1.798  26.200
 3461SOL    HW222012   3.611   1.813  26.304
 3462SOL     OW22013   3.833   2.893   5.008
 3462SOL    HW122014   3.876   2.963   5.057
 3462SOL    HW222015   3.817   2.824   5.073
 3463SOL     OW22016   1.952   2.836  21.368
 3463SOL    HW122017   2.014   2.909  21.376
 3463SOL    HW222018   1.881   2.871  21.314
 3464SOL     OW22019   3.029   0.249  25.143
 3464SOL    HW122020   3.005   0.278  25.231
 3464SOL    HW222021   3.069   0.163  25.156
 3465SOL     OW22022   1.923   4.586  23.929
 3465SOL    HW122023   1.988   4.588  23.999
 3465SOL    HW222024   1.958   4.645  23.862
 3466SOL     OW22025   0.719   1.886   4.704
 3466SOL    HW122026   0.774   1.894   4.626
 3466SOL    HW222027   0.777   1.909   4.777
 3467SOL     OW22028   4.502   3.990  23.214
 3467SOL    HW122029   4.564   3.928  23.253
 3467SOL    HW222030   4.507   3.974  23.120
 3468SOL     OW22031   2.172   3.576  24.292
 3468SOL    HW122032   2.112   3.590  24.366
 3468SOL    HW222033   2.126   3.514  24.235
 3469SOL     OW22034   1.266   2.895  24.601
 3469SOL    HW122035   1.254   2.802  24.581
 3469SOL    HW222036   1.217   2.941  24.532
 3470SOL     OW22037   4.694   3.852  22.423
 3470SOL    HW122038   4.603   3.831  22.445
 3470SOL    HW222039   4.696   3.948  22.417
 3471SOL     OW22040   1.935   4.137  18.337
 3471SOL    HW122041   1.975   4.224  18.330
 3471SOL    HW222042   2.006   4.080  18.367
 3472SOL     OW22043   3.607   3.413   7.184
 3472SOL    HW122044   3.512   3.418   7.196
 3472SOL    HW222045   3.625   3.319   7.174
 3473SOL     OW22046   2.534   4.529  22.447
 3473SOL    HW122047   2.499   4.609  22.486
 3473SOL    HW222048   2.510   4.534  22.355
 3474SOL     OW22049   0.753   1.191  22.525
 3474SOL    HW122050   0.815   1.183  22.598
 3474SOL    HW222051   0.753   1.105  22.483
 3475SOL     OW22052   1.828   4.724   8.659
 3475SOL    HW122053   1.855   4.647   8.608
 3475SOL    HW222054   1.841   4.698   8.750
 3476SOL     OW22055   0.527   0.037  11.633
 3476SOL    HW122056   0.526   0.113  11.691
 3476SOL    HW222057   0.556   0.071  11.548
 3477SOL     OW22058   4.171   4.542  28.036
 3477SOL    HW122059   4.168   4.554  28.131
 3477SOL    HW222060   4.241   4.600  28.006
 3478SOL     OW22061   2.992   3.082  10.008
 3478SOL    HW122062   2.933   3.031  10.063
 3478SOL    HW222063   3.046   3.131  10.070
 3479SOL     OW22064   4.358   0.181  10.186
 3479SOL    HW122065   4.382   0.196  10.277
 3479SOL    HW222066   4.276   0.131  10.191
 3480SOL     OW22067   2.727   2.408  21.633
 3480SOL    HW122068   2.770   2.485  21.596
 3480SOL    HW222069   2.790   2.374  21.697
 3481SOL     OW22070   4.617   1.667  21.271
 3481SOL    HW122071   4.711   1.653  21.284
 3481SOL    HW222072   4.583   1.581  21.245
 3482SOL     OW22073   3.158   2.702  18.240
 3482SOL    HW122074   3.209   2.693  18.159
 3482SOL    HW222075   3.101   2.777  18.224
 3483SOL     OW22076   4.118   2.762   2.803
 3483SOL    HW122077   4.124   2.676   2.762
 3483SOL    HW222078   4.157   2.751   2.889
 3484SOL     OW22079   4.637   4.606   9.652
 3484SOL    HW122080   4.638   4.553   9.731
 3484SOL    HW222081   4.728   4.633   9.641
 3485SOL     OW22082   0.908   0.212   5.687
 3485SOL    HW122083   0.834   0.208   5.747
 3485SOL    HW222084   0.985   0.200   5.743
 3486SOL     OW22085   0.401   1.762   1.474
 3486SOL    HW122086   0.375   1.814   1.550
 3486SOL    HW222087   0.407   1.825   1.403
 3487SOL     OW22088   3.644   1.866  21.320
 3487SOL    HW122089   3.624   1.929  21.250
 3487SOL    HW222090   3.633   1.780  21.279
 3488SOL     OW22091   1.349   1.278  25.957
 3488SOL    HW122092   1.356   1.209  25.891
 3488SOL    HW222093   1.293   1.344  25.916
 3489SOL     OW22094   3.029   3.915  24.257
 3489SOL    HW122095   3.041   3.918  24.162
 3489SOL    HW222096   3.118   3.919  24.292
 3490SOL     OW22097   0.265   3.826  25.815
 3490SOL    HW122098   0.324   3.769  25.865
 3490SOL    HW222099   0.191   3.770  25.793
 3491SOL     OW22100   4.761   4.325  27.759
 3491SOL    HW122101   4.750   4.406  27.710
 3491SOL    HW222102   0.066   4.291  27.731
 3492SOL     OW22103   0.030   3.147  25.691
 3492SOL    HW122104   4.771   3.190  25.615
 3492SOL    HW222105   0.060   3.219  25.747
 3493SOL     OW22106   0.390   0.785  25.251
 3493SOL    HW122107   0.298   0.780  25.224
 3493SOL    HW222108   0.407   0.702  25.295
 3494SOL     OW22109   1.992   1.531   6.281
 3494SOL    HW122110   1.950   1.448   6.260
 3494SOL    HW222111   2.004   1.574   6.196
 3495SOL     OW22112   2.427   2.796   4.489
 3495SOL    HW122113   2.449   2.721   4.543
 3495SOL    HW222114   2.511   2.830   4.459
 3496SOL     OW22115   4.401   2.473   6.222
 3496SOL    HW122116   4.351   2.414   6.165
 3496SOL    HW222117   4.440   2.537   6.162
 3497SOL     OW22118   4.602   4.202   4.884
 3497SOL    HW122119   4.674   4.139   4.878
 3497SOL    HW222120   4.605   4.234   4.974
 3498SOL     OW22121   4.505   3.082   0.918
 3498SOL    HW122122   4.490   3.090   0.824
 3498SOL    HW222123   4.503   2.988   0.935
 3499SOL     OW22124   0.737   1.682  10.444
 3499SOL    HW122125   0.820   1.706  10.486
 3499SOL    HW222126   0.710   1.761  10.396
 3500SOL     OW22127   1.183   1.830   7.222
 3500SOL    HW122128   1.196   1.924   7.208
 3500SOL    HW222129   1.209   1.815   7.313
 3501SOL     OW22130   2.814   2.383   1.484
 3501SOL    HW122131   2.762   2.444   1.432
 3501SOL    HW222132   2.903   2.392   1.450
 3502SOL     OW22133   1.538   0.466   8.293
 3502SOL    HW122134   1.492   0.538   8.251
 3502SOL    HW222135   1.621   0.459   8.245
 3503SOL     OW22136   3.551   1.012  11.522
 3503SOL    HW122137   3.611   1.086  11.510
 3503SOL    HW222138   3.506   1.031  11.604
 3504SOL     OW22139   0.831   2.454   5.778
 3504SOL    HW122140   0.758   2.511   5.752
 3504SOL    HW222141   0.803   2.416   5.861
 3505SOL     OW22142   0.820   0.862   4.851
 3505SOL    HW122143   0.828   0.930   4.784
 3505SOL    HW222144   0.833   0.908   4.934
 3506SOL     OW22145   1.318   3.417   7.764
 3506SOL    HW122146   1.401   3.422   7.812
 3506SOL    HW222147   1.306   3.504   7.726
 3507SOL     OW22148   1.921   0.749   7.026
 3507SOL    HW122149   1.917   0.838   7.061
 3507SOL    HW222150   2.013   0.735   7.005
 3508SOL     OW22151   2.224   2.889  20.341
 3508SOL    HW122152   2.295   2.946  20.313
 3508SOL    HW222153   2.172   2.875  20.262
 3509SOL     OW22154   3.477   0.164   4.534
 3509SOL    HW122155   3.547   0.191   4.475
 3509SOL    HW222156   3.404   0.141   4.476
 3510SOL     OW22157   2.188   0.706  25.876
 3510SOL    HW122158   2.223   0.664  25.954
 3510SOL    HW222159   2.093   0.705  25.888
 3511SOL     OW22160   1.370   1.111   3.607
 3511SOL    HW122161   1.406   1.050   3.542
 3511SOL    HW222162   1.281   1.079   3.623
 3512SOL     OW22163   3.402   2.393  26.739
 3512SOL    HW122164   3.358   2.476  26.721
 3512SOL    HW222165   3.411   2.391  26.834
 3513SOL     OW22166   0.777   3.300  23.039
 3513SOL    HW122167   0.691   3.291  23.079
 3513SOL    HW222168   0.826   3.357  23.098
 3514SOL     OW22169   3.934   2.140  27.048
 3514SOL    HW122170   3.848   2.160  27.084
 3514SOL    HW222171   3.962   2.221  27.006
 3515SOL     OW22172   4.081   1.229   5.320
 3515SOL    HW122173   3.995   1.200   5.290
 3515SOL    HW222174   4.065   1.312   5.365
 3516SOL     OW22175   0.558   3.966   5.685
 3516SOL    HW122176   0.526   3.943   5.598
 3516SOL    HW222177   0.551   4.061   5.689
 3517SOL     OW22178   1.226   0.364   2.587
 3517SOL    HW122179   1.137   0.385   2.617
 3517SOL    HW222180   1.267   0.449   2.572
 3518SOL     OW22181   2.190   1.851   6.585
 3518SOL    HW122182   2.263   1.900   6.547
 3518SOL    HW222183   2.228   1.767   6.610
 3519SOL     OW22184   2.571   2.969   0.005
 3519SOL    HW122185   2.616   2.931   0.080
 3519SOL    HW222186   2.626   3.042  28.497
 3520SOL     OW22187   3.618   3.499  21.176
 3520SOL    HW122188   3.632   3.554  21.099
 3520SOL    HW222189   3.591   3.414  21.140
 3521SOL     OW22190   3.626   1.340   7.148
 3521SOL    HW122191   3.619   1.357   7.054
 3521SOL    HW222192   3.611   1.246   7.157
 3522SOL     OW22193   3.499   3.026   0.714
 3522SOL    HW122194   3.580   3.075   0.699
 3522SOL    HW222195   3.474   2.994   0.627
 3523SOL     OW22196   1.876   4.285   3.961
 3523SOL    HW122197   1.814   4.334   4.015
 3523SOL    HW222198   1.897   4.207   4.013
 3524SOL     OW22199   3.331   0.359  25.154
 3524SOL    HW122200   3.271   0.433  25.158
 3524SOL    HW222201   3.404   0.384  25.211
 3525SOL     OW22202   4.437   2.059   6.077
 3525SOL    HW122203   4.462   2.145   6.043
 3525SOL    HW222204   4.359   2.035   6.027
 3526SOL     OW22205   4.642   1.237   9.057
 3526SOL    HW122206   4.586   1.229   9.134
 3526SOL    HW222207   4.588   1.206   8.985
 3527SOL     OW22208   3.888   0.035   4.372
 3527SOL    HW122209   3.921   0.085   4.447
 3527SOL    HW222210   3.955   4.749   4.356
 3528SOL     OW22211   2.040   2.375  28.093
 3528SOL    HW122212   2.049   2.299  28.035
 3528SOL    HW222213   2.034   2.450  28.034
 3529SOL     OW22214   4.502   0.853   3.475
 3529SOL    HW122215   4.528   0.820   3.389
 3529SOL    HW222216   4.574   0.910   3.502
 3530SOL     OW22217   3.155   0.831   6.278
 3530SOL    HW122218   3.165   0.899   6.212
 3530SOL    HW222219   3.244   0.815   6.311
 3531SOL     OW22220   1.524   3.846  20.428
 3531SOL    HW122221   1.590   3.776  20.432
 3531SOL    HW222222   1.565   3.920  20.474
 3532SOL     OW22223   1.515   0.577  24.660
 3532SOL    HW122224   1.588   0.611  24.608
 3532SOL    HW222225   1.524   0.620  24.745
 3533SOL     OW22226   2.516   3.409  24.330
 3533SOL    HW122227   2.507   3.357  24.250
 3533SOL    HW222228   2.582   3.475  24.309
 3534SOL     OW22229   1.324   2.284  28.024
 3534SOL    HW122230   1.271   2.242  28.092
 3534SOL    HW222231   1.361   2.211  27.974
 3535SOL     OW22232   2.872   1.097  17.976
 3535SOL    HW122233   2.845   1.079  17.886
 3535SOL    HW222234   2.832   1.027  18.027
 3536SOL     OW22235   2.069   0.331   1.470
 3536SOL    HW122236   2.126   0.396   1.428
 3536SOL    HW222237   2.077   0.349   1.564
 3537SOL     OW22238   1.059   3.929  10.271
 3537SOL    HW122239   1.091   3.845  10.305
 3537SOL    HW222240   1.062   3.988  10.346
 3538SOL     OW22241   0.435   2.359  20.286
 3538SOL    HW122242   0.511   2.338  20.341
 3538SOL    HW222243   0.405   2.444  20.318
 3539SOL     OW22244   4.111   0.826   1.175
 3539SOL    HW122245   4.187   0.884   1.165
 3539SOL    HW222246   4.085   0.835   1.267
 3540SOL     OW22247   4.336   2.644   6.802
 3540SOL    HW122248   4.366   2.732   6.779
 3540SOL    HW222249   4.399   2.614   6.867
 3541SOL     OW22250   4.213   2.660  22.883
 3541SOL    HW122251   4.279   2.593  22.902
 3541SOL    HW222252   4.178   2.684  22.969
 3542SOL     OW22253   4.523   0.591  26.257
 3542SOL    HW122254   4.436   0.598  26.296
 3542SOL    HW222255   4.544   0.498  26.264
 3543SOL     OW22256   0.565   3.292  26.921
 3543SOL    HW122257   0.653   3.305  26.887
 3543SOL    HW222258   0.510   3.285  26.843
 3544SOL     OW22259   3.003   1.525  26.282
 3544SOL    HW122260   2.967   1.534  26.194
 3544SOL    HW222261   2.931   1.549  26.340
 3545SOL     OW22262   1.329   1.001  21.908
 3545SOL    HW122263   1.355   0.940  21.839
 3545SOL    HW222264   1.284   1.072  21.862
 3546SOL     OW22265   1.633   0.091  22.097
 3546SOL    HW122266   1.537   0.092  22.095
 3546SOL    HW222267   1.659   0.183  22.090
 3547SOL     OW22268   0.915   0.535  21.450
 3547SOL    HW122269   0.909   0.443  21.476
 3547SOL    HW222270   1.009   0.554  21.452
 3548SOL     OW22271   1.151   2.135   8.199
 3548SOL    HW122272   1.119   2.157   8.287
 3548SOL    HW222273   1.108   2.199   8.142
 3549SOL     OW22274   0.264   4.521   1.966
 3549SOL    HW122275   0.221   4.463   1.903
 3549SOL    HW222276   0.289   4.463   2.038
 3550SOL     OW22277   2.306   3.921  26.870
 3550SOL    HW122278   2.263   4.005  26.886
 3550SOL    HW222279   2.298   3.874  26.953
 3551SOL     OW22280   3.843   1.749   4.828
 3551SOL    HW122281   3.844   1.717   4.918
 3551SOL    HW222282   3.935   1.749   4.801
 3552SOL     OW22283   4.113   4.438   2.085
 3552SOL    HW122284   4.177   4.508   2.101
 3552SOL    HW222285   4.030   4.474   2.117
 3553SOL     OW22286   4.040   2.218  22.180
 3553SOL    HW122287   3.952   2.183  22.192
 3553SOL    HW222288   4.027   2.311  22.161
 3554SOL     OW22289   4.416   2.973   7.526
 3554SOL    HW122290   4.426   3.059   7.566
 3554SOL    HW222291   4.501   2.930   7.540
 3555SOL     OW22292   2.995   0.417   2.488
 3555SOL    HW122293   3.001   0.490   2.550
 3555SOL    HW222294   2.988   0.458   2.402
 3556SOL     OW22295   1.753   2.601  22.573
 3556SOL    HW122296   1.839   2.600  22.531
 3556SOL    HW222297   1.772   2.615  22.666
 3557SOL     OW22298   3.478   3.457  18.973
 3557SOL    HW122299   3.537   3.435  18.901
 3557SOL    HW222300   3.453   3.373  19.011
 3558SOL     OW22301   0.561   3.568  21.202
 3558SOL    HW122302   0.513   3.506  21.148
 3558SOL    HW222303   0.493   3.619  21.247
 3559SOL     OW22304   2.756   0.326  23.979
 3559SOL    HW122305   2.702   0.261  24.024
 3559SOL    HW222306   2.820   0.274  23.930
 3560SOL     OW22307   0.362   4.386   2.310
 3560SOL    HW122308   0.380   4.385   2.404
 3560SOL    HW222309   0.389   4.299   2.279
 3561SOL     OW22310   3.347   4.250   4.687
 3561SOL    HW122311   3.328   4.341   4.663
 3561SOL    HW222312   3.438   4.236   4.660
 3562SOL     OW22313   0.006   1.717   8.007
 3562SOL    HW122314   4.747   1.796   8.045
 3562SOL    HW222315   0.081   1.698   8.064
 3563SOL     OW22316   2.681   3.317  25.722
 3563SOL    HW122317   2.698   3.411  25.730
 3563SOL    HW222318   2.725   3.278  25.797
 3564SOL     OW22319   3.278   4.162  24.418
 3564SOL    HW122320   3.307   4.253  24.423
 3564SOL    HW222321   3.185   4.165  24.441
 3565SOL     OW22322   1.886   1.675  21.129
 3565SOL    HW122323   1.863   1.594  21.083
 3565SOL    HW222324   1.910   1.737  21.060
 3566SOL     OW22325   4.449   0.417  19.688
 3566SOL    HW122326   4.384   0.402  19.620
 3566SOL    HW222327   4.506   0.340  19.684
 3567SOL     OW22328   0.967   1.660  23.365
 3567SOL    HW122329   0.989   1.748  23.334
 3567SOL    HW222330   0.877   1.646  23.336
 3568SOL     OW22331   1.355   4.449  24.464
 3568SOL    HW122332   1.434   4.439  24.411
 3568SOL    HW222333   1.377   4.517  24.528
 3569SOL     OW22334   3.602   0.518   5.318
 3569SOL    HW122335   3.577   0.609   5.305
 3569SOL    HW222336   3.647   0.494   5.237
 3570SOL     OW22337   2.356   4.343   8.901
 3570SOL    HW122338   2.263   4.334   8.921
 3570SOL    HW222339   2.400   4.290   8.968
 3571SOL     OW22340   2.100   4.547   5.554
 3571SOL    HW122341   2.136   4.603   5.623
 3571SOL    HW222342   2.177   4.510   5.511
 3572SOL     OW22343   1.407   3.542   0.409
 3572SOL    HW122344   1.474   3.603   0.378
 3572SOL    HW222345   1.324   3.587   0.392
 3573SOL     OW22346   4.394   0.721  20.501
 3573SOL    HW122347   4.466   0.726  20.438
 3573SOL    HW222348   4.434   0.743  20.585
 3574SOL     OW22349   4.637   1.939   1.377
 3574SOL    HW122350   4.628   1.939   1.472
 3574SOL    HW222351   4.558   1.895   1.345
 3575SOL     OW22352   3.791   1.547  28.054
 3575SOL    HW122353   3.721   1.582  28.000
 3575SOL    HW222354   3.746   1.493  28.119
 3576SOL     OW22355   4.224   1.189  21.013
 3576SOL    HW122356   4.142   1.150  20.984
 3576SOL    HW222357   4.266   1.218  20.932
 3577SOL     OW22358   2.060   3.816  21.505
 3577SOL    HW122359   2.046   3.890  21.446
 3577SOL    HW222360   2.130   3.846  21.564
 3578SOL     OW22361   0.334   4.366   7.630
 3578SOL    HW122362   0.305   4.402   7.546
 3578SOL    HW222363   0.429   4.372   7.628
 3579SOL     OW22364   4.146   3.625  25.836
 3579SOL    HW122365   4.075   3.571  25.869
 3579SOL    HW222366   4.108   3.671  25.761
 3580SOL     OW22367   3.710   0.113  21.732
 3580SOL    HW122368   3.787   0.155  21.771
 3580SOL    HW222369   3.705   0.028  21.775
 3581SOL     OW22370   4.742   0.328  23.012
 3581SOL    HW122371   4.657   0.295  22.984
 3581SOL    HW222372   4.723   0.414  23.049
 3582SOL     OW22373   4.592   1.365  27.167
 3582SOL    HW122374   4.595   1.448  27.119
 3582SOL    HW222375   4.684   1.342  27.180
 3583SOL     OW22376   0.557   1.706  18.909
 3583SOL    HW122377   0.482   1.668  18.864
 3583SOL    HW222378   0.626   1.640  18.901
 3584SOL     OW22379   3.690   1.527   5.320
 3584SOL    HW122380   3.698   1.610   5.368
 3584SOL    HW222381   3.637   1.549   5.244
 3585SOL     OW22382   1.393   4.464   3.577
 3585SOL    HW122383   1.408   4.419   3.660
 3585SOL    HW222384   1.406   4.557   3.597
 3586SOL     OW22385   0.391   2.404  20.706
 3586SOL    HW122386   0.331   2.374  20.774
 3586SOL    HW222387   0.473   2.420  20.753
 3587SOL     OW22388   4.100   1.787  22.519
 3587SOL    HW122389   4.073   1.834  22.598
 3587SOL    HW222390   4.050   1.828  22.448
 3588SOL     OW22391   1.813   0.914   6.681
 3588SOL    HW122392   1.742   0.966   6.720
 3588SOL    HW222393   1.891   0.969   6.690
 3589SOL     OW22394   0.480   3.924   4.350
 3589SOL    HW122395   0.523   3.840   4.336
 3589SOL    HW222396   0.552   3.987   4.355
 3590SOL     OW22397   4.672   1.526  23.801
 3590SOL    HW122398   4.741   1.576  23.757
 3590SOL    HW222399   4.694   1.434  23.783
 3591SOL     OW22400   1.589   4.176  11.847
 3591SOL    HW122401   1.664   4.117  11.851
 3591SOL    HW222402   1.565   4.191  11.939
 3592SOL     OW22403   3.644   1.560  24.313
 3592SOL    HW122404   3.716   1.508  24.348
 3592SOL    HW222405   3.586   1.575  24.388
 3593SOL     OW22406   2.776   0.251   3.524
 3593SOL    HW122407   2.844   0.185   3.541
 3593SOL    HW222408   2.777   0.262   3.429
 3594SOL     OW22409   2.168   0.232   3.201
 3594SOL    HW122410   2.163   0.175   3.277
 3594SOL    HW222411   2.259   0.227   3.173
 3595SOL     OW22412   2.828   0.972   1.604
 3595SOL    HW122413   2.914   1.012   1.619
 3595SOL    HW222414   2.788   1.026   1.536
 3596SOL     OW22415   3.176   1.666   9.258
 3596SOL    HW122416   3.115   1.724   9.212
 3596SOL    HW222417   3.147   1.578   9.235
 3597SOL     OW22418   2.639   0.905   0.654
 3597SOL    HW122419   2.666   0.826   0.608
 3597SOL    HW222420   2.585   0.953   0.590
 3598SOL     OW22421   4.332   2.529   5.423
 3598SOL    HW122422   4.296   2.606   5.378
 3598SOL    HW222423   4.255   2.478   5.449
 3599SOL     OW22424   4.299   1.004   3.030
 3599SOL    HW122425   4.386   0.973   3.004
 3599SOL    HW222426   4.280   0.956   3.111
 3600SOL     OW22427   1.711   3.243  26.019
 3600SOL    HW122428   1.706   3.309  25.950
 3600SOL    HW222429   1.780   3.275  26.078
 3601SOL     OW22430   2.956   2.417  27.744
 3601SOL    HW122431   2.912   2.333  27.755
 3601SOL    HW222432   3.049   2.395  27.744
 3602SOL     OW22433   0.907   2.347  25.885
 3602SOL    HW122434   0.987   2.398  25.870
 3602SOL    HW222435   0.883   2.312  25.799
 3603SOL     OW22436   3.282   4.136   1.013
 3603SOL    HW122437   3.207   4.079   1.028
 3603SOL    HW222438   3.307   4.166   1.100
 3604SOL     OW22439   2.622   2.273  20.607
 3604SOL    HW122440   2.564   2.200  20.630
 3604SOL    HW222441   2.592   2.301  20.520
 3605SOL     OW22442   1.281   3.919   3.596
 3605SOL    HW122443   1.368   3.917   3.635
 3605SOL    HW222444   1.261   4.012   3.588
 3606SOL     OW22445   4.047   1.654   8.632
 3606SOL    HW122446   4.036   1.609   8.715
 3606SOL    HW222447   3.971   1.628   8.580
 3607SOL     OW22448   0.703   3.268   5.878
 3607SOL    HW122449   0.769   3.237   5.816
 3607SOL    HW222450   0.628   3.210   5.864
 3608SOL     OW22451   0.109   0.565   7.788
 3608SOL    HW122452   0.014   0.564   7.773
 3608SOL    HW222453   0.140   0.641   7.739
 3609SOL     OW22454   3.884   0.207  26.208
 3609SOL    HW122455   3.937   0.157  26.270
 3609SOL    HW222456   3.945   0.229  26.137
 3610SOL     OW22457   2.421   0.903   6.778
 3610SOL    HW122458   2.451   0.993   6.793
 3610SOL    HW222459   2.420   0.893   6.683
 3611SOL     OW22460   1.565   0.857   7.319
 3611SOL    HW122461   1.541   0.796   7.389
 3611SOL    HW222462   1.581   0.801   7.243
 3612SOL     OW22463   0.452   2.001  27.342
 3612SOL    HW122464   0.447   1.976  27.434
 3612SOL    HW222465   0.531   2.055  27.336
 3613SOL     OW22466   2.132   2.770  21.134
 3613SOL    HW122467   2.222   2.737  21.141
 3613SOL    HW222468   2.090   2.743  21.216
 3614SOL     OW22469   1.174   1.216  27.487
 3614SOL    HW122470   1.084   1.228  27.457
 3614SOL    HW222471   1.175   1.253  27.575
 3615SOL     OW22472   2.948   0.334  23.535
 3615SOL    HW122473   2.902   0.303  23.457
 3615SOL    HW222474   2.931   0.428  23.538
 3616SOL     OW22475   1.813   0.563  27.598
 3616SOL    HW122476   1.747   0.627  27.627
 3616SOL    HW222477   1.897   0.605  27.617
 3617SOL     OW22478   1.903   1.841   2.423
 3617SOL    HW122479   1.861   1.923   2.397
 3617SOL    HW222480   1.831   1.783   2.446
 3618SOL     OW22481   3.281   3.323  19.837
 3618SOL    HW122482   3.271   3.329  19.932
 3618SOL    HW222483   3.344   3.391  19.815
 3619SOL     OW22484   2.806   0.829  19.470
 3619SOL    HW122485   2.720   0.844  19.509
 3619SOL    HW222486   2.862   0.898  19.506
 3620SOL     OW22487   3.064   0.627  22.504
 3620SOL    HW122488   3.066   0.673  22.420
 3620SOL    HW222489   3.005   0.678  22.559
 3621SOL     OW22490   1.776   4.772  22.602
 3621SOL    HW122491   1.712   4.705  22.627
 3621SOL    HW222492   1.743   0.027  22.519
 3622SOL     OW22493   4.092   3.855  26.417
 3622SOL    HW122494   4.082   3.793  26.345
 3622SOL    HW222495   4.129   3.803  26.488
 3623SOL     OW22496   1.112   3.016  10.140
 3623SOL    HW122497   1.123   3.109  10.119
 3623SOL    HW222498   1.073   3.015  10.227
 3624SOL     OW22499   4.249   2.276  20.331
 3624SOL    HW122500   4.192   2.352  20.346
 3624SOL    HW222501   4.218   2.240  20.248
 3625SOL     OW22502   4.489   1.945  24.272
 3625SOL    HW122503   4.424   1.935  24.203
 3625SOL    HW222504   4.545   2.017  24.242
 3626SOL     OW22505   4.580   0.735   5.971
 3626SOL    HW122506   4.606   0.716   6.061
 3626SOL    HW222507   4.486   0.755   5.976
 3627SOL     OW22508   3.206   2.069  11.742
 3627SOL    HW122509   3.145   2.001  11.713
 3627SOL    HW222510   3.246   2.033  11.821
 3628SOL     OW22511   4.608   0.223  19.651
 3628SOL    HW122512   4.682   0.237  19.592
 3628SOL    HW222513   4.577   0.135  19.630
 3629SOL     OW22514   0.466   2.695   6.340
 3629SOL    HW122515   0.479   2.775   6.391
 3629SOL    HW222516   0.419   2.636   6.399
 3630SOL     OW22517   3.773   3.600  22.390
 3630SOL    HW122518   3.747   3.613  22.299
 3630SOL    HW222519   3.712   3.653  22.440
 3631SOL     OW22520   3.377   2.188  18.854
 3631SOL    HW122521   3.361   2.247  18.780
 3631SOL    HW222522   3.298   2.134  18.858
 3632SOL     OW22523   0.803   3.530   0.710
 3632SOL    HW122524   0.795   3.539   0.615
 3632SOL    HW222525   0.892   3.499   0.724
 3633SOL     OW22526   1.310   3.634   5.311
 3633SOL    HW122527   1.384   3.577   5.291
 3633SOL    HW222528   1.334   3.677   5.393
 3634SOL     OW22529   0.303   0.422   3.538
 3634SOL    HW122530   0.357   0.422   3.459
 3634SOL    HW222531   0.317   0.508   3.577
 3635SOL     OW22532   3.902   0.670  22.423
 3635SOL    HW122533   3.873   0.663  22.514
 3635SOL    HW222534   3.831   0.718  22.379
 3636SOL     OW22535   2.307   3.895   1.415
 3636SOL    HW122536   2.324   3.886   1.509
 3636SOL    HW222537   2.393   3.885   1.374
 3637SOL     OW22538   3.851   1.887  19.635
 3637SOL    HW122539   3.862   1.971  19.591
 3637SOL    HW222540   3.799   1.907  19.713
 3638SOL     OW22541   3.425   3.283   0.232
 3638SOL    HW122542   3.415   3.378   0.242
 3638SOL    HW222543   3.482   3.272   0.156
 3639SOL     OW22544   1.408   1.131   2.147
 3639SOL    HW122545   1.456   1.073   2.087
 3639SOL    HW222546   1.343   1.074   2.188
 3640SOL     OW22547   2.134   4.230  24.669
 3640SOL    HW122548   2.076   4.306  24.672
 3640SOL    HW222549   2.102   4.172  24.738
 3641SOL     OW22550   2.744   0.557  25.986
 3641SOL    HW122551   2.816   0.502  25.956
 3641SOL    HW222552   2.755   0.639  25.938
 3642SOL     OW22553   2.701   4.592   0.740
 3642SOL    HW122554   2.708   4.678   0.699
 3642SOL    HW222555   2.718   4.530   0.669
 3643SOL     OW22556   3.327   4.642   2.146
 3643SOL    HW122557   3.297   4.562   2.188
 3643SOL    HW222558   3.298   4.634   2.055
 3644SOL     OW22559   3.660   0.305   3.782
 3644SOL    HW122560   3.699   0.392   3.783
 3644SOL    HW222561   3.722   0.251   3.732
 3645SOL     OW22562   3.263   1.611   8.198
 3645SOL    HW122563   3.337   1.562   8.233
 3645SOL    HW222564   3.236   1.668   8.270
 3646SOL     OW22565   0.325   4.479   7.393
 3646SOL    HW122566   0.267   4.538   7.344
 3646SOL    HW222567   0.413   4.512   7.375
 3647SOL     OW22568   2.012   2.632  11.974
 3647SOL    HW122569   2.091   2.612  12.024
 3647SOL    HW222570   1.988   2.720  12.002
 3648SOL     OW22571   1.905   3.606  21.676
 3648SOL    HW122572   1.812   3.618  21.697
 3648SOL    HW222573   1.926   3.677  21.615
 3649SOL     OW22574   3.606   0.268  20.648
 3649SOL    HW122575   3.627   0.177  20.666
 3649SOL    HW222576   3.685   0.304  20.608
 3650SOL     OW22577   1.198   0.629   1.731
 3650SOL    HW122578   1.135   0.642   1.802
 3650SOL    HW222579   1.182   0.539   1.701
 3651SOL     OW22580   0.918   3.731  20.753
 3651SOL    HW122581   0.856   3.658  20.746
 3651SOL    HW222582   0.977   3.706  20.824
 3652SOL     OW22583   0.995   3.052  20.742
 3652SOL    HW122584   1.074   3.106  20.744
 3652SOL    HW222585   0.966   3.056  20.651
 3653SOL     OW22586   4.158   0.878  20.648
 3653SOL    HW122587   4.163   0.855  20.555
 3653SOL    HW222588   4.180   0.971  20.650
 3654SOL     OW22589   0.219   3.053   0.450
 3654SOL    HW122590   0.271   3.055   0.370
 3654SOL    HW222591   0.276   3.093   0.516
 3655SOL     OW22592   3.050   0.364   6.295
 3655SOL    HW122593   2.976   0.396   6.346
 3655SOL    HW222594   3.127   0.390   6.345
 3656SOL     OW22595   0.476   2.430   5.506
 3656SOL    HW122596   0.506   2.405   5.419
 3656SOL    HW222597   0.555   2.461   5.551
 3657SOL     OW22598   0.075   4.064  18.734
 3657SOL    HW122599   0.164   4.069  18.770
 3657SOL    HW222600   0.063   3.972  18.711
 3658SOL     OW22601   3.272   2.690  28.362
 3658SOL    HW122602   3.239   2.622  28.420
 3658SOL    HW222603   3.215   2.765  28.379
 3659SOL     OW22604   0.617   3.833  28.255
 3659SOL    HW122605   0.581   3.787  28.331
 3659SOL    HW222606   0.707   3.855  28.281
 3660SOL     OW22607   3.020   1.388  19.623
 3660SOL    HW122608   2.961   1.456  19.656
 3660SOL    HW222609   3.068   1.430  19.552
 3661SOL     OW22610   1.854   2.172  27.899
 3661SOL    HW122611   1.777   2.120  27.923
 3661SOL    HW222612   1.826   2.263  27.909
 3662SOL     OW22613   0.658   3.017  22.797
 3662SOL    HW122614   0.731   3.013  22.735
 3662SOL    HW222615   0.588   2.968  22.755
 3663SOL     OW22616   4.457   1.010  10.117
 3663SOL    HW122617   4.436   1.023  10.024
 3663SOL    HW222618   4.379   1.040  10.163
 3664SOL     OW22619   4.445   4.151  22.169
 3664SOL    HW122620   4.416   4.060  22.175
 3664SOL    HW222621   4.504   4.162  22.244
 3665SOL     OW22622   0.602   1.658  23.978
 3665SOL    HW122623   0.514   1.691  23.998
 3665SOL    HW222624   0.598   1.633  23.886
 3666SOL     OW22625   0.542   4.554  26.426
 3666SOL    HW122626   0.470   4.491  26.427
 3666SOL    HW222627   0.542   4.589  26.337
 3667SOL     OW22628   2.518   2.961  19.506
 3667SOL    HW122629   2.526   3.032  19.570
 3667SOL    HW222630   2.608   2.935  19.487
 3668SOL     OW22631   2.859   3.208  20.841
 3668SOL    HW122632   2.954   3.215  20.851
 3668SOL    HW222633   2.826   3.293  20.870
 3669SOL     OW22634   1.384   3.551   6.083
 3669SOL    HW122635   1.313   3.600   6.041
 3669SOL    HW222636   1.430   3.509   6.011
 3670SOL     OW22637   0.866   1.485   0.264
 3670SOL    HW122638   0.938   1.465   0.324
 3670SOL    HW222639   0.798   1.524   0.320
 3671SOL     OW22640   0.046   0.725   7.267
 3671SOL    HW122641   0.122   0.693   7.315
 3671SOL    HW222642   4.755   0.666   7.293
 3672SOL     OW22643   2.505   4.273  27.359
 3672SOL    HW122644   2.488   4.329  27.435
 3672SOL    HW222645   2.489   4.184  27.391
 3673SOL     OW22646   0.231   2.402  20.916
 3673SOL    HW122647   0.136   2.412  20.916
 3673SOL    HW222648   0.265   2.488  20.940
 3674SOL     OW22649   2.573   2.299   7.554
 3674SOL    HW122650   2.572   2.289   7.459
 3674SOL    HW222651   2.596   2.212   7.587
 3675SOL     OW22652   3.547   0.765  25.999
 3675SOL    HW122653   3.504   0.740  25.917
 3675SOL    HW222654   3.640   0.748  25.983
 3676SOL     OW22655   2.998   3.040   0.431
 3676SOL    HW122656   3.060   3.094   0.382
 3676SOL    HW222657   2.912   3.069   0.400
 3677SOL     OW22658   4.399   1.318  17.182
 3677SOL    HW122659   4.401   1.414  17.185
 3677SOL    HW222660   4.395   1.297  17.089
 3678SOL     OW22661   1.482   3.812  21.659
 3678SOL    HW122662   1.524   3.896  21.638
 3678SOL    HW222663   1.417   3.800  21.589
 3679SOL     OW22664   0.898   0.797   0.652
 3679SOL    HW122665   0.982   0.752   0.648
 3679SOL    HW222666   0.894   0.846   0.570
 3680SOL     OW22667   0.179   0.543   1.851
 3680SOL    HW122668   0.147   0.537   1.761
 3680SOL    HW222669   0.254   0.602   1.845
 3681SOL     OW22670   3.941   0.099   7.084
 3681SOL    HW122671   3.943   0.013   7.126
 3681SOL    HW222672   4.030   0.113   7.053
 3682SOL     OW22673   0.598   0.219  11.390
 3682SOL    HW122674   0.584   0.305  11.430
 3682SOL    HW222675   0.676   0.231  11.336
 3683SOL     OW22676   0.927   0.651   6.998
 3683SOL    HW122677   0.953   0.693   6.916
 3683SOL    HW222678   0.843   0.691   7.020
 3684SOL     OW22679   1.262   3.937  20.530
 3684SOL    HW122680   1.200   3.864  20.526
 3684SOL    HW222681   1.346   3.898  20.507
 3685SOL     OW22682   3.378   2.192  19.307
 3685SOL    HW122683   3.430   2.188  19.387
 3685SOL    HW222684   3.331   2.275  19.314
 3686SOL     OW22685   2.825   0.449   6.450
 3686SOL    HW122686   2.831   0.483   6.539
 3686SOL    HW222687   2.732   0.428   6.438
 3687SOL     OW22688   3.148   2.798  22.572
 3687SOL    HW122689   3.121   2.844  22.652
 3687SOL    HW222690   3.242   2.786  22.582
 3688SOL     OW22691   0.749   2.147   1.307
 3688SOL    HW122692   0.745   2.120   1.399
 3688SOL    HW222693   0.697   2.228   1.304
 3689SOL     OW22694   2.108   4.777  23.768
 3689SOL    HW122695   2.202   4.766  23.782
 3689SOL    HW222696   2.101   0.028  23.678
 3690SOL     OW22697   0.639   0.247   0.553
 3690SOL    HW122698   0.697   0.179   0.587
 3690SOL    HW222699   0.614   0.298   0.630
 3691SOL     OW22700   3.585   4.616   0.460
 3691SOL    HW122701   3.665   4.634   0.411
 3691SOL    HW222702   3.606   4.643   0.550
 3692SOL     OW22703   2.769   1.869  24.017
 3692SOL    HW122704   2.781   1.938  24.082
 3692SOL    HW222705   2.721   1.911  23.946
 3693SOL     OW22706   1.862   1.410   3.589
 3693SOL    HW122707   1.874   1.315   3.593
 3693SOL    HW222708   1.862   1.431   3.496
 3694SOL     OW22709   0.657   3.631   9.583
 3694SOL    HW122710   0.693   3.715   9.556
 3694SOL    HW222711   0.653   3.635   9.678
 3695SOL     OW22712   3.644   2.766   0.693
 3695SOL    HW122713   3.718   2.776   0.633
 3695SOL    HW222714   3.597   2.849   0.688
 3696SOL     OW22715   2.079   1.480   8.009
 3696SOL    HW122716   2.132   1.453   7.934
 3696SOL    HW222717   1.989   1.467   7.980
 3697SOL     OW22718   3.873   1.372  21.727
 3697SOL    HW122719   3.843   1.448  21.778
 3697SOL    HW222720   3.947   1.338  21.777
 3698SOL     OW22721   2.005   4.380  18.675
 3698SOL    HW122722   2.068   4.325  18.629
 3698SOL    HW222723   1.920   4.358  18.637
 3699SOL     OW22724   1.048   4.708  20.454
 3699SOL    HW122725   1.081   4.765  20.523
 3699SOL    HW222726   1.126   4.684  20.404
 3700SOL     OW22727   2.052   2.417  23.493
 3700SOL    HW122728   1.963   2.383  23.485
 3700SOL    HW222729   2.049   2.476  23.568
 3701SOL     OW22730   3.500   2.064  25.211
 3701SOL    HW122731   3.584   2.073  25.165
 3701SOL    HW222732   3.451   2.142  25.186
 3702SOL     OW22733   0.248   0.730  26.744
 3702SOL    HW122734   0.300   0.701  26.669
 3702SOL    HW222735   0.313   0.751  26.811
 3703SOL     OW22736   3.268   3.315  25.549
 3703SOL    HW122737   3.192   3.319  25.607
 3703SOL    HW222738   3.331   3.374  25.589
 3704SOL     OW22739   1.094   2.735   4.596
 3704SOL    HW122740   1.181   2.750   4.633
 3704SOL    HW222741   1.034   2.772   4.661
 3705SOL     OW22742   0.764   3.027   0.945
 3705SOL    HW122743   0.770   3.075   1.028
 3705SOL    HW222744   0.836   2.965   0.948
 3706SOL     OW22745   0.659   3.231   0.433
 3706SOL    HW122746   0.752   3.244   0.416
 3706SOL    HW222747   0.656   3.193   0.521
 3707SOL     OW22748   1.321   4.428   4.230
 3707SOL    HW122749   1.280   4.477   4.301
 3707SOL    HW222750   1.413   4.424   4.255
 3708SOL     OW22751   1.696   4.150  22.966
 3708SOL    HW122752   1.677   4.240  22.938
 3708SOL    HW222753   1.735   4.160  23.053
 3709SOL     OW22754   1.188   2.754  23.890
 3709SOL    HW122755   1.153   2.744  23.802
 3709SOL    HW222756   1.136   2.825  23.928
 3710SOL     OW22757   4.197   4.669  23.861
 3710SOL    HW122758   4.183   4.576  23.877
 3710SOL    HW222759   4.283   4.674  23.820
 3711SOL     OW22760   1.214   1.365  24.026
 3711SOL    HW122761   1.169   1.438  23.984
 3711SOL    HW222762   1.192   1.289  23.972
 3712SOL     OW22763   1.080   1.431  26.370
 3712SOL    HW122764   1.086   1.480  26.452
 3712SOL    HW222765   1.167   1.392  26.360
 3713SOL     OW22766   4.418   3.098   3.776
 3713SOL    HW122767   4.502   3.090   3.820
 3713SOL    HW222768   4.374   3.170   3.821
 3714SOL     OW22769   3.741   1.541  26.156
 3714SOL    HW122770   3.653   1.560  26.188
 3714SOL    HW222771   3.778   1.484  26.223
 3715SOL     OW22772   0.649   1.442  23.462
 3715SOL    HW122773   0.623   1.364  23.413
 3715SOL    HW222774   0.672   1.506  23.395
 3716SOL     OW22775   2.180   4.636  22.802
 3716SOL    HW122776   2.248   4.656  22.866
 3716SOL    HW222777   2.227   4.621  22.720
 3717SOL     OW22778   1.113   4.086  10.929
 3717SOL    HW122779   1.021   4.072  10.907
 3717SOL    HW222780   1.111   4.130  11.014
 3718SOL     OW22781   0.240   0.700  11.415
 3718SOL    HW122782   0.319   0.747  11.443
 3718SOL    HW222783   0.206   0.751  11.341
 3719SOL     OW22784   0.341   1.098  21.832
 3719SOL    HW122785   0.288   1.130  21.905
 3719SOL    HW222786   0.297   1.131  21.753
 3720SOL     OW22787   4.358   4.385  20.837
 3720SOL    HW122788   4.265   4.394  20.859
 3720SOL    HW222789   4.359   4.319  20.768
 3721SOL     OW22790   3.892   2.937   1.547
 3721SOL    HW122791   3.835   2.957   1.473
 3721SOL    HW222792   3.968   2.994   1.536
 3722SOL     OW22793   4.298   3.616   9.865
 3722SOL    HW122794   4.308   3.659   9.950
 3722SOL    HW222795   4.273   3.687   9.806
 3723SOL     OW22796   0.006   1.292  21.426
 3723SOL    HW122797   0.053   1.337  21.355
 3723SOL    HW222798   4.715   1.351  21.449
 3724SOL     OW22799   0.302   3.728   5.562
 3724SOL    HW122800   0.303   3.635   5.584
 3724SOL    HW222801   0.305   3.773   5.647
 3725SOL     OW22802   0.945   4.425   7.811
 3725SOL    HW122803   0.889   4.371   7.866
 3725SOL    HW222804   0.885   4.485   7.767
 3726SOL     OW22805   1.377   1.712  19.002
 3726SOL    HW122806   1.378   1.799  19.042
 3726SOL    HW222807   1.319   1.661  19.058
 3727SOL     OW22808   1.930   2.126  27.599
 3727SOL    HW122809   1.927   2.075  27.680
 3727SOL    HW222810   1.840   2.123  27.565
 3728SOL     OW22811   2.229   4.755   2.189
 3728SOL    HW122812   2.298   4.723   2.132
 3728SOL    HW222813   2.219   4.687   2.255
 3729SOL     OW22814   4.580   0.224   8.216
 3729SOL    HW122815   4.503   0.167   8.209
 3729SOL    HW222816   4.559   0.285   8.287
 3730SOL     OW22817   1.122   1.407   3.037
 3730SOL    HW122818   1.072   1.364   3.106
 3730SOL    HW222819   1.101   1.500   3.045
 3731SOL     OW22820   0.691   4.012  21.539
 3731SOL    HW122821   0.619   4.070  21.514
 3731SOL    HW222822   0.681   4.000  21.633
 3732SOL     OW22823   2.256   1.074   4.165
 3732SOL    HW122824   2.263   1.041   4.075
 3732SOL    HW222825   2.223   0.999   4.215
 3733SOL     OW22826   0.860   4.775  23.370
 3733SOL    HW122827   0.876   0.088  23.356
 3733SOL    HW222828   0.927   4.731  23.317
 3734SOL     OW22829   3.269   2.418   5.042
 3734SOL    HW122830   3.316   2.386   4.965
 3734SOL    HW222831   3.300   2.508   5.053
 3735SOL     OW22832   3.106   4.598  11.400
 3735SOL    HW122833   3.186   4.644  11.425
 3735SOL    HW222834   3.060   4.584  11.483
 3736SOL     OW22835   4.431   0.171  22.302
 3736SOL    HW122836   4.479   0.093  22.330
 3736SOL    HW222837   4.490   0.244  22.322
 3737SOL     OW22838   3.359   4.256  27.524
 3737SOL    HW122839   3.304   4.313  27.578
 3737SOL    HW222840   3.297   4.203  27.474
 3738SOL     OW22841   2.415   0.512  27.685
 3738SOL    HW122842   2.472   0.439  27.709
 3738SOL    HW222843   2.410   0.566  27.764
 3739SOL     OW22844   3.726   2.731  25.555
 3739SOL    HW122845   3.738   2.808  25.610
 3739SOL    HW222846   3.813   2.692  25.549
 3740SOL     OW22847   2.306   0.434  12.524
 3740SOL    HW122848   2.278   0.455  12.613
 3740SOL    HW222849   2.290   0.514  12.474
 3741SOL     OW22850   1.952   0.615   2.905
 3741SOL    HW122851   1.994   0.538   2.944
 3741SOL    HW222852   2.010   0.639   2.833
 3742SOL     OW22853   1.684   2.429   5.709
 3742SOL    HW122854   1.778   2.424   5.724
 3742SOL    HW222855   1.661   2.342   5.676
 3743SOL     OW22856   2.107   2.758  27.968
 3743SOL    HW122857   2.127   2.843  27.929
 3743SOL    HW222858   2.107   2.774  28.062
 3744SOL     OW22859   1.442   2.080   3.804
 3744SOL    HW122860   1.446   2.160   3.752
 3744SOL    HW222861   1.484   2.014   3.749
 3745SOL     OW22862   2.093   2.661   1.366
 3745SOL    HW122863   2.082   2.745   1.411
 3745SOL    HW222864   2.028   2.663   1.295
 3746SOL     OW22865   1.227   3.211  28.119
 3746SOL    HW122866   1.176   3.155  28.060
 3746SOL    HW222867   1.289   3.152  28.161
 3747SOL     OW22868   3.303   4.511   6.956
 3747SOL    HW122869   3.238   4.461   7.006
 3747SOL    HW222870   3.349   4.563   7.022
 3748SOL     OW22871   3.149   1.865  20.702
 3748SOL    HW122872   3.192   1.829  20.625
 3748SOL    HW222873   3.208   1.843  20.775
 3749SOL     OW22874   4.090   4.355  20.314
 3749SOL    HW122875   4.116   4.442  20.283
 3749SOL    HW222876   4.168   4.301  20.304
 3750SOL     OW22877   3.604   3.153  20.306
 3750SOL    HW122878   3.594   3.096  20.230
 3750SOL    HW222879   3.649   3.231  20.272
 3751SOL     OW22880   1.674   0.406   6.749
 3751SOL    HW122881   1.764   0.379   6.733
 3751SOL    HW222882   1.679   0.500   6.767
 3752SOL     OW22883   1.786   3.735   8.077
 3752SOL    HW122884   1.772   3.719   8.170
 3752SOL    HW222885   1.773   3.829   8.066
 3753SOL     OW22886   2.547   1.559  25.576
 3753SOL    HW122887   2.560   1.468  25.601
 3753SOL    HW222888   2.561   1.560  25.481
 3754SOL     OW22889   1.132   1.929   0.256
 3754SOL    HW122890   1.157   1.860   0.195
 3754SOL    HW222891   1.215   1.966   0.285
 3755SOL     OW22892   0.712   4.446  26.847
 3755SOL    HW122893   0.775   4.482  26.785
 3755SOL    HW222894   0.645   4.406  26.792
 3756SOL     OW22895   3.224   4.274   8.563
 3756SOL    HW122896   3.164   4.348   8.553
 3756SOL    HW222897   3.214   4.247   8.654
 3757SOL     OW22898   2.042   1.905   5.474
 3757SOL    HW122899   2.001   1.825   5.441
 3757SOL    HW222900   2.118   1.918   5.417
 3758SOL     OW22901   1.783   1.063  20.933
 3758SOL    HW122902   1.751   0.993  20.876
 3758SOL    HW222903   1.815   1.130  20.873
 3759SOL     OW22904   2.741   1.235  22.736
 3759SOL    HW122905   2.822   1.277  22.707
 3759SOL    HW222906   2.730   1.161  22.677
 3760SOL     OW22907   2.857   4.119  24.833
 3760SOL    HW122908   2.786   4.098  24.773
 3760SOL    HW222909   2.820   4.185  24.892
 3761SOL     OW22910   4.333   2.510  21.209
 3761SOL    HW122911   4.299   2.498  21.298
 3761SOL    HW222912   4.339   2.421  21.174
 3762SOL     OW22913   3.933   2.943  22.967
 3762SOL    HW122914   4.028   2.952  22.958
 3762SOL    HW222915   3.918   2.849  22.969
 3763SOL     OW22916   3.942   1.143   5.573
 3763SOL    HW122917   3.888   1.066   5.556
 3763SOL    HW222918   4.010   1.140   5.506
 3764SOL     OW22919   2.761   4.350  22.433
 3764SOL    HW122920   2.836   4.401  22.403
 3764SOL    HW222921   2.692   4.415  22.448
 3765SOL     OW22922   3.667   2.732  25.267
 3765SOL    HW122923   3.693   2.750  25.357
 3765SOL    HW222924   3.744   2.690  25.228
 3766SOL     OW22925   4.281   1.128   8.211
 3766SOL    HW122926   4.329   1.084   8.281
 3766SOL    HW222927   4.313   1.086   8.131
 3767SOL     OW22928   3.112   1.962   8.015
 3767SOL    HW122929   3.194   1.913   8.023
 3767SOL    HW222930   3.135   2.037   7.960
 3768SOL     OW22931   3.601   1.538   4.065
 3768SOL    HW122932   3.669   1.583   4.115
 3768SOL    HW222933   3.520   1.559   4.111
 3769SOL     OW22934   2.542   0.268   1.267
 3769SOL    HW122935   2.601   0.319   1.322
 3769SOL    HW222936   2.471   0.243   1.326
 3770SOL     OW22937   0.539   3.112  25.343
 3770SOL    HW122938   0.463   3.133  25.288
 3770SOL    HW222939   0.602   3.182  25.324
 3771SOL     OW22940   4.643   0.789   9.549
 3771SOL    HW122941   4.571   0.829   9.598
 3771SOL    HW222942   4.714   0.781   9.613
 3772SOL     OW22943   2.750   2.861   0.224
 3772SOL    HW122944   2.775   2.823   0.140
 3772SOL    HW222945   2.705   2.790   0.270
 3773SOL     OW22946   4.491   2.560   8.799
 3773SOL    HW122947   4.417   2.545   8.858
 3773SOL    HW222948   4.533   2.474   8.790
 3774SOL     OW22949   4.077   4.392   0.808
 3774SOL    HW122950   4.143   4.337   0.766
 3774SOL    HW222951   4.100   4.481   0.782
 3775SOL     OW22952   0.059   1.476  20.783
 3775SOL    HW122953   0.038   1.559  20.740
 3775SOL    HW222954   0.033   1.489  20.874
 3776SOL     OW22955   4.653   0.945   2.695
 3776SOL    HW122956   4.713   0.999   2.644
 3776SOL    HW222957   4.631   0.872   2.637
 3777SOL     OW22958   2.348   1.413   5.288
 3777SOL    HW122959   2.435   1.436   5.321
 3777SOL    HW222960   2.306   1.367   5.361
 3778SOL     OW22961   4.136   3.514   7.372
 3778SOL    HW122962   4.181   3.561   7.302
 3778SOL    HW222963   4.043   3.530   7.356
 3779SOL     OW22964   2.134   0.099   2.766
 3779SOL    HW122965   2.214   0.051   2.744
 3779SOL    HW222966   2.131   0.171   2.703
 3780SOL     OW22967   2.746   4.113  24.081
 3780SOL    HW122968   2.841   4.109  24.074
 3780SOL    HW222969   2.728   4.109  24.175
 3781SOL     OW22970   0.840   3.316  19.282
 3781SOL    HW122971   0.853   3.283  19.371
 3781SOL    HW222972   0.787   3.249  19.239
 3782SOL     OW22973   2.255   1.800   2.644
 3782SOL    HW122974   2.247   1.796   2.549
 3782SOL    HW222975   2.298   1.718   2.668
 3783SOL     OW22976   0.075   1.437   4.992
 3783SOL    HW122977   0.081   1.468   5.082
 3783SOL    HW222978   0.052   1.515   4.941
 3784SOL     OW22979   3.154   3.756   8.390
 3784SOL    HW122980   3.228   3.816   8.391
 3784SOL    HW222981   3.194   3.669   8.395
 3785SOL     OW22982   3.210   2.833  20.687
 3785SOL    HW122983   3.258   2.911  20.713
 3785SOL    HW222984   3.264   2.760  20.718
 3786SOL     OW22985   3.411   2.537  27.598
 3786SOL    HW122986   3.499   2.502  27.608
 3786SOL    HW222987   3.373   2.533  27.686
 3787SOL     OW22988   4.100   0.124  27.899
 3787SOL    HW122989   4.097   0.219  27.907
 3787SOL    HW222990   4.008   0.098  27.889
 3788SOL     OW22991   2.131   2.326  27.051
 3788SOL    HW122992   2.147   2.419  27.034
 3788SOL    HW222993   2.043   2.323  27.089
 3789SOL     OW22994   0.888   1.420   5.162
 3789SOL    HW122995   0.972   1.398   5.202
 3789SOL    HW222996   0.831   1.443   5.236
 3790SOL     OW22997   1.692   3.322  18.074
 3790SOL    HW122998   1.728   3.394  18.022
 3790SOL    HW222999   1.727   3.243  18.033
 3791SOL     OW23000   4.526   0.410  24.957
 3791SOL    HW123001   4.481   0.402  25.041
 3791SOL    HW223002   4.576   0.329  24.950
 3792SOL     OW23003   3.958   2.618  23.755
 3792SOL    HW123004   3.865   2.598  23.767
 3792SOL    HW223005   4.002   2.571  23.826
 3793SOL     OW23006   3.991   4.635   7.165
 3793SOL    HW123007   4.040   4.631   7.247
 3793SOL    HW223008   4.018   4.557   7.117
 3794SOL     OW23009   4.049   2.070  26.473
 3794SOL    HW123010   4.049   2.008  26.400
 3794SOL    HW223011   4.137   2.107  26.472
 3795SOL     OW23012   2.097   4.484  24.462
 3795SOL    HW123013   2.183   4.503  24.500
 3795SOL    HW223014   2.081   4.557  24.402
 3796SOL     OW23015   1.789   1.830  24.949
 3796SOL    HW123016   1.825   1.876  25.025
 3796SOL    HW223017   1.864   1.814  24.892
 3797SOL     OW23018   0.827   4.160   9.079
 3797SOL    HW123019   0.791   4.244   9.106
 3797SOL    HW223020   0.772   4.133   9.005
 3798SOL     OW23021   4.065   1.641  28.044
 3798SOL    HW123022   3.990   1.692  28.013
 3798SOL    HW223023   4.027   1.565  28.088
 3799SOL     OW23024   0.117   3.431  24.214
 3799SOL    HW123025   0.162   3.513  24.192
 3799SOL    HW223026   0.068   3.409  24.135
 3800SOL     OW23027   0.979   0.449  10.672
 3800SOL    HW123028   0.900   0.395  10.680
 3800SOL    HW223029   1.018   0.447  10.759
 3801SOL     OW23030   0.568   1.628   9.328
 3801SOL    HW123031   0.576   1.695   9.260
 3801SOL    HW223032   0.655   1.589   9.334
 3802SOL     OW23033   3.764   2.411   2.370
 3802SOL    HW123034   3.711   2.491   2.371
 3802SOL    HW223035   3.745   2.369   2.454
 3803SOL     OW23036   4.076   4.104   4.721
 3803SOL    HW123037   4.167   4.096   4.691
 3803SOL    HW223038   4.048   4.014   4.737
 3804SOL     OW23039   0.336   1.174  20.459
 3804SOL    HW123040   0.244   1.180  20.484
 3804SOL    HW223041   0.379   1.243  20.509
 3805SOL     OW23042   3.438   2.707   6.226
 3805SOL    HW123043   3.530   2.684   6.211
 3805SOL    HW223044   3.408   2.646   6.294
 3806SOL     OW23045   3.006   0.909   2.777
 3806SOL    HW123046   2.990   0.935   2.686
 3806SOL    HW223047   2.919   0.904   2.817
 3807SOL     OW23048   1.759   0.211   5.892
 3807SOL    HW123049   1.719   0.192   5.807
 3807SOL    HW223050   1.694   0.182   5.956
 3808SOL     OW23051   2.181   0.767   3.853
 3808SOL    HW123052   2.093   0.772   3.815
 3808SOL    HW223053   2.172   0.706   3.926
 3809SOL     OW23054   4.421   3.750   9.361
 3809SOL    HW123055   4.429   3.813   9.290
 3809SOL    HW223056   4.486   3.778   9.425
 3810SOL     OW23057   2.311   0.810  19.635
 3810SOL    HW123058   2.306   0.791  19.541
 3810SOL    HW223059   2.227   0.852  19.655
 3811SOL     OW23060   3.626   2.872  26.739
 3811SOL    HW123061   3.621   2.778  26.756
 3811SOL    HW223062   3.538   2.896  26.709
 3812SOL     OW23063   2.368   1.948   2.891
 3812SOL    HW123064   2.311   2.025   2.897
 3812SOL    HW223065   2.308   1.873   2.894
 3813SOL     OW23066   0.103   2.039   3.032
 3813SOL    HW123067   0.132   2.026   2.942
 3813SOL    HW223068   0.075   1.952   3.061
 3814SOL     OW23069   1.668   1.809   5.590
 3814SOL    HW123070   1.651   1.807   5.684
 3814SOL    HW223071   1.725   1.734   5.574
 3815SOL     OW23072   3.282   3.271  16.822
 3815SOL    HW123073   3.251   3.329  16.752
 3815SOL    HW223074   3.377   3.280  16.820
 3816SOL     OW23075   4.655   2.473   4.815
 3816SOL    HW123076   4.684   2.557   4.850
 3816SOL    HW223077   4.573   2.455   4.861
 3817SOL     OW23078   0.311   3.793  28.378
 3817SOL    HW123079   0.274   3.844  28.306
 3817SOL    HW223080   0.246   3.800  28.448
 3818SOL     OW23081   3.640   4.686   3.369
 3818SOL    HW123082   3.713   4.725   3.418
 3818SOL    HW223083   3.609   4.757   3.312
 3819SOL     OW23084   2.912   4.074   6.256
 3819SOL    HW123085   2.954   3.991   6.234
 3819SOL    HW223086   2.984   4.131   6.283
 3820SOL     OW23087   4.549   0.257  21.334
 3820SOL    HW123088   4.633   0.301  21.345
 3820SOL    HW223089   4.544   0.195  21.407
 3821SOL     OW23090   1.605   4.473   0.624
 3821SOL    HW123091   1.639   4.404   0.681
 3821SOL    HW223092   1.593   4.549   0.681
 3822SOL     OW23093   1.695   1.012  23.936
 3822SOL    HW123094   1.630   1.057  23.883
 3822SOL    HW223095   1.745   1.083  23.977
 3823SOL     OW23096   4.187   3.386   5.009
 3823SOL    HW123097   4.253   3.453   5.025
 3823SOL    HW223098   4.199   3.363   4.917
 3824SOL     OW23099   4.343   4.679  18.700
 3824SOL    HW123100   4.345   4.709  18.609
 3824SOL    HW223101   4.326   4.585  18.693
 3825SOL     OW23102   2.783   1.465   6.900
 3825SOL    HW123103   2.853   1.413   6.940
 3825SOL    HW223104   2.715   1.469   6.967
 3826SOL     OW23105   2.687   2.014  28.421
 3826SOL    HW123106   2.772   2.010  28.465
 3826SOL    HW223107   2.702   1.970  28.337
 3827SOL     OW23108   0.443   4.395   8.952
 3827SOL    HW123109   0.379   4.341   8.998
 3827SOL    HW223110   0.402   4.481   8.945
 3828SOL     OW23111   3.572   0.982   0.788
 3828SOL    HW123112   3.602   1.047   0.851
 3828SOL    HW223113   3.515   1.030   0.729
 3829SOL     OW23114   1.640   2.430  26.068
 3829SOL    HW123115   1.613   2.514  26.105
 3829SOL    HW223116   1.558   2.389  26.039
 3830SOL     OW23117   0.308   2.529  24.883
 3830SOL    HW123118   0.264   2.603  24.841
 3830SOL    HW223119   0.245   2.457  24.877
 3831SOL     OW23120   0.933   1.778  23.053
 3831SOL    HW123121   0.974   1.792  23.139
 3831SOL    HW223122   0.935   1.683  23.040
 3832SOL     OW23123   1.753   4.507   6.935
 3832SOL    HW123124   1.706   4.424   6.924
 3832SOL    HW223125   1.845   4.482   6.941
 3833SOL     OW23126   1.164   2.186   7.428
 3833SOL    HW123127   1.199   2.182   7.339
 3833SOL    HW223128   1.178   2.277   7.455
 3834SOL     OW23129   3.770   3.986  19.683
 3834SOL    HW123130   3.725   3.922  19.738
 3834SOL    HW223131   3.789   4.059  19.742
 3835SOL     OW23132   0.358   0.562  25.406
 3835SOL    HW123133   0.320   0.575  25.493
 3835SOL    HW223134   0.389   0.471  25.407
 3836SOL     OW23135   1.819   1.762  18.479
 3836SOL    HW123136   1.895   1.819  18.465
 3836SOL    HW223137   1.856   1.683  18.520
 3837SOL     OW23138   3.270   3.495   8.819
 3837SOL    HW123139   3.192   3.549   8.810
 3837SOL    HW223140   3.263   3.456   8.906
 3838SOL     OW23141   1.622   3.612   8.890
 3838SOL    HW123142   1.681   3.581   8.958
 3838SOL    HW223143   1.541   3.634   8.936
 3839SOL     OW23144   0.334   2.238  22.153
 3839SOL    HW123145   0.269   2.231  22.083
 3839SOL    HW223146   0.418   2.224  22.109
 3840SOL     OW23147   2.677   0.108  27.412
 3840SOL    HW123148   2.735   0.180  27.439
 3840SOL    HW223149   2.629   0.143  27.337
 3841SOL     OW23150   4.602   3.783  10.483
 3841SOL    HW123151   4.622   3.804  10.574
 3841SOL    HW223152   4.596   3.688  10.481
 3842SOL     OW23153   4.694   1.751  27.893
 3842SOL    HW123154   4.674   1.823  27.833
 3842SOL    HW223155   4.774   1.779  27.938
 3843SOL     OW23156   2.433   3.970  22.865
 3843SOL    HW123157   2.391   4.012  22.790
 3843SOL    HW223158   2.521   3.947  22.834
 3844SOL     OW23159   2.975   0.149  23.922
 3844SOL    HW123160   3.058   0.167  23.966
 3844SOL    HW223161   2.998   0.140  23.830
 3845SOL     OW23162   1.072   3.801   2.610
 3845SOL    HW123163   1.043   3.711   2.593
 3845SOL    HW223164   1.167   3.794   2.618
 3846SOL     OW23165   2.270   1.196  27.072
 3846SOL    HW123166   2.327   1.268  27.046
 3846SOL    HW223167   2.228   1.226  27.152
 3847SOL     OW23168   2.178   1.841  20.676
 3847SOL    HW123169   2.172   1.807  20.765
 3847SOL    HW223170   2.161   1.765  20.620
 3848SOL     OW23171   0.048   0.367   3.420
 3848SOL    HW123172   0.141   0.352   3.436
 3848SOL    HW223173   0.035   0.461   3.435
 3849SOL     OW23174   2.639   4.766  26.028
 3849SOL    HW123175   2.577   0.010  25.959
 3849SOL    HW223176   2.702   4.709  25.984
 3850SOL     OW23177   0.791   3.088  19.776
 3850SOL    HW123178   0.875   3.042  19.771
 3850SOL    HW223179   0.736   3.032  19.831
 3851SOL     OW23180   2.731   1.207   1.423
 3851SOL    HW123181   2.705   1.187   1.333
 3851SOL    HW223182   2.649   1.205   1.473
 3852SOL     OW23183   1.386   2.960  20.426
 3852SOL    HW123184   1.345   3.046  20.427
 3852SOL    HW223185   1.405   2.943  20.334
 3853SOL     OW23186   2.194   1.516   7.255
 3853SOL    HW123187   2.283   1.493   7.281
 3853SOL    HW223188   2.139   1.449   7.296
 3854SOL     OW23189   0.751   2.618  22.050
 3854SOL    HW123190   0.795   2.678  22.110
 3854SOL    HW223191   0.701   2.560  22.107
 3855SOL     OW23192   3.480   2.140  26.663
 3855SOL    HW123193   3.550   2.113  26.723
 3855SOL    HW223194   3.458   2.229  26.690
 3856SOL     OW23195   3.918   1.398  27.666
 3856SOL    HW123196   3.978   1.473  27.666
 3856SOL    HW223197   3.833   1.436  27.645
 3857SOL     OW23198   1.633   2.487   4.927
 3857SOL    HW123199   1.675   2.573   4.924
 3857SOL    HW223200   1.584   2.481   4.845
 3858SOL     OW23201   3.274   3.078  22.392
 3858SOL    HW123202   3.292   2.994  22.349
 3858SOL    HW223203   3.195   3.062  22.444
 3859SOL     OW23204   3.676   1.443  22.849
 3859SOL    HW123205   3.649   1.371  22.906
 3859SOL    HW223206   3.736   1.495  22.903
 3860SOL     OW23207   0.341   4.548  21.227
 3860SOL    HW123208   0.308   4.629  21.188
 3860SOL    HW223209   0.284   4.480  21.192
 3861SOL     OW23210   3.528   3.912   2.286
 3861SOL    HW123211   3.441   3.936   2.318
 3861SOL    HW223212   3.588   3.968   2.336
 3862SOL     OW23213   3.095   3.053  10.760
 3862SOL    HW123214   3.140   3.121  10.809
 3862SOL    HW223215   3.163   2.989  10.740
 3863SOL     OW23216   4.695   3.265  24.327
 3863SOL    HW123217   4.685   3.229  24.415
 3863SOL    HW223218   4.771   3.323  24.334
 3864SOL     OW23219   4.422   1.918  23.382
 3864SOL    HW123220   4.497   1.971  23.355
 3864SOL    HW223221   4.392   1.876  23.302
 3865SOL     OW23222   0.470   1.945   4.570
 3865SOL    HW123223   0.547   1.951   4.626
 3865SOL    HW223224   0.397   1.966   4.628
 3866SOL     OW23225   4.016   4.263   6.815
 3866SOL    HW123226   3.940   4.213   6.785
 3866SOL    HW223227   4.008   4.348   6.771
 3867SOL     OW23228   1.331   1.522  27.508
 3867SOL    HW123229   1.269   1.541  27.438
 3867SOL    HW223230   1.411   1.569  27.482
 3868SOL     OW23231   4.033   2.497   4.860
 3868SOL    HW123232   3.952   2.502   4.810
 3868SOL    HW223233   4.089   2.439   4.809
 3869SOL     OW23234   3.117   2.238   4.810
 3869SOL    HW123235   3.180   2.188   4.862
 3869SOL    HW223236   3.072   2.294   4.874
 3870SOL     OW23237   4.590   0.011  22.082
 3870SOL    HW123238   4.680   0.028  22.109
 3870SOL    HW223239   4.555   0.097  22.061
 3871SOL     OW23240   3.734   0.742  23.398
 3871SOL    HW123241   3.655   0.744  23.452
 3871SOL    HW223242   3.789   0.812  23.434
 3872SOL     OW23243   2.161   4.703  11.643
 3872SOL    HW123244   2.254   4.709  11.666
 3872SOL    HW223245   2.115   4.746  11.715
 3873SOL     OW23246   3.895   2.294   8.819
 3873SOL    HW123247   3.879   2.388   8.809
 3873SOL    HW223248   3.831   2.253   8.761
 3874SOL     OW23249   0.768   1.080   9.892
 3874SOL    HW123250   0.852   1.035   9.898
 3874SOL    HW223251   0.791   1.173   9.898
 3875SOL     OW23252   4.744   1.031  28.023
 3875SOL    HW123253   0.045   1.031  28.073
 3875SOL    HW223254   4.687   1.090  28.071
 3876SOL     OW23255   1.346   0.317  23.137
 3876SOL    HW123256   1.324   0.408  23.156
 3876SOL    HW223257   1.335   0.309  23.042
 3877SOL     OW23258   3.212   3.527  22.911
 3877SOL    HW123259   3.196   3.434  22.926
 3877SOL    HW223260   3.166   3.570  22.983
 3878SOL     OW23261   1.005   0.895  28.124
 3878SOL    HW123262   0.992   0.834  28.052
 3878SOL    HW223263   0.920   0.939  28.133
 3879SOL     OW23264   0.411   4.361   0.832
 3879SOL    HW123265   0.482   4.416   0.798
 3879SOL    HW223266   0.410   4.285   0.774
 3880SOL     OW23267   2.309   0.540  16.627
 3880SOL    HW123268   2.277   0.493  16.550
 3880SOL    HW223269   2.401   0.556  16.608
 3881SOL     OW23270   2.061   2.930   8.146
 3881SOL    HW123271   2.081   2.840   8.170
 3881SOL    HW223272   2.078   2.981   8.225
 3882SOL     OW23273   4.112   0.460   7.082
 3882SOL    HW123274   4.140   0.545   7.115
 3882SOL    HW223275   4.075   0.416   7.159
 3883SOL     OW23276   0.406   3.432  22.946
 3883SOL    HW123277   0.438   3.376  22.875
 3883SOL    HW223278   0.430   3.521  22.919
 3884SOL     OW23279   3.767   2.353   4.940
 3884SOL    HW123280   3.839   2.290   4.938
 3884SOL    HW223281   3.764   2.390   4.852
 3885SOL     OW23282   4.070   2.624   2.167
 3885SOL    HW123283   4.058   2.703   2.220
 3885SOL    HW223284   4.075   2.553   2.231
 3886SOL     OW23285   1.793   1.421  21.031
 3886SOL    HW123286   1.830   1.393  20.947
 3886SOL    HW223287   1.699   1.429  21.015
 3887SOL     OW23288   3.619   2.368   8.384
 3887SOL    HW123289   3.677   2.442   8.366
 3887SOL    HW223290   3.647   2.299   8.324
 3888SOL     OW23291   0.993   4.417   4.196
 3888SOL    HW123292   1.079   4.398   4.233
 3888SOL    HW223293   0.960   4.490   4.248
 3889SOL     OW23294   4.112   4.627   7.428
 3889SOL    HW123295   4.069   4.555   7.475
 3889SOL    HW223296   4.205   4.617   7.448
 3890SOL     OW23297   1.178   0.476   6.416
 3890SOL    HW123298   1.212   0.393   6.449
 3890SOL    HW223299   1.249   0.512   6.364
 3891SOL     OW23300   0.944   2.662   4.231
 3891SOL    HW123301   1.026   2.614   4.243
 3891SOL    HW223302   0.915   2.639   4.143
 3892SOL     OW23303   1.793   0.091  25.806
 3892SOL    HW123304   1.740   0.157  25.762
 3892SOL    HW223305   1.873   0.137  25.831
 3893SOL     OW23306   3.227   3.016  24.733
 3893SOL    HW123307   3.212   3.008  24.827
 3893SOL    HW223308   3.208   3.108  24.713
 3894SOL     OW23309   1.956   0.627   7.777
 3894SOL    HW123310   1.979   0.535   7.790
 3894SOL    HW223311   1.911   0.629   7.692
 3895SOL     OW23312   3.442   1.782  19.242
 3895SOL    HW123313   3.385   1.859  19.243
 3895SOL    HW223314   3.423   1.739  19.158
 3896SOL     OW23315   3.472   0.635   5.549
 3896SOL    HW123316   3.510   0.566   5.494
 3896SOL    HW223317   3.378   0.627   5.535
 3897SOL     OW23318   3.170   2.406  10.412
 3897SOL    HW123319   3.191   2.357  10.492
 3897SOL    HW223320   3.098   2.464  10.438
 3898SOL     OW23321   0.336   2.674   6.090
 3898SOL    HW123322   0.247   2.688   6.122
 3898SOL    HW223323   0.391   2.685   6.168
 3899SOL     OW23324   1.252   2.717  26.047
 3899SOL    HW123325   1.291   2.794  26.006
 3899SOL    HW223326   1.232   2.659  25.974
 3900SOL     OW23327   4.109   0.649  24.645
 3900SOL    HW123328   4.109   0.568  24.594
 3900SOL    HW223329   4.196   0.652  24.684
 3901SOL     OW23330   4.638   4.262   1.924
 3901SOL    HW123331   4.708   4.198   1.934
 3901SOL    HW223332   4.601   4.243   1.838
 3902SOL     OW23333   4.508   3.284  20.823
 3902SOL    HW123334   4.525   3.200  20.867
 3902SOL    HW223335   4.587   3.336  20.839
 3903SOL     OW23336   0.918   1.697  27.100
 3903SOL    HW123337   0.976   1.773  27.092
 3903SOL    HW223338   0.830   1.734  27.102
 3904SOL     OW23339   4.400   2.532  23.008
 3904SOL    HW123340   4.414   2.533  23.103
 3904SOL    HW223341   4.469   2.476  22.974
 3905SOL     OW23342   4.067   2.331  24.752
 3905SOL    HW123343   4.000   2.280  24.798
 3905SOL    HW223344   4.140   2.337  24.814
 3906SOL     OW23345   2.728   3.495  22.366
 3906SOL    HW123346   2.638   3.464  22.358
 3906SOL    HW223347   2.726   3.555  22.441
 3907SOL     OW23348   3.842   0.737   4.985
 3907SOL    HW123349   3.824   0.749   5.078
 3907SOL    HW223350   3.937   0.731   4.980
 3908SOL     OW23351   4.442   2.883   8.643
 3908SOL    HW123352   4.464   2.908   8.553
 3908SOL    HW223353   4.400   2.961   8.680
 3909SOL     OW23354   2.137   2.262  25.258
 3909SOL    HW123355   2.073   2.244  25.189
 3909SOL    HW223356   2.085   2.272  25.337
 3910SOL     OW23357   1.211   0.418   7.264
 3910SOL    HW123358   1.275   0.436   7.333
 3910SOL    HW223359   1.249   0.346   7.214
 3911SOL     OW23360   2.471   4.065   0.337
 3911SOL    HW123361   2.390   4.052   0.387
 3911SOL    HW223362   2.468   4.156   0.309
 3912SOL     OW23363   1.561   3.632  25.829
 3912SOL    HW123364   1.628   3.564  25.836
 3912SOL    HW223365   1.492   3.593  25.775
 3913SOL     OW23366   0.735   4.628   9.229
 3913SOL    HW123367   0.732   4.541   9.190
 3913SOL    HW223368   0.773   4.684   9.161
 3914SOL     OW23369   0.503   1.849   8.448
 3914SOL    HW123370   0.491   1.859   8.354
 3914SOL    HW223371   0.446   1.916   8.487
 3915SOL     OW23372   0.657   0.812   4.450
 3915SOL    HW123373   0.706   0.873   4.506
 3915SOL    HW223374   0.577   0.794   4.499
 3916SOL     OW23375   0.367   0.011   7.229
 3916SOL    HW123376   0.447   4.740   7.232
 3916SOL    HW223377   0.375   0.063   7.149
 3917SOL     OW23378   3.619   1.167  28.006
 3917SOL    HW123379   3.649   1.246  28.051
 3917SOL    HW223380   3.599   1.196  27.917
 3918SOL     OW23381   3.321   0.030  20.610
 3918SOL    HW123382   3.312   4.737  20.549
 3918SOL    HW223383   3.353   4.771  20.691
 3919SOL     OW23384   3.131   4.128   1.603
 3919SOL    HW123385   3.111   4.220   1.584
 3919SOL    HW223386   3.225   4.121   1.589
 3920SOL     OW23387   1.226   2.396   7.776
 3920SOL    HW123388   1.238   2.301   7.773
 3920SOL    HW223389   1.309   2.430   7.811
 3921SOL     OW23390   4.049   1.024  21.212
 3921SOL    HW123391   4.121   1.000  21.153
 3921SOL    HW223392   3.975   0.972  21.182
 3922SOL     OW23393   2.673   4.092  21.704
 3922SOL    HW123394   2.584   4.075  21.674
 3922SOL    HW223395   2.673   4.066  21.796
 3923SOL     OW23396   1.264   3.280  22.311
 3923SOL    HW123397   1.265   3.186  22.292
 3923SOL    HW223398   1.356   3.305  22.315
 3924SOL     OW23399   3.093   0.956   8.973
 3924SOL    HW123400   3.171   0.992   9.016
 3924SOL    HW223401   3.047   0.908   9.042
 3925SOL     OW23402   1.373   3.675  19.094
 3925SOL    HW123403   1.465   3.650  19.088
 3925SOL    HW223404   1.329   3.622  19.027
 3926SOL     OW23405   3.914   3.517  25.913
 3926SOL    HW123406   3.922   3.430  25.951
 3926SOL    HW223407   3.912   3.576  25.989
 3927SOL     OW23408   1.586   3.729  22.990
 3927SOL    HW123409   1.667   3.768  23.022
 3927SOL    HW223410   1.551   3.793  22.928
 3928SOL     OW23411   1.384   0.293  25.152
 3928SOL    HW123412   1.301   0.266  25.191
 3928SOL    HW223413   1.426   0.211  25.125
 3929SOL     OW23414   3.473   3.586  25.334
 3929SOL    HW123415   3.517   3.579  25.249
 3929SOL    HW223416   3.517   3.520  25.388
 3930SOL     OW23417   0.661   3.278   5.155
 3930SOL    HW123418   0.722   3.347   5.179
 3930SOL    HW223419   0.675   3.265   5.061
 3931SOL     OW23420   3.364   2.286   5.831
 3931SOL    HW123421   3.300   2.348   5.867
 3931SOL    HW223422   3.422   2.340   5.777
 3932SOL     OW23423   1.200   1.364  28.483
 3932SOL    HW123424   1.246   1.326   0.039
 3932SOL    HW223425   1.270   1.401  28.429
 3933SOL     OW23426   1.777   3.229  27.335
 3933SOL    HW123427   1.716   3.187  27.395
 3933SOL    HW223428   1.859   3.236  27.384
 3934SOL     OW23429   0.570   2.487   8.356
 3934SOL    HW123430   0.529   2.418   8.304
 3934SOL    HW223431   0.636   2.525   8.298
 3935SOL     OW23432   4.676   3.360   6.707
 3935SOL    HW123433   4.668   3.412   6.787
 3935SOL    HW223434   4.662   3.422   6.636
 3936SOL     OW23435   2.695   0.501   2.834
 3936SOL    HW123436   2.721   0.514   2.743
 3936SOL    HW223437   2.634   0.572   2.852
 3937SOL     OW23438   4.533   3.077  27.636
 3937SOL    HW123439   4.614   3.113  27.672
 3937SOL    HW223440   4.464   3.115  27.690
 3938SOL     OW23441   0.446   4.100   0.704
 3938SOL    HW123442   0.355   4.072   0.707
 3938SOL    HW223443   0.490   4.031   0.654
 3939SOL     OW23444   2.189   3.003  27.806
 3939SOL    HW123445   2.279   3.024  27.832
 3939SOL    HW223446   2.179   3.043  27.720
 3940SOL     OW23447   4.616   0.091  21.565
 3940SOL    HW123448   4.698   0.097  21.614
 3940SOL    HW223449   4.637   0.036  21.490
 3941SOL     OW23450   0.389   2.258   0.725
 3941SOL    HW123451   0.406   2.164   0.719
 3941SOL    HW223452   0.294   2.265   0.722
 3942SOL     OW23453   2.804   2.839  21.170
 3942SOL    HW123454   2.863   2.773  21.206
 3942SOL    HW223455   2.719   2.817  21.208
 3943SOL     OW23456   3.210   1.187  22.919
 3943SOL    HW123457   3.193   1.278  22.895
 3943SOL    HW223458   3.156   1.135  22.859
 3944SOL     OW23459   1.506   3.974  27.113
 3944SOL    HW123460   1.445   4.036  27.153
 3944SOL    HW223461   1.584   3.979  27.168
 3945SOL     OW23462   3.328   1.566  19.753
 3945SOL    HW123463   3.314   1.629  19.682
 3945SOL    HW223464   3.244   1.562  19.798
 3946SOL     OW23465   1.575   0.823  25.553
 3946SOL    HW123466   1.587   0.758  25.622
 3946SOL    HW223467   1.532   0.776  25.482
 3947SOL     OW23468   1.921   2.928   8.725
 3947SOL    HW123469   1.967   3.007   8.697
 3947SOL    HW223470   1.930   2.867   8.651
 3948SOL     OW23471   1.993   2.060   6.623
 3948SOL    HW123472   2.054   1.988   6.637
 3948SOL    HW223473   2.048   2.132   6.592
 3949SOL     OW23474   0.177   3.701   7.518
 3949SOL    HW123475   0.231   3.623   7.503
 3949SOL    HW223476   0.156   3.733   7.430
 3950SOL     OW23477   1.154   4.312   0.562
 3950SOL    HW123478   1.105   4.353   0.633
 3950SOL    HW223479   1.093   4.310   0.488
 3951SOL     OW23480   1.311   4.766  24.212
 3951SOL    HW123481   1.366   0.015  24.285
 3951SOL    HW223482   1.256   0.061  24.191
 3952SOL     OW23483   1.223   0.572  23.143
 3952SOL    HW123484   1.305   0.616  23.121
 3952SOL    HW223485   1.161   0.601  23.076
 3953SOL     OW23486   0.983   3.485  25.307
 3953SOL    HW123487   1.008   3.411  25.362
 3953SOL    HW223488   1.043   3.480  25.232
 3954SOL     OW23489   4.206   1.018   4.628
 3954SOL    HW123490   4.131   1.073   4.604
 3954SOL    HW223491   4.169   0.931   4.643
 3955SOL     OW23492   4.197   2.698  24.167
 3955SOL    HW123493   4.167   2.608  24.180
 3955SOL    HW223494   4.271   2.690  24.106
 3956SOL     OW23495   0.574   3.684  23.815
 3956SOL    HW123496   0.531   3.642  23.741
 3956SOL    HW223497   0.545   3.633  23.891
 3957SOL     OW23498   3.383   3.165   6.474
 3957SOL    HW123499   3.471   3.193   6.450
 3957SOL    HW223500   3.363   3.094   6.414
 3958SOL     OW23501   3.904   1.459   8.232
 3958SOL    HW123502   3.873   1.383   8.183
 3958SOL    HW223503   3.996   1.467   8.208
 3959SOL     OW23504   0.879   0.705   9.769
 3959SOL    HW123505   0.929   0.678   9.846
 3959SOL    HW223506   0.796   0.657   9.776
 3960SOL     OW23507   2.632   3.531   4.402
 3960SOL    HW123508   2.717   3.565   4.375
 3960SOL    HW223509   2.581   3.609   4.422
 3961SOL     OW23510   0.577   0.828   9.455
 3961SOL    HW123511   0.666   0.805   9.480
 3961SOL    HW223512   0.584   0.857   9.364
 3962SOL     OW23513   1.658   3.189  20.538
 3962SOL    HW123514   1.728   3.161  20.479
 3962SOL    HW223515   1.693   3.266  20.583
 3963SOL     OW23516   0.123   1.740  10.907
 3963SOL    HW123517   0.134   1.807  10.975
 3963SOL    HW223518   0.030   1.716  10.912
 3964SOL     OW23519   4.043   3.489   0.113
 3964SOL    HW123520   4.102   3.420   0.144
 3964SOL    HW223521   3.999   3.450   0.038
 3965SOL     OW23522   1.489   0.777   5.343
 3965SOL    HW123523   1.454   0.857   5.304
 3965SOL    HW223524   1.555   0.747   5.281
 3966SOL     OW23525   1.270   0.259  23.642
 3966SOL    HW123526   1.286   0.228  23.553
 3966SOL    HW223527   1.186   0.305  23.637
 3967SOL     OW23528   3.636   0.854  27.136
 3967SOL    HW123529   3.642   0.841  27.231
 3967SOL    HW223530   3.682   0.779  27.098
 3968SOL     OW23531   4.559   0.045  24.273
 3968SOL    HW123532   4.583   0.048  24.180
 3968SOL    HW223533   4.525   4.737  24.286
 3969SOL     OW23534   3.063   1.959   0.967
 3969SOL    HW123535   2.975   1.993   0.980
 3969SOL    HW223536   3.104   1.964   1.054
 3970SOL     OW23537   3.401   0.325   5.586
 3970SOL    HW123538   3.371   0.319   5.495
 3970SOL    HW223539   3.323   0.348   5.636
 3971SOL     OW23540   4.487   1.988  22.631
 3971SOL    HW123541   4.529   2.071  22.656
 3971SOL    HW223542   4.518   1.925  22.696
 3972SOL     OW23543   0.898   0.196   0.434
 3972SOL    HW123544   0.841   0.209   0.358
 3972SOL    HW223545   0.916   0.102   0.435
 3973SOL     OW23546   0.590   4.543  21.319
 3973SOL    HW123547   0.498   4.551  21.294
 3973SOL    HW223548   0.637   4.602  21.259
 3974SOL     OW23549   0.022   2.464  18.100
 3974SOL    HW123550   0.038   2.453  18.194
 3974SOL    HW223551   0.015   2.559  18.088
 3975SOL     OW23552   1.576   4.483  24.261
 3975SOL    HW123553   1.636   4.550  24.295
 3975SOL    HW223554   1.613   4.458  24.177
 3976SOL     OW23555   3.340   0.690   4.923
 3976SOL    HW123556   3.366   0.662   5.011
 3976SOL    HW223557   3.279   0.622   4.893
 3977SOL     OW23558   3.074   0.337   1.501
 3977SOL    HW123559   3.078   0.308   1.410
 3977SOL    HW223560   3.150   0.296   1.543
 3978SOL     OW23561   2.861   0.329   9.603
 3978SOL    HW123562   2.922   0.257   9.591
 3978SOL    HW223563   2.820   0.341   9.517
 3979SOL     OW23564   2.666   4.252  25.577
 3979SOL    HW123565   2.718   4.191  25.525
 3979SOL    HW223566   2.629   4.198  25.647
 3980SOL     OW23567   3.544   0.166  28.045
 3980SOL    HW123568   3.501   0.122  28.118
 3980SOL    HW223569   3.493   0.141  27.968
 3981SOL     OW23570   2.990   2.981  20.142
 3981SOL    HW123571   2.920   3.032  20.101
 3981SOL    HW223572   2.979   2.996  20.236
 3982SOL     OW23573   3.074   3.066  26.271
 3982SOL    HW123574   3.121   3.085  26.190
 3982SOL    HW223575   3.040   3.151  26.299
 3983SOL     OW23576   2.170   2.869   4.113
 3983SOL    HW123577   2.158   2.802   4.180
 3983SOL    HW223578   2.265   2.883   4.111
 3984SOL     OW23579   4.764   0.460  22.662
 3984SOL    HW123580   4.679   0.443  22.622
 3984SOL    HW223581   4.780   0.384  22.718
 3985SOL     OW23582   0.059   4.520  26.931
 3985SOL    HW123583   0.111   4.584  26.979
 3985SOL    HW223584   0.094   4.522  26.842
 3986SOL     OW23585   2.971   3.182   1.730
 3986SOL    HW123586   2.921   3.232   1.665
 3986SOL    HW223587   3.058   3.173   1.692
 3987SOL     OW23588   1.934   4.103   3.510
 3987SOL    HW123589   2.013   4.150   3.536
 3987SOL    HW223590   1.873   4.117   3.583
 3988SOL     OW23591   0.712   3.675   5.560
 3988SOL    HW123592   0.779   3.673   5.629
 3988SOL    HW223593   0.640   3.725   5.598
 3989SOL     OW23594   0.635   4.037  22.646
 3989SOL    HW123595   0.581   4.052  22.568
 3989SOL    HW223596   0.579   3.984  22.703
 3990SOL     OW23597   1.908   1.450  28.138
 3990SOL    HW123598   1.908   1.500  28.220
 3990SOL    HW223599   1.939   1.363  28.163
 3991SOL     OW23600   3.251   2.187  17.701
 3991SOL    HW123601   3.275   2.234  17.621
 3991SOL    HW223602   3.301   2.106  17.696
 3992SOL     OW23603   4.182   4.216   7.238
 3992SOL    HW123604   4.214   4.143   7.185
 3992SOL    HW223605   4.257   4.242   7.292
 3993SOL     OW23606   1.344   1.120   8.133
 3993SOL    HW123607   1.292   1.076   8.200
 3993SOL    HW223608   1.362   1.207   8.169
 3994SOL     OW23609   0.881   2.762  23.735
 3994SOL    HW123610   0.844   2.754  23.647
 3994SOL    HW223611   0.905   2.672  23.759
 3995SOL     OW23612   4.172   3.533  10.612
 3995SOL    HW123613   4.089   3.522  10.659
 3995SOL    HW223614   4.203   3.444  10.597
 3996SOL     OW23615   2.656   2.142   4.923
 3996SOL    HW123616   2.574   2.118   4.880
 3996SOL    HW223617   2.634   2.144   5.016
 3997SOL     OW23618   1.095   4.740   9.135
 3997SOL    HW123619   1.089   4.762   9.228
 3997SOL    HW223620   1.011   4.767   9.099
 3998SOL     OW23621   1.373   1.830  21.017
 3998SOL    HW123622   1.281   1.855  21.010
 3998SOL    HW223623   1.381   1.790  21.104
 3999SOL     OW23624   4.778   1.935   4.085
 3999SOL    HW123625   4.707   1.994   4.110
 3999SOL    HW223626   0.066   1.952   4.149
 4000SOL     OW23627   2.957   1.325   2.632
 4000SOL    HW123628   2.932   1.233   2.641
 4000SOL    HW223629   2.981   1.334   2.540
 4001SOL     OW23630   3.241   0.597   1.132
 4001SOL    HW123631   3.190   0.668   1.171
 4001SOL    HW223632   3.251   0.622   1.040
 4002SOL     OW23633   3.410   4.409   0.287
 4002SOL    HW123634   3.487   4.455   0.321
 4002SOL    HW223635   3.384   4.349   0.357
 4003SOL     OW23636   3.785   4.478  25.644
 4003SOL    HW123637   3.827   4.450  25.563
 4003SOL    HW223638   3.851   4.532  25.687
 4004SOL     OW23639   3.749   2.268   5.912
 4004SOL    HW123640   3.815   2.276   5.981
 4004SOL    HW223641   3.678   2.218   5.952
 4005SOL     OW23642   2.309   1.886   4.661
 4005SOL    HW123643   2.333   1.947   4.730
 4005SOL    HW223644   2.304   1.940   4.582
 4006SOL     OW23645   4.068   0.598  18.939
 4006SOL    HW123646   4.160   0.575  18.947
 4006SOL    HW223647   4.022   0.514  18.938
 4007SOL     OW23648   2.505   2.917   1.170
 4007SOL    HW123649   2.547   2.940   1.253
 4007SOL    HW223650   2.431   2.862   1.196
 4008SOL     OW23651   3.612   2.154  23.953
 4008SOL    HW123652   3.588   2.216  24.022
 4008SOL    HW223653   3.688   2.108  23.989
 4009SOL     OW23654   0.591   4.104   7.442
 4009SOL    HW123655   0.519   4.148   7.397
 4009SOL    HW223656   0.670   4.148   7.411
 4010SOL     OW23657   2.964   3.381  20.517
 4010SOL    HW123658   2.876   3.348  20.496
 4010SOL    HW223659   3.005   3.310  20.566
 4011SOL     OW23660   0.769   0.032   2.857
 4011SOL    HW123661   0.707   4.766   2.913
 4011SOL    HW223662   0.842   4.751   2.847
 4012SOL     OW23663   3.313   4.349  25.040
 4012SOL    HW123664   3.324   4.293  24.963
 4012SOL    HW223665   3.223   4.333  25.069
 4013SOL     OW23666   2.365   4.052   7.692
 4013SOL    HW123667   2.441   4.028   7.639
 4013SOL    HW223668   2.377   4.003   7.774
 4014SOL     OW23669   1.329   2.968   3.732
 4014SOL    HW123670   1.241   2.959   3.695
 4014SOL    HW223671   1.374   3.026   3.671
 4015SOL     OW23672   0.540   0.694   7.787
 4015SOL    HW123673   0.536   0.598   7.787
 4015SOL    HW223674   0.630   0.715   7.761
 4016SOL     OW23675   0.017   1.982  20.249
 4016SOL    HW123676   0.003   1.997  20.155
 4016SOL    HW223677   4.777   2.066  20.290
 4017SOL     OW23678   2.461   1.721  20.894
 4017SOL    HW123679   2.480   1.634  20.928
 4017SOL    HW223680   2.368   1.734  20.910
 4018SOL     OW23681   3.167   3.060   7.624
 4018SOL    HW123682   3.254   3.081   7.591
 4018SOL    HW223683   3.121   3.022   7.549
 4019SOL     OW23684   3.412   3.345  19.566
 4019SOL    HW123685   3.420   3.285  19.640
 4019SOL    HW223686   3.321   3.374  19.568
 4020SOL     OW23687   3.472   2.330  24.132
 4020SOL    HW123688   3.477   2.278  24.212
 4020SOL    HW223689   3.505   2.416  24.157
 4021SOL     OW23690   1.747   1.464  22.058
 4021SOL    HW123691   1.758   1.394  22.122
 4021SOL    HW223692   1.707   1.421  21.982
 4022SOL     OW23693   0.481   2.397   0.230
 4022SOL    HW123694   0.509   2.362   0.146
 4022SOL    HW223695   0.441   2.481   0.209
 4023SOL     OW23696   0.446   2.964   6.468
 4023SOL    HW123697   0.512   3.024   6.434
 4023SOL    HW223698   0.386   3.020   6.518
 4024SOL     OW23699   3.763   3.153  24.306
 4024SOL    HW123700   3.798   3.087  24.366
 4024SOL    HW223701   3.799   3.236  24.337
 4025SOL     OW23702   1.081   3.178   5.022
 4025SOL    HW123703   1.093   3.246   4.955
 4025SOL    HW223704   1.158   3.186   5.078
 4026SOL     OW23705   3.840   2.423   0.031
 4026SOL    HW123706   3.783   2.346   0.024
 4026SOL    HW223707   3.924   2.388   0.059
 4027SOL     OW23708   1.542   0.614   0.409
 4027SOL    HW123709   1.589   0.649   0.333
 4027SOL    HW223710   1.470   0.564   0.371
 4028SOL     OW23711   4.359   1.243  20.785
 4028SOL    HW123712   4.362   1.215  20.693
 4028SOL    HW223713   4.416   1.320  20.788
 4029SOL     OW23714   2.559   1.869  10.041
 4029SOL    HW123715   2.542   1.893  10.132
 4029SOL    HW223716   2.627   1.802  10.046
 4030SOL     OW23717   1.070   0.893   8.761
 4030SOL    HW123718   1.108   0.898   8.673
 4030SOL    HW223719   1.146   0.887   8.819
 4031SOL     OW23720   4.429   3.154  24.516
 4031SOL    HW123721   4.399   3.166  24.426
 4031SOL    HW223722   4.382   3.076  24.546
 4032SOL     OW23723   1.365   1.282  18.550
 4032SOL    HW123724   1.289   1.291  18.492
 4032SOL    HW223725   1.413   1.207  18.514
 4033SOL     OW23726   0.450   0.337   7.296
 4033SOL    HW123727   0.480   0.246   7.296
 4033SOL    HW223728   0.515   0.384   7.348
 4034SOL     OW23729   3.471   1.259  21.509
 4034SOL    HW123730   3.478   1.164  21.498
 4034SOL    HW223731   3.508   1.276  21.596
 4035SOL     OW23732   2.684   1.346   4.357
 4035SOL    HW123733   2.736   1.426   4.353
 4035SOL    HW223734   2.628   1.358   4.433
 4036SOL     OW23735   4.609   0.107  20.123
 4036SOL    HW123736   4.677   0.127  20.058
 4036SOL    HW223737   4.636   0.154  20.202
 4037SOL     OW23738   0.915   3.854   7.427
 4037SOL    HW123739   0.857   3.780   7.409
 4037SOL    HW223740   0.860   3.931   7.414
 4038SOL     OW23741   3.454   3.701   7.462
 4038SOL    HW123742   3.373   3.660   7.432
 4038SOL    HW223743   3.487   3.747   7.385
 4039SOL     OW23744   0.878   3.520   3.016
 4039SOL    HW123745   0.826   3.517   3.096
 4039SOL    HW223746   0.968   3.530   3.047
 4040SOL     OW23747   3.406   4.565  28.511
 4040SOL    HW123748   3.332   4.528  28.462
 4040SOL    HW223749   3.481   4.511  28.486
 4041SOL     OW23750   2.217   4.586  21.030
 4041SOL    HW123751   2.263   4.662  20.995
 4041SOL    HW223752   2.213   4.602  21.124
 4042SOL     OW23753   4.258   0.363  19.506
 4042SOL    HW123754   4.267   0.387  19.414
 4042SOL    HW223755   4.184   0.414  19.538
 4043SOL     OW23756   4.047   4.194  22.420
 4043SOL    HW123757   4.068   4.215  22.329
 4043SOL    HW223758   4.047   4.279  22.465
 4044SOL     OW23759   2.984   4.375   0.065
 4044SOL    HW123760   3.038   4.439   0.111
 4044SOL    HW223761   2.952   4.422  28.507
 4045SOL     OW23762   4.262   0.770  24.077
 4045SOL    HW123763   4.208   0.778  23.998
 4045SOL    HW223764   4.199   0.767  24.149
 4046SOL     OW23765   2.973   0.515  27.520
 4046SOL    HW123766   2.933   0.571  27.586
 4046SOL    HW223767   2.944   0.551  27.436
 4047SOL     OW23768   4.422   0.708   0.970
 4047SOL    HW123769   4.492   0.691   0.907
 4047SOL    HW223770   4.427   0.635   1.032
 4048SOL     OW23771   1.183   3.862  21.030
 4048SOL    HW123772   1.209   3.946  20.992
 4048SOL    HW223773   1.260   3.806  21.020
 4049SOL     OW23774   0.630   2.535   5.276
 4049SOL    HW123775   0.720   2.563   5.259
 4049SOL    HW223776   0.604   2.585   5.354
 4050SOL     OW23777   0.577   0.163  26.635
 4050SOL    HW123778   0.511   0.222  26.598
 4050SOL    HW223779   0.544   0.141  26.722
 4051SOL     OW23780   2.303   0.032  20.874
 4051SOL    HW123781   2.322   0.018  20.781
 4051SOL    HW223782   2.322   0.125  20.888
 4052SOL     OW23783   2.387   2.207  26.677
 4052SOL    HW123784   2.312   2.219  26.619
 4052SOL    HW223785   2.462   2.198  26.618
 4053SOL     OW23786   0.911   1.050  21.017
 4053SOL    HW123787   0.863   1.099  21.083
 4053SOL    HW223788   0.846   1.029  20.950
 4054SOL     OW23789   0.133   4.378  17.147
 4054SOL    HW123790   0.039   4.365  17.132
 4054SOL    HW223791   0.141   4.383  17.242
 4055SOL     OW23792   3.636   2.158  27.044
 4055SOL    HW123793   3.675   2.143  26.958
 4055SOL    HW223794   3.552   2.112  27.041
 4056SOL     OW23795   0.966   3.155   7.294
 4056SOL    HW123796   0.871   3.142   7.292
 4056SOL    HW223797   0.993   3.124   7.380
 4057SOL     OW23798   1.012   0.354   2.950
 4057SOL    HW123799   1.022   0.322   2.860
 4057SOL    HW223800   0.919   0.376   2.958
 4058SOL     OW23801   2.872   0.585  16.933
 4058SOL    HW123802   2.831   0.671  16.923
 4058SOL    HW223803   2.873   0.549  16.844
 4059SOL     OW23804   2.666   1.041   4.571
 4059SOL    HW123805   2.724   1.007   4.639
 4059SOL    HW223806   2.717   1.033   4.490
 4060SOL     OW23807   2.188   3.317   1.964
 4060SOL    HW123808   2.199   3.361   2.048
 4060SOL    HW223809   2.277   3.293   1.937
 4061SOL     OW23810   4.109   0.795  22.254
 4061SOL    HW123811   4.050   0.870  22.242
 4061SOL    HW223812   4.053   0.718  22.243
 4062SOL     OW23813   1.846   3.586   9.337
 4062SOL    HW123814   1.900   3.664   9.320
 4062SOL    HW223815   1.794   3.609   9.414
 4063SOL     OW23816   4.029   0.918   2.555
 4063SOL    HW123817   4.015   1.012   2.546
 4063SOL    HW223818   4.120   0.910   2.582
 4064SOL     OW23819   3.499   0.383  19.711
 4064SOL    HW123820   3.481   0.333  19.790
 4064SOL    HW223821   3.421   0.436  19.698
 4065SOL     OW23822   1.590   0.846  23.623
 4065SOL    HW123823   1.507   0.891  23.608
 4065SOL    HW223824   1.655   0.916  23.626
 4066SOL     OW23825   3.659   0.895   2.021
 4066SOL    HW123826   3.684   0.863   2.107
 4066SOL    HW223827   3.695   0.831   1.960
 4067SOL     OW23828   0.262   2.685   5.669
 4067SOL    HW123829   0.170   2.678   5.694
 4067SOL    HW223830   0.302   2.604   5.700
 4068SOL     OW23831   3.655   0.339   3.388
 4068SOL    HW123832   3.625   0.323   3.299
 4068SOL    HW223833   3.748   0.360   3.378
 4069SOL     OW23834   2.342   1.731  28.197
 4069SOL    HW123835   2.304   1.804  28.149
 4069SOL    HW223836   2.383   1.771  28.273
 4070SOL     OW23837   1.579   2.430  10.943
 4070SOL    HW123838   1.645   2.399  10.880
 4070SOL    HW223839   1.628   2.444  11.024
 4071SOL     OW23840   2.698   3.662   5.338
 4071SOL    HW123841   2.633   3.597   5.365
 4071SOL    HW223842   2.711   3.645   5.245
 4072SOL     OW23843   4.255   1.937  18.186
 4072SOL    HW123844   4.320   1.912  18.120
 4072SOL    HW223845   4.171   1.908  18.150
 4073SOL     OW23846   1.735   2.542   0.906
 4073SOL    HW123847   1.805   2.523   0.968
 4073SOL    HW223848   1.779   2.553   0.822
 4074SOL     OW23849   1.900   2.841   7.303
 4074SOL    HW123850   1.949   2.889   7.370
 4074SOL    HW223851   1.907   2.895   7.224
 4075SOL     OW23852   3.784   0.788   9.831
 4075SOL    HW123853   3.770   0.718   9.895
 4075SOL    HW223854   3.853   0.755   9.773
 4076SOL     OW23855   2.996   3.608   6.803
 4076SOL    HW123856   2.957   3.689   6.836
 4076SOL    HW223857   2.922   3.548   6.793
 4077SOL     OW23858   3.786   1.152  11.432
 4077SOL    HW123859   3.807   1.245  11.429
 4077SOL    HW223860   3.771   1.128  11.341
 4078SOL     OW23861   4.173   1.349  28.271
 4078SOL    HW123862   4.254   1.349  28.221
 4078SOL    HW223863   4.104   1.345  28.205
 4079SOL     OW23864   3.825   3.190  22.939
 4079SOL    HW123865   3.912   3.230  22.946
 4079SOL    HW223866   3.842   3.096  22.939
 4080SOL     OW23867   4.138   3.579   4.199
 4080SOL    HW123868   4.173   3.552   4.114
 4080SOL    HW223869   4.077   3.650   4.178
 4081SOL     OW23870   0.182   0.200  22.516
 4081SOL    HW123871   0.272   0.222  22.494
 4081SOL    HW223872   0.166   0.242  22.600
 4082SOL     OW23873   3.987   0.665  25.178
 4082SOL    HW123874   4.054   0.604  25.149
 4082SOL    HW223875   3.912   0.648  25.121
 4083SOL     OW23876   2.136   4.150   8.052
 4083SOL    HW123877   2.130   4.167   7.958
 4083SOL    HW223878   2.181   4.227   8.087
 4084SOL     OW23879   4.024   1.667  21.718
 4084SOL    HW123880   4.106   1.674  21.669
 4084SOL    HW223881   3.967   1.734  21.680
 4085SOL     OW23882   3.388   1.810   4.583
 4085SOL    HW123883   3.300   1.782   4.609
 4085SOL    HW223884   3.429   1.731   4.549
 4086SOL     OW23885   3.666   3.891   7.838
 4086SOL    HW123886   3.593   3.835   7.811
 4086SOL    HW223887   3.706   3.844   7.911
 4087SOL     OW23888   4.642   3.618   5.872
 4087SOL    HW123889   4.660   3.657   5.958
 4087SOL    HW223890   4.728   3.614   5.829
 4088SOL     OW23891   2.110   0.174   2.074
 4088SOL    HW123892   2.118   0.086   2.110
 4088SOL    HW223893   2.021   0.202   2.097
 4089SOL     OW23894   3.374   3.619   8.596
 4089SOL    HW123895   3.351   3.571   8.676
 4089SOL    HW223896   3.364   3.711   8.619
 4090SOL     OW23897   1.936   0.785   2.261
 4090SOL    HW123898   1.950   0.866   2.310
 4090SOL    HW223899   1.964   0.806   2.172
 4091SOL     OW23900   0.197   4.475  20.281
 4091SOL    HW123901   0.128   4.534  20.250
 4091SOL    HW223902   0.185   4.395  20.229
 4092SOL     OW23903   3.903   2.571   9.666
 4092SOL    HW123904   3.909   2.518   9.745
 4092SOL    HW223905   3.816   2.551   9.631
 4093SOL     OW23906   4.693   3.037  27.396
 4093SOL    HW123907   4.610   3.040  27.443
 4093SOL    HW223908   4.740   2.963  27.435
 4094SOL     OW23909   1.776   3.914  10.519
 4094SOL    HW123910   1.816   3.897  10.604
 4094SOL    HW223911   1.830   3.865  10.457
 4095SOL     OW23912   0.800   2.380   0.020
 4095SOL    HW123913   0.814   2.337   0.105
 4095SOL    HW223914   0.875   2.439   0.011
 4096SOL     OW23915   2.020   3.152  25.600
 4096SOL    HW123916   1.974   3.138  25.683
 4096SOL    HW223917   2.110   3.124  25.618
 4097SOL     OW23918   1.741   1.403   9.310
 4097SOL    HW123919   1.726   1.461   9.236
 4097SOL    HW223920   1.655   1.366   9.330
 4098SOL     OW23921   4.344   1.044  25.539
 4098SOL    HW123922   4.420   1.005  25.583
 4098SOL    HW223923   4.342   1.003  25.453
 4099SOL     OW23924   2.009   0.456   3.802
 4099SOL    HW123925   1.990   0.367   3.773
 4099SOL    HW223926   2.104   0.463   3.795
 4100SOL     OW23927   3.667   1.838  24.277
 4100SOL    HW123928   3.663   1.743  24.286
 4100SOL    HW223929   3.715   1.867  24.354
 4101SOL     OW23930   3.942   3.984   5.477
 4101SOL    HW123931   4.003   3.996   5.404
 4101SOL    HW223932   3.866   3.942   5.437
 4102SOL     OW23933   3.209   3.653  23.394
 4102SOL    HW123934   3.138   3.714  23.374
 4102SOL    HW223935   3.253   3.638  23.310
 4103SOL     OW23936   3.863   2.153   4.170
 4103SOL    HW123937   3.813   2.153   4.252
 4103SOL    HW223938   3.948   2.189   4.194
 4104SOL     OW23939   3.767   3.992   2.447
 4104SOL    HW123940   3.780   4.084   2.424
 4104SOL    HW223941   3.842   3.947   2.408
 4105SOL     OW23942   3.597   2.468  26.472
 4105SOL    HW123943   3.509   2.468  26.510
 4105SOL    HW223944   3.648   2.526  26.528
 4106SOL     OW23945   2.946   2.585  24.650
 4106SOL    HW123946   2.974   2.675  24.633
 4106SOL    HW223947   3.026   2.541  24.679
 4107SOL     OW23948   1.156   4.404  20.898
 4107SOL    HW123949   1.188   4.476  20.844
 4107SOL    HW223950   1.178   4.325  20.848
 4108SOL     OW23951   0.168   0.803  26.355
 4108SOL    HW123952   0.111   0.862  26.306
 4108SOL    HW223953   0.214   0.859  26.418
 4109SOL     OW23954   2.432   2.936   9.498
 4109SOL    HW123955   2.522   2.954   9.470
 4109SOL    HW223956   2.389   2.900   9.421
 4110SOL     OW23957   1.393   1.969   4.826
 4110SOL    HW123958   1.405   2.057   4.791
 4110SOL    HW223959   1.322   1.979   4.890
 4111SOL     OW23960   2.188   1.462  24.105
 4111SOL    HW123961   2.207   1.458  24.199
 4111SOL    HW223962   2.274   1.469  24.063
 4112SOL     OW23963   4.424   3.385   3.654
 4112SOL    HW123964   4.400   3.383   3.747
 4112SOL    HW223965   4.518   3.367   3.653
 4113SOL     OW23966   4.505   2.989  25.437
 4113SOL    HW123967   4.447   2.936  25.492
 4113SOL    HW223968   4.478   3.079  25.453
 4114SOL     OW23969   1.755   0.429  20.942
 4114SOL    HW123970   1.831   0.371  20.949
 4114SOL    HW223971   1.725   0.418  20.852
 4115SOL     OW23972   4.766   4.013  21.535
 4115SOL    HW123973   4.779   4.051  21.448
 4115SOL    HW223974   4.672   4.019  21.550
 4116SOL     OW23975   1.142   2.140   9.664
 4116SOL    HW123976   1.102   2.140   9.577
 4116SOL    HW223977   1.236   2.147   9.648
 4117SOL     OW23978   3.900   1.603   7.518
 4117SOL    HW123979   3.882   1.615   7.425
 4117SOL    HW223980   3.973   1.542   7.520
 4118SOL     OW23981   4.011   0.726   3.123
 4118SOL    HW123982   3.941   0.753   3.063
 4118SOL    HW223983   3.966   0.675   3.191
 4119SOL     OW23984   0.388   0.576  26.541
 4119SOL    HW123985   0.359   0.588  26.451
 4119SOL    HW223986   0.416   0.485  26.546
 4120SOL     OW23987   1.671   4.476  22.327
 4120SOL    HW123988   1.596   4.519  22.286
 4120SOL    HW223989   1.718   4.436  22.254
 4121SOL     OW23990   1.035   4.314   2.517
 4121SOL    HW123991   0.954   4.335   2.564
 4121SOL    HW223992   1.105   4.342   2.576
 4122SOL     OW23993   2.433   2.196  25.591
 4122SOL    HW123994   2.400   2.142  25.663
 4122SOL    HW223995   2.433   2.137  25.516
 4123SOL     OW23996   0.865   3.573   1.331
 4123SOL    HW123997   0.896   3.627   1.403
 4123SOL    HW223998   0.851   3.487   1.370
 4124SOL     OW23999   0.063   1.144  20.443
 4124SOL    HW124000   0.015   1.084  20.386
 4124SOL    HW224001   4.776   1.201  20.480
 4125SOL     OW24002   4.493   3.204  21.735
 4125SOL    HW124003   4.414   3.245  21.770
 4125SOL    HW224004   4.565   3.251  21.778
 4126SOL     OW24005   4.051   0.841  27.055
 4126SOL    HW124006   4.044   0.936  27.062
 4126SOL    HW224007   4.142   0.825  27.030
 4127SOL     OW24008   3.247   0.959   3.312
 4127SOL    HW124009   3.311   1.021   3.348
 4127SOL    HW224010   3.168   1.011   3.299
 4128SOL     OW24011   2.968   0.140  27.481
 4128SOL    HW124012   2.956   0.097  27.397
 4128SOL    HW224013   3.008   0.224  27.459
 4129SOL     OW24014   2.139   0.056   5.855
 4129SOL    HW124015   2.214   4.779   5.869
 4129SOL    HW224016   2.154   0.130   5.914
 4130SOL     OW24017   0.873   3.595  27.376
 4130SOL    HW124018   0.904   3.590  27.286
 4130SOL    HW224019   0.814   3.670  27.377
 4131SOL     OW24020   4.365   1.102  22.143
 4131SOL    HW124021   4.383   1.193  22.120
 4131SOL    HW224022   4.319   1.107  22.227
 4132SOL     OW24023   1.676   0.130  22.365
 4132SOL    HW124024   1.584   0.131  22.391
 4132SOL    HW224025   1.674   0.139  22.270
 4133SOL     OW24026   2.378   1.069   2.877
 4133SOL    HW124027   2.423   1.034   2.800
 4133SOL    HW224028   2.374   1.163   2.861
 4134SOL     OW24029   0.169   0.306   2.721
 4134SOL    HW124030   0.228   0.360   2.773
 4134SOL    HW224031   0.219   0.284   2.643
 4135SOL     OW24032   3.487   2.990   9.565
 4135SOL    HW124033   3.393   2.984   9.583
 4135SOL    HW224034   3.526   3.019   9.647
 4136SOL     OW24035   1.633   0.035   6.095
 4136SOL    HW124036   1.558   0.082   6.132
 4136SOL    HW224037   1.597   4.731   6.067
 4137SOL     OW24038   1.806   0.568  24.737
 4137SOL    HW124039   1.805   0.645  24.680
 4137SOL    HW224040   1.896   0.536  24.731
 4138SOL     OW24041   2.208   3.108   9.916
 4138SOL    HW124042   2.139   3.143   9.859
 4138SOL    HW224043   2.236   3.183   9.968
 4139SOL     OW24044   3.962   3.072  22.014
 4139SOL    HW124045   3.899   3.108  21.952
 4139SOL    HW224046   4.001   3.149  22.057
 4140SOL     OW24047   0.244   3.518  22.602
 4140SOL    HW124048   0.203   3.603  22.588
 4140SOL    HW224049   0.334   3.539  22.627
 4141SOL     OW24050   3.642   4.737   6.884
 4141SOL    HW124051   3.689   4.695   6.956
 4141SOL    HW224052   3.675   0.047   6.884
 4142SOL     OW24053   4.549   0.031   5.484
 4142SOL    HW124054   4.495   0.081   5.544
 4142SOL    HW224055   4.531   0.069   5.398
 4143SOL     OW24056   0.393   0.040   2.891
 4143SOL    HW124057   0.431   0.072   2.809
 4143SOL    HW224058   0.467   0.036   2.952
 4144SOL     OW24059   1.068   3.131   0.974
 4144SOL    HW124060   1.076   3.058   0.912
 4144SOL    HW224061   1.133   3.112   1.042
 4145SOL     OW24062   2.182   3.527   9.294
 4145SOL    HW124063   2.154   3.617   9.311
 4145SOL    HW224064   2.194   3.523   9.199
 4146SOL     OW24065   0.278   0.880   9.950
 4146SOL    HW124066   0.324   0.857   9.870
 4146SOL    HW224067   0.347   0.900  10.013
 4147SOL     OW24068   3.069   0.356   8.233
 4147SOL    HW124069   3.154   0.370   8.275
 4147SOL    HW224070   3.037   0.274   8.270
 4148SOL     OW24071   2.635   4.230   8.584
 4148SOL    HW124072   2.623   4.151   8.532
 4148SOL    HW224073   2.633   4.200   8.675
 4149SOL     OW24074   0.247   1.884  27.660
 4149SOL    HW124075   0.215   1.973  27.647
 4149SOL    HW224076   0.341   1.889  27.643
 4150SOL     OW24077   3.040   1.845  22.809
 4150SOL    HW124078   3.042   1.941  22.813
 4150SOL    HW224079   3.132   1.820  22.801
 4151SOL     OW24080   3.081   1.465   0.491
 4151SOL    HW124081   3.063   1.543   0.544
 4151SOL    HW224082   3.176   1.453   0.498
 4152SOL     OW24083   3.653   1.153  20.549
 4152SOL    HW124084   3.699   1.224  20.595
 4152SOL    HW224085   3.572   1.193  20.518
 4153SOL     OW24086   1.090   1.062  23.689
 4153SOL    HW124087   1.120   1.056  23.780
 4153SOL    HW224088   1.008   1.111  23.694
 4154SOL     OW24089   1.833   0.363   3.116
 4154SOL    HW124090   1.863   0.286   3.068
 4154SOL    HW224091   1.900   0.429   3.099
 4155SOL     OW24092   0.268   0.637   5.609
 4155SOL    HW124093   0.249   0.601   5.696
 4155SOL    HW224094   0.289   0.560   5.556
 4156SOL     OW24095   1.912   2.496   4.593
 4156SOL    HW124096   1.923   2.409   4.631
 4156SOL    HW224097   2.000   2.520   4.563
 4157SOL     OW24098   3.536   3.990   5.415
 4157SOL    HW124099   3.600   3.950   5.357
 4157SOL    HW224100   3.552   4.084   5.407
 4158SOL     OW24101   1.434   1.742  28.389
 4158SOL    HW124102   1.369   1.772  28.325
 4158SOL    HW224103   1.516   1.780  28.359
 4159SOL     OW24104   1.155   0.130   8.512
 4159SOL    HW124105   1.198   0.044   8.517
 4159SOL    HW224106   1.103   0.126   8.432
 4160SOL     OW24107   4.286   2.628  21.623
 4160SOL    HW124108   4.346   2.683  21.573
 4160SOL    HW224109   4.248   2.569  21.558
 4161SOL     OW24110   0.214   3.964   0.105
 4161SOL    HW124111   0.298   3.999   0.076
 4161SOL    HW224112   0.149   4.020   0.062
 4162SOL     OW24113   1.752   0.290  24.417
 4162SOL    HW124114   1.791   0.227  24.356
 4162SOL    HW224115   1.728   0.365  24.363
 4163SOL     OW24116   4.214   3.561   2.294
 4163SOL    HW124117   4.260   3.599   2.369
 4163SOL    HW224118   4.123   3.555   2.323
 4164SOL     OW24119   1.232   3.883   9.717
 4164SOL    HW124120   1.273   3.970   9.717
 4164SOL    HW224121   1.170   3.885   9.644
 4165SOL     OW24122   2.988   2.665  28.134
 4165SOL    HW124123   2.898   2.669  28.101
 4165SOL    HW224124   3.042   2.699  28.062
 4166SOL     OW24125   4.726   0.856   7.817
 4166SOL    HW124126   4.664   0.902   7.874
 4166SOL    HW224127   4.681   0.776   7.792
 4167SOL     OW24128   2.548   0.867  22.903
 4167SOL    HW124129   2.516   0.816  22.829
 4167SOL    HW224130   2.470   0.889  22.953
 4168SOL     OW24131   0.298   4.593  22.084
 4168SOL    HW124132   0.323   4.577  21.993
 4168SOL    HW224133   0.231   4.661  22.079
 4169SOL     OW24134   1.142   1.211  17.981
 4169SOL    HW124135   1.228   1.173  18.000
 4169SOL    HW224136   1.129   1.277  18.049
 4170SOL     OW24137   4.473   1.530   6.110
 4170SOL    HW124138   4.565   1.543   6.131
 4170SOL    HW224139   4.462   1.572   6.025
 4171SOL     OW24140   4.104   0.994   3.971
 4171SOL    HW124141   4.028   1.048   3.993
 4171SOL    HW224142   4.152   0.986   4.053
 4172SOL     OW24143   1.317   2.999  22.000
 4172SOL    HW124144   1.293   2.918  22.046
 4172SOL    HW224145   1.283   3.069  22.056
 4173SOL     OW24146   0.016   1.704  20.653
 4173SOL    HW124147   4.780   1.675  20.563
 4173SOL    HW224148   0.070   1.783  20.644
 4174SOL     OW24149   4.481   4.577  25.201
 4174SOL    HW124150   4.533   4.657  25.202
 4174SOL    HW224151   4.501   4.534  25.284
 4175SOL     OW24152   0.755   1.800  21.512
 4175SOL    HW124153   0.673   1.752  21.522
 4175SOL    HW224154   0.737   1.887  21.549
 4176SOL     OW24155   2.392   4.048   8.460
 4176SOL    HW124156   2.482   4.016   8.451
 4176SOL    HW224157   2.352   3.988   8.522
 4177SOL     OW24158   4.145   0.870  20.340
 4177SOL    HW124159   4.214   0.842  20.279
 4177SOL    HW224160   4.073   0.810  20.323
 4178SOL     OW24161   0.881   1.149  10.338
 4178SOL    HW124162   0.832   1.099  10.403
 4178SOL    HW224163   0.947   1.196  10.388
 4179SOL     OW24164   1.128   1.709  21.248
 4179SOL    HW124165   1.078   1.789  21.266
 4179SOL    HW224166   1.219   1.735  21.262
 4180SOL     OW24167   1.071   0.139  27.872
 4180SOL    HW124168   1.059   0.106  27.783
 4180SOL    HW224169   1.108   0.227  27.860
 4181SOL     OW24170   1.857   0.060  13.536
 4181SOL    HW124171   1.792   0.125  13.561
 4181SOL    HW224172   1.810   4.757  13.539
 4182SOL     OW24173   0.540   2.689  24.653
 4182SOL    HW124174   0.462   2.700  24.707
 4182SOL    HW224175   0.507   2.682  24.563
 4183SOL     OW24176   1.007   0.737  20.153
 4183SOL    HW124177   0.987   0.655  20.108
 4183SOL    HW224178   1.063   0.711  20.227
 4184SOL     OW24179   0.966   0.578   2.145
 4184SOL    HW124180   0.889   0.522   2.154
 4184SOL    HW224181   0.939   0.662   2.181
 4185SOL     OW24182   2.417   3.257   0.021
 4185SOL    HW124183   2.423   3.304   0.104
 4185SOL    HW224184   2.507   3.253  28.508
 4186SOL     OW24185   1.762   2.939  24.857
 4186SOL    HW124186   1.802   2.910  24.939
 4186SOL    HW224187   1.816   3.013  24.829
 4187SOL     OW24188   1.882   0.617  20.255
 4187SOL    HW124189   1.954   0.616  20.192
 4187SOL    HW224190   1.803   0.623  20.201
 4188SOL     OW24191   1.042   4.191   6.175
 4188SOL    HW124192   1.134   4.195   6.201
 4188SOL    HW224193   1.038   4.121   6.110
 4189SOL     OW24194   1.718   4.035  25.408
 4189SOL    HW124195   1.773   3.960  25.387
 4189SOL    HW224196   1.777   4.098  25.448
 4190SOL     OW24197   0.253   0.694   8.207
 4190SOL    HW124198   0.311   0.752   8.257
 4190SOL    HW224199   0.192   0.660   8.272
 4191SOL     OW24200   3.883   0.644  24.860
 4191SOL    HW124201   3.969   0.609  24.836
 4191SOL    HW224202   3.891   0.738  24.847
 4192SOL     OW24203   4.176   1.471   8.068
 4192SOL    HW124204   4.271   1.475   8.061
 4192SOL    HW224205   4.150   1.405   8.004
 4193SOL     OW24206   3.318   2.012  18.359
 4193SOL    HW124207   3.227   2.035  18.376
 4193SOL    HW224208   3.360   2.015  18.445
 4194SOL     OW24209   0.700   2.535  23.224
 4194SOL    HW124210   0.639   2.609  23.222
 4194SOL    HW224211   0.651   2.463  23.184
 4195SOL     OW24212   4.086   0.172  19.952
 4195SOL    HW124213   4.149   0.147  20.020
 4195SOL    HW224214   4.046   0.253  19.985
 4196SOL     OW24215   4.645   3.238   4.928
 4196SOL    HW124216   4.580   3.308   4.925
 4196SOL    HW224217   4.596   3.158   4.908
 4197SOL     OW24218   0.925   1.914  19.268
 4197SOL    HW124219   0.837   1.902  19.232
 4197SOL    HW224220   0.958   1.993  19.226
 4198SOL     OW24221   4.499   2.889  21.820
 4198SOL    HW124222   4.476   2.952  21.752
 4198SOL    HW224223   4.527   2.943  21.894
 4199SOL     OW24224   4.643   0.852   6.949
 4199SOL    HW124225   4.738   0.852   6.959
 4199SOL    HW224226   4.627   0.913   6.877
 4200SOL     OW24227   2.328   3.870   3.333
 4200SOL    HW124228   2.282   3.802   3.383
 4200SOL    HW224229   2.298   3.952   3.371
 4201SOL     OW24230   1.818   0.981  25.579
 4201SOL    HW124231   1.740   0.933  25.550
 4201SOL    HW224232   1.813   0.978  25.675
 4202SOL     OW24233   4.574   4.355  10.615
 4202SOL    HW124234   4.495   4.395  10.651
 4202SOL    HW224235   4.639   4.425  10.618
 4203SOL     OW24236   3.180   3.830  27.974
 4203SOL    HW124237   3.270   3.801  27.961
 4203SOL    HW224238   3.146   3.842  27.885
 4204SOL     OW24239   0.117   2.757   1.381
 4204SOL    HW124240   0.168   2.829   1.418
 4204SOL    HW224241   0.031   2.795   1.363
 4205SOL     OW24242   4.318   4.688  22.555
 4205SOL    HW124243   4.237   4.688  22.504
 4205SOL    HW224244   4.384   4.653  22.495
 4206SOL     OW24245   2.788   3.961   0.503
 4206SOL    HW124246   2.697   3.949   0.529
 4206SOL    HW224247   2.833   3.986   0.584
 4207SOL     OW24248   0.877   1.150  12.590
 4207SOL    HW124249   0.898   1.242  12.607
 4207SOL    HW224250   0.957   1.102  12.610
 4208SOL     OW24251   3.900   1.029   7.642
 4208SOL    HW124252   3.831   1.014   7.577
 4208SOL    HW224253   3.877   1.113   7.682
 4209SOL     OW24254   4.476   4.478   5.486
 4209SOL    HW124255   4.402   4.443   5.536
 4209SOL    HW224256   4.441   4.556   5.443
 4210SOL     OW24257   2.185   3.790   9.975
 4210SOL    HW124258   2.148   3.861  10.028
 4210SOL    HW224259   2.117   3.723   9.973
 4211SOL     OW24260   1.205   0.557   9.270
 4211SOL    HW124261   1.300   0.564   9.264
 4211SOL    HW224262   1.189   0.467   9.299
 4212SOL     OW24263   3.249   4.636  27.316
 4212SOL    HW124264   3.241   4.698  27.388
 4212SOL    HW224265   3.220   4.685  27.239
 4213SOL     OW24266   1.761   0.143   9.993
 4213SOL    HW124267   1.772   0.112  10.083
 4213SOL    HW224268   1.788   0.069   9.939
 4214SOL     OW24269   4.307   3.455  23.097
 4214SOL    HW124270   4.289   3.536  23.050
 4214SOL    HW224271   4.403   3.451  23.102
 4215SOL     OW24272   3.449   4.586   7.185
 4215SOL    HW124273   3.415   4.634   7.260
 4215SOL    HW224274   3.543   4.579   7.201
 4216SOL     OW24275   0.404   3.504   5.715
 4216SOL    HW124276   0.479   3.512   5.775
 4216SOL    HW224277   0.399   3.411   5.694
 4217SOL     OW24278   0.838   1.379   4.256
 4217SOL    HW124279   0.883   1.460   4.280
 4217SOL    HW224280   0.824   1.334   4.339
 4218SOL     OW24281   2.697   3.250   1.545
 4218SOL    HW124282   2.704   3.329   1.598
 4218SOL    HW224283   2.604   3.229   1.546
 4219SOL     OW24284   0.418   2.217   1.574
 4219SOL    HW124285   0.401   2.267   1.494
 4219SOL    HW224286   0.398   2.278   1.645
 4220SOL     OW24287   3.527   1.913   7.781
 4220SOL    HW124288   3.467   1.861   7.834
 4220SOL    HW224289   3.582   1.848   7.737
 4221SOL     OW24290   1.887   3.256  28.354
 4221SOL    HW124291   1.922   3.317  28.419
 4221SOL    HW224292   1.957   3.192  28.342
 4222SOL     OW24293   4.763   4.685  20.939
 4222SOL    HW124294   4.677   4.658  20.905
 4222SOL    HW224295   4.766   4.780  20.925
 4223SOL     OW24296   4.367   2.454   4.115
 4223SOL    HW124297   4.354   2.549   4.123
 4223SOL    HW224298   4.280   2.420   4.094
 4224SOL     OW24299   2.096   0.952   5.800
 4224SOL    HW124300   2.003   0.971   5.789
 4224SOL    HW224301   2.112   0.876   5.744
 4225SOL     OW24302   3.937   0.979   2.853
 4225SOL    HW124303   3.904   0.905   2.904
 4225SOL    HW224304   3.974   0.940   2.774
 4226SOL     OW24305   2.979   3.654   5.309
 4226SOL    HW124306   3.011   3.708   5.381
 4226SOL    HW224307   2.891   3.628   5.336
 4227SOL     OW24308   0.922   4.507  10.137
 4227SOL    HW124309   0.947   4.473  10.223
 4227SOL    HW224310   0.830   4.482  10.127
 4228SOL     OW24311   0.455   3.342   2.149
 4228SOL    HW124312   0.371   3.380   2.122
 4228SOL    HW224313   0.433   3.284   2.221
 4229SOL     OW24314   0.694   2.796   2.166
 4229SOL    HW124315   0.729   2.708   2.154
 4229SOL    HW224316   0.657   2.796   2.254
 4230SOL     OW24317   2.652   3.562   3.317
 4230SOL    HW124318   2.684   3.473   3.335
 4230SOL    HW224319   2.720   3.619   3.351
 4231SOL     OW24320   3.764   3.371  24.035
 4231SOL    HW124321   3.691   3.380  24.096
 4231SOL    HW224322   3.833   3.328  24.085
 4232SOL     OW24323   0.723   4.256  10.500
 4232SOL    HW124324   0.682   4.314  10.435
 4232SOL    HW224325   0.817   4.272  10.490
 4233SOL     OW24326   0.968   0.069  21.005
 4233SOL    HW124327   0.916   0.149  21.004
 4233SOL    HW224328   0.955   0.033  21.093
 4234SOL     OW24329   3.295   2.683   5.605
 4234SOL    HW124330   3.247   2.613   5.649
 4234SOL    HW224331   3.387   2.662   5.621
 4235SOL     OW24332   1.710   0.439  22.463
 4235SOL    HW124333   1.650   0.397  22.524
 4235SOL    HW224334   1.657   0.506  22.420
 4236SOL     OW24335   4.780   0.324  27.231
 4236SOL    HW124336   4.697   0.360  27.199
 4236SOL    HW224337   4.760   0.294  27.320
 4237SOL     OW24338   2.671   2.039  23.635
 4237SOL    HW124339   2.596   1.980  23.634
 4237SOL    HW224340   2.742   1.988  23.675
 4238SOL     OW24341   3.167   3.671  20.379
 4238SOL    HW124342   3.209   3.756  20.372
 4238SOL    HW224343   3.192   3.638  20.465
 4239SOL     OW24344   2.887   2.788   4.567
 4239SOL    HW124345   2.943   2.752   4.636
 4239SOL    HW224346   2.832   2.852   4.612
 4240SOL     OW24347   4.546   3.997   3.213
 4240SOL    HW124348   4.560   4.070   3.153
 4240SOL    HW224349   4.473   3.949   3.174
 4241SOL     OW24350   1.003   2.535   1.685
 4241SOL    HW124351   0.913   2.564   1.699
 4241SOL    HW224352   0.997   2.468   1.617
 4242SOL     OW24353   4.476   3.605   8.902
 4242SOL    HW124354   4.535   3.659   8.955
 4242SOL    HW224355   4.441   3.541   8.964
 4243SOL     OW24356   1.171   0.828  21.209
 4243SOL    HW124357   1.213   0.870  21.134
 4243SOL    HW224358   1.079   0.852  21.201
 4244SOL     OW24359   2.576   1.529   1.815
 4244SOL    HW124360   2.487   1.507   1.843
 4244SOL    HW224361   2.567   1.556   1.724
 4245SOL     OW24362   3.218   2.211  21.497
 4245SOL    HW124363   3.158   2.144  21.465
 4245SOL    HW224364   3.239   2.264  21.420
 4246SOL     OW24365   0.713   0.879   8.585
 4246SOL    HW124366   0.655   0.812   8.548
 4246SOL    HW224367   0.794   0.870   8.535
 4247SOL     OW24368   2.634   2.788  24.482
 4247SOL    HW124369   2.619   2.879  24.457
 4247SOL    HW224370   2.694   2.793  24.556
 4248SOL     OW24371   1.910   2.662  11.055
 4248SOL    HW124372   1.937   2.571  11.040
 4248SOL    HW224373   1.888   2.666  11.148
 4249SOL     OW24374   3.400   2.488   2.930
 4249SOL    HW124375   3.441   2.430   2.867
 4249SOL    HW224376   3.471   2.545   2.960
 4250SOL     OW24377   1.365   2.830   6.876
 4250SOL    HW124378   1.283   2.853   6.919
 4250SOL    HW224379   1.395   2.751   6.922
 4251SOL     OW24380   2.943   1.678  28.105
 4251SOL    HW124381   2.869   1.734  28.080
 4251SOL    HW224382   2.985   1.724  28.177
 4252SOL     OW24383   4.444   4.397  18.374
 4252SOL    HW124384   4.495   4.422  18.297
 4252SOL    HW224385   4.361   4.444  18.364
 4253SOL     OW24386   0.092   1.918   2.089
 4253SOL    HW124387   0.103   1.983   2.158
 4253SOL    HW224388   0.099   1.834   2.134
 4254SOL     OW24389   0.229   1.754   8.338
 4254SOL    HW124390   0.255   1.699   8.412
 4254SOL    HW224391   0.311   1.794   8.308
 4255SOL     OW24392   3.839   2.559   5.465
 4255SOL    HW124393   3.836   2.522   5.553
 4255SOL    HW224394   3.820   2.485   5.407
 4256SOL     OW24395   4.000   1.395  20.309
 4256SOL    HW124396   4.068   1.440  20.259
 4256SOL    HW224397   4.039   1.311  20.334
 4257SOL     OW24398   1.172   1.419   0.775
 4257SOL    HW124399   1.244   1.433   0.714
 4257SOL    HW224400   1.174   1.325   0.793
 4258SOL     OW24401   0.091   3.529   5.742
 4258SOL    HW124402   0.166   3.475   5.767
 4258SOL    HW224403   0.062   3.494   5.658
 4259SOL     OW24404   3.662   0.292   3.115
 4259SOL    HW124405   3.657   0.354   3.042
 4259SOL    HW224406   3.704   0.214   3.077
 4260SOL     OW24407   1.085   1.484  21.418
 4260SOL    HW124408   1.113   1.548  21.352
 4260SOL    HW224409   1.072   1.403  21.369
 4261SOL     OW24410   0.162   2.685  23.285
 4261SOL    HW124411   0.175   2.689  23.190
 4261SOL    HW224412   0.072   2.654  23.295
 4262SOL     OW24413   3.273   0.659   9.535
 4262SOL    HW124414   3.182   0.638   9.556
 4262SOL    HW224415   3.316   0.669   9.620
 4263SOL     OW24416   0.440   4.581   1.528
 4263SOL    HW124417   0.452   4.644   1.600
 4263SOL    HW224418   0.377   4.623   1.470
 4264SOL     OW24419   1.719   2.967  27.247
 4264SOL    HW124420   1.813   2.984  27.252
 4264SOL    HW224421   1.679   3.054  27.238
 4265SOL     OW24422   0.434   3.426   1.259
 4265SOL    HW124423   0.461   3.362   1.325
 4265SOL    HW224424   0.472   3.393   1.177
 4266SOL     OW24425   4.399   1.550  19.530
 4266SOL    HW124426   4.487   1.529  19.498
 4266SOL    HW224427   4.356   1.465  19.540
 4267SOL     OW24428   3.345   0.278   3.116
 4267SOL    HW124429   3.360   0.371   3.135
 4267SOL    HW224430   3.279   0.279   3.046
 4268SOL     OW24431   1.261   2.016  28.240
 4268SOL    HW124432   1.192   1.949  28.244
 4268SOL    HW224433   1.339   1.968  28.213
 4269SOL     OW24434   0.535   2.410  25.024
 4269SOL    HW124435   0.581   2.429  25.106
 4269SOL    HW224436   0.467   2.478  25.019
 4270SOL     OW24437   2.476   4.457   5.278
 4270SOL    HW124438   2.407   4.516   5.249
 4270SOL    HW224439   2.439   4.412   5.354
 4271SOL     OW24440   1.130   4.488  22.956
 4271SOL    HW124441   1.107   4.395  22.955
 4271SOL    HW224442   1.084   4.525  22.881
 4272SOL     OW24443   0.328   1.585  20.322
 4272SOL    HW124444   0.278   1.578  20.241
 4272SOL    HW224445   0.322   1.677  20.346
 4273SOL     OW24446   4.599   2.364  24.921
 4273SOL    HW124447   4.516   2.328  24.890
 4273SOL    HW224448   4.608   2.447  24.873
 4274SOL     OW24449   3.664   3.947  22.575
 4274SOL    HW124450   3.604   3.996  22.631
 4274SOL    HW224451   3.639   3.855  22.587
 4275SOL     OW24452   1.812   0.305   0.413
 4275SOL    HW124453   1.852   0.219   0.399
 4275SOL    HW224454   1.729   0.287   0.457
 4276SOL     OW24455   4.292   4.324   8.779
 4276SOL    HW124456   4.248   4.379   8.714
 4276SOL    HW224457   4.227   4.259   8.803
 4277SOL     OW24458   3.686   4.228   6.059
 4277SOL    HW124459   3.607   4.259   6.102
 4277SOL    HW224460   3.686   4.133   6.074
 4278SOL     OW24461   3.419   0.802   9.143
 4278SOL    HW124462   3.507   0.769   9.126
 4278SOL    HW224463   3.433   0.884   9.191
 4279SOL     OW24464   1.884   4.676   3.386
 4279SOL    HW124465   1.929   4.657   3.304
 4279SOL    HW224466   1.798   4.636   3.376
 4280SOL     OW24467   2.847   1.669   4.811
 4280SOL    HW124468   2.858   1.764   4.821
 4280SOL    HW224469   2.874   1.632   4.895
 4281SOL     OW24470   1.272   3.315   4.412
 4281SOL    HW124471   1.256   3.224   4.436
 4281SOL    HW224472   1.345   3.342   4.468
 4282SOL     OW24473   0.935   2.158   0.193
 4282SOL    HW124474   0.983   2.085   0.232
 4282SOL    HW224475   0.982   2.236   0.222
 4283SOL     OW24476   3.523   0.753   4.719
 4283SOL    HW124477   3.506   0.825   4.658
 4283SOL    HW224478   3.457   0.763   4.787
 4284SOL     OW24479   0.901   1.657   2.915
 4284SOL    HW124480   0.910   1.607   2.834
 4284SOL    HW224481   0.973   1.719   2.913
 4285SOL     OW24482   1.464   4.607  22.210
 4285SOL    HW124483   1.451   4.520  22.172
 4285SOL    HW224484   1.505   4.658  22.140
 4286SOL     OW24485   4.516   2.929  26.258
 4286SOL    HW124486   4.527   2.840  26.224
 4286SOL    HW224487   4.523   2.920  26.353
 4287SOL     OW24488   3.893   3.052  20.960
 4287SOL    HW124489   3.897   3.036  21.054
 4287SOL    HW224490   3.899   3.147  20.952
 4288SOL     OW24491   0.935   3.202  21.122
 4288SOL    HW124492   1.019   3.200  21.169
 4288SOL    HW224493   0.893   3.282  21.152
 4289SOL     OW24494   0.099   1.987   2.729
 4289SOL    HW124495   0.138   2.016   2.646
 4289SOL    HW224496   0.055   1.905   2.707
 4290SOL     OW24497   1.689   2.027   6.013
 4290SOL    HW124498   1.751   2.079   5.962
 4290SOL    HW224499   1.744   1.974   6.070
 4291SOL     OW24500   3.395   1.076   5.998
 4291SOL    HW124501   3.310   1.039   6.021
 4291SOL    HW224502   3.380   1.171   5.996
 4292SOL     OW24503   4.292   3.225   0.658
 4292SOL    HW124504   4.387   3.226   0.667
 4292SOL    HW224505   4.276   3.193   0.569
 4293SOL     OW24506   1.061   2.048  28.006
 4293SOL    HW124507   1.151   2.051  28.037
 4293SOL    HW224508   1.068   2.012  27.917
 4294SOL     OW24509   2.430   1.990  18.755
 4294SOL    HW124510   2.449   1.985  18.849
 4294SOL    HW224511   2.412   1.900  18.729
 4295SOL     OW24512   0.768   4.390  22.929
 4295SOL    HW124513   0.826   4.372  23.003
 4295SOL    HW224514   0.680   4.381  22.965
 4296SOL     OW24515   2.288   2.821   3.792
 4296SOL    HW124516   2.276   2.873   3.872
 4296SOL    HW224517   2.200   2.792   3.770
 4297SOL     OW24518   3.242   2.931   5.697
 4297SOL    HW124519   3.225   2.837   5.686
 4297SOL    HW224520   3.334   2.936   5.723
 4298SOL     OW24521   1.042   3.612   5.342
 4298SOL    HW124522   1.012   3.531   5.300
 4298SOL    HW224523   1.134   3.619   5.317
 4299SOL     OW24524   3.108   1.328   1.927
 4299SOL    HW124525   3.121   1.407   1.875
 4299SOL    HW224526   3.089   1.360   2.015
 4300SOL     OW24527   4.355   1.730   0.764
 4300SOL    HW124528   4.401   1.647   0.773
 4300SOL    HW224529   4.417   1.787   0.719
 4301SOL     OW24530   4.243   0.340  18.708
 4301SOL    HW124531   4.187   0.289  18.650
 4301SOL    HW224532   4.314   0.371  18.652
 4302SOL     OW24533   0.418   1.942   8.219
 4302SOL    HW124534   0.409   1.897   8.135
 4302SOL    HW224535   0.457   2.027   8.196
 4303SOL     OW24536   0.071   1.851  10.560
 4303SOL    HW124537   0.136   1.787  10.591
 4303SOL    HW224538   0.075   1.922  10.624
 4304SOL     OW24539   0.740   0.986  20.820
 4304SOL    HW124540   0.718   0.921  20.753
 4304SOL    HW224541   0.735   1.070  20.775
 4305SOL     OW24542   2.759   3.756   5.659
 4305SOL    HW124543   2.838   3.765   5.606
 4305SOL    HW224544   2.779   3.803   5.740
 4306SOL     OW24545   0.234   3.688   6.562
 4306SOL    HW124546   0.263   3.724   6.478
 4306SOL    HW224547   0.270   3.599   6.564
 4307SOL     OW24548   0.744   2.893   1.505
 4307SOL    HW124549   0.671   2.955   1.509
 4307SOL    HW224550   0.797   2.924   1.432
 4308SOL     OW24551   2.418   4.068   5.402
 4308SOL    HW124552   2.479   4.012   5.355
 4308SOL    HW224553   2.331   4.035   5.379
 4309SOL     OW24554   3.703   1.891  11.933
 4309SOL    HW124555   3.756   1.841  11.995
 4309SOL    HW224556   3.766   1.941  11.882
 4310SOL     OW24557   2.359   2.358  23.029
 4310SOL    HW124558   2.324   2.281  22.984
 4310SOL    HW224559   2.307   2.364  23.109
 4311SOL     OW24560   1.902   0.486   1.215
 4311SOL    HW124561   1.952   0.454   1.290
 4311SOL    HW224562   1.828   0.426   1.207
 4312SOL     OW24563   0.465   1.061  21.341
 4312SOL    HW124564   0.520   1.005  21.286
 4312SOL    HW224565   0.480   1.029  21.430
 4313SOL     OW24566   1.864   3.678   2.606
 4313SOL    HW124567   1.952   3.672   2.569
 4313SOL    HW224568   1.878   3.693   2.699
 4314SOL     OW24569   0.553   4.750  20.020
 4314SOL    HW124570   0.567   4.659  20.046
 4314SOL    HW224571   0.567   4.751  19.925
 4315SOL     OW24572   0.319   4.627  11.651
 4315SOL    HW124573   0.395   4.680  11.627
 4315SOL    HW224574   0.296   4.656  11.739
 4316SOL     OW24575   0.639   2.516   3.012
 4316SOL    HW124576   0.585   2.593   2.994
 4316SOL    HW224577   0.590   2.443   2.974
 4317SOL     OW24578   2.336   2.907   7.545
 4317SOL    HW124579   2.417   2.923   7.593
 4317SOL    HW224580   2.323   2.986   7.492
 4318SOL     OW24581   4.448   3.503   3.002
 4318SOL    HW124582   4.363   3.508   2.957
 4318SOL    HW224583   4.485   3.419   2.974
 4319SOL     OW24584   4.430   2.562  24.343
 4319SOL    HW124585   4.359   2.608  24.388
 4319SOL    HW224586   4.466   2.627  24.283
 4320SOL     OW24587   1.612   3.702  26.472
 4320SOL    HW124588   1.601   3.742  26.386
 4320SOL    HW224589   1.580   3.768  26.533
 4321SOL     OW24590   3.870   0.082   3.754
 4321SOL    HW124591   3.877   4.767   3.763
 4321SOL    HW224592   3.888   0.116   3.842
 4322SOL     OW24593   0.410   2.745  22.201
 4322SOL    HW124594   0.387   2.722  22.111
 4322SOL    HW224595   0.410   2.661  22.248
 4323SOL     OW24596   1.718   3.778   5.477
 4323SOL    HW124597   1.762   3.846   5.529
 4323SOL    HW224598   1.771   3.700   5.490
 4324SOL     OW24599   1.977   0.777   4.252
 4324SOL    HW124600   1.948   0.716   4.185
 4324SOL    HW224601   2.066   0.749   4.273
 4325SOL     OW24602   0.324   2.463   6.491
 4325SOL    HW124603   0.264   2.394   6.463
 4325SOL    HW224604   0.276   2.511   6.558
 4326SOL     OW24605   0.566   2.784   9.523
 4326SOL    HW124606   0.598   2.871   9.500
 4326SOL    HW224607   0.566   2.784   9.619
 4327SOL     OW24608   1.724   1.852  26.581
 4327SOL    HW124609   1.678   1.936  26.573
 4327SOL    HW224610   1.749   1.846  26.673
 4328SOL     OW24611   3.498   1.981   2.218
 4328SOL    HW124612   3.473   2.051   2.278
 4328SOL    HW224613   3.456   2.005   2.135
 4329SOL     OW24614   3.466   1.116   1.169
 4329SOL    HW124615   3.401   1.096   1.101
 4329SOL    HW224616   3.484   1.209   1.158
 4330SOL     OW24617   3.851   4.448  28.320
 4330SOL    HW124618   3.929   4.498  28.343
 4330SOL    HW224619   3.875   4.357  28.337
 4331SOL     OW24620   3.630   3.649  22.149
 4331SOL    HW124621   3.564   3.691  22.094
 4331SOL    HW224622   3.663   3.576  22.097
 4332SOL     OW24623   0.053   2.955  10.230
 4332SOL    HW124624   0.050   2.868  10.190
 4332SOL    HW224625   0.064   3.015  10.156
 4333SOL     OW24626   3.895   1.281   5.002
 4333SOL    HW124627   3.883   1.214   5.069
 4333SOL    HW224628   3.899   1.232   4.920
 4334SOL     OW24629   3.564   3.503   5.488
 4334SOL    HW124630   3.470   3.485   5.488
 4334SOL    HW224631   3.604   3.419   5.510
 4335SOL     OW24632   1.245   2.276   0.474
 4335SOL    HW124633   1.283   2.270   0.386
 4335SOL    HW224634   1.161   2.320   0.461
 4336SOL     OW24635   2.141   0.605   6.698
 4336SOL    HW124636   2.136   0.660   6.620
 4336SOL    HW224637   2.192   0.657   6.761
 4337SOL     OW24638   2.938   2.203  24.049
 4337SOL    HW124639   2.860   2.238  24.006
 4337SOL    HW224640   2.976   2.143  23.984
 4338SOL     OW24641   0.664   0.880   5.406
 4338SOL    HW124642   0.600   0.832   5.458
 4338SOL    HW224643   0.749   0.847   5.435
 4339SOL     OW24644   1.841   4.719   7.115
 4339SOL    HW124645   1.802   4.662   7.048
 4339SOL    HW224646   1.769   4.740   7.174
 4340SOL     OW24647   0.994   4.447  25.606
 4340SOL    HW124648   0.927   4.380  25.593
 4340SOL    HW224649   0.974   4.514  25.541
 4341SOL     OW24650   0.043   0.195   0.379
 4341SOL    HW124651   0.060   0.253   0.305
 4341SOL    HW224652   0.022   0.254   0.451
 4342SOL     OW24653   4.138   1.781  23.598
 4342SOL    HW124654   4.092   1.842  23.656
 4342SOL    HW224655   4.214   1.830  23.567
 4343SOL     OW24656   0.221   0.981   0.621
 4343SOL    HW124657   0.174   1.053   0.663
 4343SOL    HW224658   0.198   0.904   0.673
 4344SOL     OW24659   3.064   3.318  23.789
 4344SOL    HW124660   3.080   3.402  23.747
 4344SOL    HW224661   3.125   3.315  23.863
 4345SOL     OW24662   4.338   3.394   4.359
 4345SOL    HW124663   4.271   3.450   4.320
 4345SOL    HW224664   4.296   3.357   4.437
 4346SOL     OW24665   2.019   1.175   6.029
 4346SOL    HW124666   2.081   1.238   5.993
 4346SOL    HW224667   1.960   1.155   5.956
 4347SOL     OW24668   3.073   2.665  25.456
 4347SOL    HW124669   3.143   2.680  25.519
 4347SOL    HW224670   3.015   2.602  25.498
 4348SOL     OW24671   1.569   1.200   9.588
 4348SOL    HW124672   1.594   1.162   9.504
 4348SOL    HW224673   1.488   1.247   9.569
 4349SOL     OW24674   3.494   1.160   6.652
 4349SOL    HW124675   3.460   1.090   6.597
 4349SOL    HW224676   3.582   1.176   6.619
 4350SOL     OW24677   4.294   3.219  27.721
 4350SOL    HW124678   4.252   3.165  27.654
 4350SOL    HW224679   4.282   3.309  27.691
 4351SOL     OW24680   2.237   2.966  26.600
 4351SOL    HW124681   2.211   3.002  26.515
 4351SOL    HW224682   2.330   2.946  26.591
 4352SOL     OW24683   3.068   2.416  19.781
 4352SOL    HW124684   3.102   2.367  19.856
 4352SOL    HW224685   3.108   2.502  19.788
 4353SOL     OW24686   4.339   3.569  22.321
 4353SOL    HW124687   4.253   3.528  22.332
 4353SOL    HW224688   4.401   3.499  22.341
 4354SOL     OW24689   4.376   0.129   3.806
 4354SOL    HW124690   4.387   0.040   3.840
 4354SOL    HW224691   4.346   0.117   3.716
 4355SOL     OW24692   1.741   4.222  26.537
 4355SOL    HW124693   1.830   4.235  26.570
 4355SOL    HW224694   1.695   4.303  26.559
 4356SOL     OW24695   0.421   3.766   0.340
 4356SOL    HW124696   0.469   3.804   0.266
 4356SOL    HW224697   0.402   3.676   0.313
 4357SOL     OW24698   0.316   2.579   8.777
 4357SOL    HW124699   0.254   2.516   8.740
 4357SOL    HW224700   0.398   2.560   8.732
 4358SOL     OW24701   0.773   2.840  23.059
 4358SOL    HW124702   0.728   2.756  23.059
 4358SOL    HW224703   0.758   2.875  22.971
 4359SOL     OW24704   0.009   4.027  21.262
 4359SOL    HW124705   0.028   4.026  21.168
 4359SOL    HW224706   4.719   3.962  21.273
 4360SOL     OW24707   1.995   2.326  28.357
 4360SOL    HW124708   1.932   2.395  28.377
 4360SOL    HW224709   2.028   2.348  28.270
 4361SOL     OW24710   3.197   2.268  17.295
 4361SOL    HW124711   3.231   2.231  17.214
 4361SOL    HW224712   3.144   2.198  17.333
 4362SOL     OW24713   2.614   2.159   5.196
 4362SOL    HW124714   2.555   2.205   5.255
 4362SOL    HW224715   2.651   2.089   5.250
 4363SOL     OW24716   0.812   1.155   9.610
 4363SOL    HW124717   0.768   1.128   9.690
 4363SOL    HW224718   0.746   1.207   9.563
 4364SOL     OW24719   0.477   2.602  24.026
 4364SOL    HW124720   0.519   2.558  23.952
 4364SOL    HW224721   0.550   2.638  24.077
 4365SOL     OW24722   2.737   4.315   1.338
 4365SOL    HW124723   2.670   4.325   1.405
 4365SOL    HW224724   2.715   4.381   1.272
 4366SOL     OW24725   4.033   0.932   9.329
 4366SOL    HW124726   4.103   0.957   9.389
 4366SOL    HW224727   4.042   0.837   9.319
 4367SOL     OW24728   3.309   2.195  12.080
 4367SOL    HW124729   3.282   2.110  12.045
 4367SOL    HW224730   3.392   2.178  12.124
 4368SOL     OW24731   1.714   0.525  10.994
 4368SOL    HW124732   1.774   0.596  11.016
 4368SOL    HW224733   1.735   0.456  11.057
 4369SOL     OW24734   0.067   3.774   8.284
 4369SOL    HW124735   0.155   3.803   8.309
 4369SOL    HW224736   0.012   3.800   8.358
 4370SOL     OW24737   0.703   0.131   4.745
 4370SOL    HW124738   0.769   0.121   4.676
 4370SOL    HW224739   0.680   0.041   4.769
 4371SOL     OW24740   1.876   1.281   6.221
 4371SOL    HW124741   1.924   1.265   6.140
 4371SOL    HW224742   1.867   1.194   6.261
 4372SOL     OW24743   0.796   2.199   8.994
 4372SOL    HW124744   0.770   2.192   9.086
 4372SOL    HW224745   0.860   2.129   8.982
 4373SOL     OW24746   1.735   4.551  19.425
 4373SOL    HW124747   1.643   4.548  19.399
 4373SOL    HW224748   1.734   4.584  19.515
 4374SOL     OW24749   0.667   4.434   1.045
 4374SOL    HW124750   0.604   4.426   1.116
 4374SOL    HW224751   0.729   4.362   1.059
 4375SOL     OW24752   2.564   1.372   9.215
 4375SOL    HW124753   2.479   1.379   9.258
 4375SOL    HW224754   2.596   1.285   9.239
 4376SOL     OW24755   0.957   2.842   0.197
 4376SOL    HW124756   0.881   2.878   0.242
 4376SOL    HW224757   0.921   2.801   0.118
 4377SOL     OW24758   4.758   0.465  28.445
 4377SOL    HW124759   4.768   0.559  28.461
 4377SOL    HW224760   4.664   0.452  28.434
 4378SOL     OW24761   1.913   1.923   1.203
 4378SOL    HW124762   1.856   1.994   1.174
 4378SOL    HW224763   1.859   1.872   1.264
 4379SOL     OW24764   0.010   4.578   9.079
 4379SOL    HW124765   0.088   4.578   9.135
 4379SOL    HW224766   4.717   4.582   9.140
 4380SOL     OW24767   2.567   0.270  11.355
 4380SOL    HW124768   2.609   0.356  11.352
 4380SOL    HW224769   2.481   0.286  11.393
 4381SOL     OW24770   1.295   1.704  24.094
 4381SOL    HW124771   1.280   1.714  24.000
 4381SOL    HW224772   1.361   1.770  24.115
 4382SOL     OW24773   3.445   0.243  11.031
 4382SOL    HW124774   3.510   0.313  11.043
 4382SOL    HW224775   3.465   0.179  11.100
 4383SOL     OW24776   4.668   2.637   4.159
 4383SOL    HW124777   4.604   2.568   4.178
 4383SOL    HW224778   4.704   2.614   4.073
 4384SOL     OW24779   1.796   4.461   1.439
 4384SOL    HW124780   1.744   4.382   1.452
 4384SOL    HW224781   1.744   4.514   1.379
 4385SOL     OW24782   0.846   2.448   4.665
 4385SOL    HW124783   0.816   2.492   4.586
 4385SOL    HW224784   0.823   2.508   4.736
 4386SOL     OW24785   1.337   0.457   8.926
 4386SOL    HW124786   1.320   0.428   9.016
 4386SOL    HW224787   1.393   0.388   8.889
 4387SOL     OW24788   3.878   1.744  24.067
 4387SOL    HW124789   3.790   1.719  24.037
 4387SOL    HW224790   3.878   1.725  24.161
 4388SOL     OW24791   4.047   1.893   2.876
 4388SOL    HW124792   3.994   1.851   2.808
 4388SOL    HW224793   4.063   1.981   2.843
 4389SOL     OW24794   1.450   3.923  25.624
 4389SOL    HW124795   1.490   3.975  25.554
 4389SOL    HW224796   1.484   3.835  25.611
 4390SOL     OW24797   2.961   4.689   5.276
 4390SOL    HW124798   3.039   4.636   5.260
 4390SOL    HW224799   2.991   4.779   5.266
 4391SOL     OW24800   1.720   3.420  25.785
 4391SOL    HW124801   1.792   3.480  25.763
 4391SOL    HW224802   1.722   3.355  25.715
 4392SOL     OW24803   0.335   4.734   4.636
 4392SOL    HW124804   0.253   4.715   4.682
 4392SOL    HW224805   0.403   4.693   4.690
 4393SOL     OW24806   3.815   1.591  18.302
 4393SOL    HW124807   3.749   1.592  18.371
 4393SOL    HW224808   3.895   1.620  18.345
 4394SOL     OW24809   3.920   1.097  20.862
 4394SOL    HW124810   3.942   1.006  20.844
 4394SOL    HW224811   3.837   1.093  20.909
 4395SOL     OW24812   1.173   4.339  21.191
 4395SOL    HW124813   1.137   4.250  21.197
 4395SOL    HW224814   1.152   4.367  21.102
 4396SOL     OW24815   1.147   4.360  25.811
 4396SOL    HW124816   1.088   4.393  25.743
 4396SOL    HW224817   1.188   4.283  25.772
 4397SOL     OW24818   2.902   3.276  28.044
 4397SOL    HW124819   2.822   3.303  27.998
 4397SOL    HW224820   2.874   3.206  28.102
 4398SOL     OW24821   3.003   1.157   1.586
 4398SOL    HW124822   3.087   1.147   1.630
 4398SOL    HW224823   3.022   1.144   1.493
 4399SOL     OW24824   1.293   1.851   6.810
 4399SOL    HW124825   1.223   1.794   6.779
 4399SOL    HW224826   1.370   1.823   6.761
 4400SOL     OW24827   4.393   3.207  26.541
 4400SOL    HW124828   4.420   3.176  26.627
 4400SOL    HW224829   4.398   3.130  26.485
 4401SOL     OW24830   0.885   4.455   8.375
 4401SOL    HW124831   0.846   4.542   8.376
 4401SOL    HW224832   0.823   4.402   8.325
 4402SOL     OW24833   2.760   2.567  23.022
 4402SOL    HW124834   2.757   2.474  22.999
 4402SOL    HW224835   2.815   2.607  22.955
 4403SOL     OW24836   1.186   3.467  21.746
 4403SOL    HW124837   1.255   3.418  21.791
 4403SOL    HW224838   1.105   3.420  21.767
 4404SOL     OW24839   2.468   2.247   3.350
 4404SOL    HW124840   2.489   2.295   3.430
 4404SOL    HW224841   2.519   2.290   3.282
 4405SOL     OW24842   4.703   1.156  23.423
 4405SOL    HW124843   4.723   1.079  23.369
 4405SOL    HW224844   4.654   1.121  23.497
 4406SOL     OW24845   4.351   2.625   7.363
 4406SOL    HW124846   4.330   2.568   7.437
 4406SOL    HW224847   4.296   2.702   7.376
 4407SOL     OW24848   4.083   3.827   2.050
 4407SOL    HW124849   4.150   3.798   2.112
 4407SOL    HW224850   4.133   3.860   1.975
 4408SOL     OW24851   0.980   3.676   1.813
 4408SOL    HW124852   1.019   3.589   1.805
 4408SOL    HW224853   1.019   3.713   1.892
 4409SOL     OW24854   1.540   0.497  19.408
 4409SOL    HW124855   1.568   0.420  19.359
 4409SOL    HW224856   1.457   0.523  19.367
 4410SOL     OW24857   2.521   0.998  23.477
 4410SOL    HW124858   2.519   1.091  23.455
 4410SOL    HW224859   2.431   0.978  23.504
 4411SOL     OW24860   0.240   0.286  27.989
 4411SOL    HW124861   0.154   0.275  28.030
 4411SOL    HW224862   0.293   0.330  28.055
 4412SOL     OW24863   2.135   0.101  13.067
 4412SOL    HW124864   2.100   0.186  13.092
 4412SOL    HW224865   2.184   0.072  13.144
 4413SOL     OW24866   0.187   1.509  27.044
 4413SOL    HW124867   0.167   1.564  26.969
 4413SOL    HW224868   0.147   1.554  27.118
 4414SOL     OW24869   3.599   2.358   8.028
 4414SOL    HW124870   3.686   2.321   8.043
 4414SOL    HW224871   3.605   2.399   7.942
 4415SOL     OW24872   2.129   0.713   6.445
 4415SOL    HW124873   2.115   0.808   6.444
 4415SOL    HW224874   2.168   0.693   6.360
 4416SOL     OW24875   0.352   2.407   1.267
 4416SOL    HW124876   0.380   2.421   1.176
 4416SOL    HW224877   0.306   2.323   1.265
 4417SOL     OW24878   2.278   4.283  20.016
 4417SOL    HW124879   2.358   4.233  19.999
 4417SOL    HW224880   2.229   4.278  19.934
 4418SOL     OW24881   0.190   0.055  13.126
 4418SOL    HW124882   0.255   0.113  13.166
 4418SOL    HW224883   0.219   4.747  13.148
 4419SOL     OW24884   1.464   1.471   7.821
 4419SOL    HW124885   1.476   1.394   7.765
 4419SOL    HW224886   1.528   1.535   7.789
 4420SOL     OW24887   4.136   1.792   9.033
 4420SOL    HW124888   4.055   1.837   9.010
 4420SOL    HW224889   4.108   1.721   9.090
 4421SOL     OW24890   0.308   0.856  27.948
 4421SOL    HW124891   0.364   0.781  27.967
 4421SOL    HW224892   0.353   0.931  27.987
 4422SOL     OW24893   1.492   4.334  19.537
 4422SOL    HW124894   1.398   4.330  19.554
 4422SOL    HW224895   1.500   4.380  19.454
 4423SOL     OW24896   3.122   0.347  10.119
 4423SOL    HW124897   3.087   0.423  10.164
 4423SOL    HW224898   3.076   0.273  10.157
 4424SOL     OW24899   4.610   3.400   9.404
 4424SOL    HW124900   4.561   3.454   9.342
 4424SOL    HW224901   4.549   3.330   9.429
 4425SOL     OW24902   1.113   1.501  23.567
 4425SOL    HW124903   1.074   1.555  23.498
 4425SOL    HW224904   1.043   1.440  23.591
 4426SOL     OW24905   2.142   0.510  20.709
 4426SOL    HW124906   2.120   0.585  20.654
 4426SOL    HW224907   2.147   0.546  20.797
 4427SOL     OW24908   0.235   1.465   6.528
 4427SOL    HW124909   0.199   1.381   6.500
 4427SOL    HW224910   0.231   1.462   6.624
 4428SOL     OW24911   1.559   0.982  25.834
 4428SOL    HW124912   1.607   0.964  25.753
 4428SOL    HW224913   1.619   0.956  25.904
 4429SOL     OW24914   2.892   0.079  22.721
 4429SOL    HW124915   2.894   0.145  22.652
 4429SOL    HW224916   2.826   0.110  22.782
 4430SOL     OW24917   1.099   3.648  18.678
 4430SOL    HW124918   1.059   3.642  18.591
 4430SOL    HW224919   1.106   3.742  18.695
 4431SOL     OW24920   2.718   4.328   4.409
 4431SOL    HW124921   2.646   4.293   4.461
 4431SOL    HW224922   2.678   4.397   4.356
 4432SOL     OW24923   0.910   0.789  17.321
 4432SOL    HW124924   0.956   0.854  17.268
 4432SOL    HW224925   0.834   0.765  17.268
 4433SOL     OW24926   3.237   0.794   3.572
 4433SOL    HW124927   3.182   0.753   3.639
 4433SOL    HW224928   3.175   0.821   3.504
 4434SOL     OW24929   3.451   0.027   2.857
 4434SOL    HW124930   3.477   0.096   2.796
 4434SOL    HW224931   3.372   4.770   2.818
 4435SOL     OW24932   3.558   3.262  19.265
 4435SOL    HW124933   3.511   3.264  19.348
 4435SOL    HW224934   3.490   3.250  19.199
 4436SOL     OW24935   1.905   2.253   4.738
 4436SOL    HW124936   1.821   2.244   4.694
 4436SOL    HW224937   1.953   2.174   4.715
 4437SOL     OW24938   2.210   3.832  19.725
 4437SOL    HW124939   2.233   3.923  19.706
 4437SOL    HW224940   2.143   3.837  19.794
 4438SOL     OW24941   2.022   1.080  26.347
 4438SOL    HW124942   1.973   1.150  26.390
 4438SOL    HW224943   1.960   1.041  26.286
 4439SOL     OW24944   0.380   0.714   4.404
 4439SOL    HW124945   0.407   0.801   4.433
 4439SOL    HW224946   0.424   0.702   4.320
 4440SOL     OW24947   3.638   4.592   7.467
 4440SOL    HW124948   3.648   4.571   7.374
 4440SOL    HW224949   3.649   4.508   7.511
 4441SOL     OW24950   0.493   4.453   6.273
 4441SOL    HW124951   0.476   4.377   6.217
 4441SOL    HW224952   0.547   4.419   6.344
 4442SOL     OW24953   1.722   0.310   4.010
 4442SOL    HW124954   1.729   0.287   4.103
 4442SOL    HW224955   1.637   0.354   4.003
 4443SOL     OW24956   3.877   1.532  23.826
 4443SOL    HW124957   3.799   1.580  23.798
 4443SOL    HW224958   3.910   1.581  23.901
 4444SOL     OW24959   2.247   3.252  20.938
 4444SOL    HW124960   2.204   3.182  20.987
 4444SOL    HW224961   2.341   3.235  20.948
 4445SOL     OW24962   2.933   1.006   7.078
 4445SOL    HW124963   2.980   0.977   7.000
 4445SOL    HW224964   2.993   1.066   7.122
 4446SOL     OW24965   2.992   1.579  28.485
 4446SOL    HW124966   3.065   1.519  28.504
 4446SOL    HW224967   2.955   1.599   0.052
 4447SOL     OW24968   2.189   3.560   5.453
 4447SOL    HW124969   2.212   3.599   5.369
 4447SOL    HW224970   2.104   3.519   5.439
 4448SOL     OW24971   2.752   2.639   1.362
 4448SOL    HW124972   2.693   2.707   1.396
 4448SOL    HW224973   2.822   2.687   1.319
 4449SOL     OW24974   3.581   1.495   1.919
 4449SOL    HW124975   3.521   1.535   1.982
 4449SOL    HW224976   3.532   1.422   1.882
 4450SOL     OW24977   0.413   1.186  26.296
 4450SOL    HW124978   0.509   1.184  26.293
 4450SOL    HW224979   0.388   1.245  26.225
 4451SOL     OW24980   0.473   3.141   0.230
 4451SOL    HW124981   0.474   3.192   0.149
 4451SOL    HW224982   0.519   3.195   0.294
 4452SOL     OW24983   3.246   3.467   6.446
 4452SOL    HW124984   3.233   3.372   6.445
 4452SOL    HW224985   3.158   3.504   6.438
 4453SOL     OW24986   2.527   0.965  25.276
 4453SOL    HW124987   2.470   0.893  25.303
 4453SOL    HW224988   2.467   1.037  25.256
 4454SOL     OW24989   2.125   3.496  23.996
 4454SOL    HW124990   2.076   3.421  23.963
 4454SOL    HW224991   2.090   3.571  23.947
 4455SOL     OW24992   4.296   2.352  20.671
 4455SOL    HW124993   4.233   2.280  20.675
 4455SOL    HW224994   4.352   2.331  20.596
 4456SOL     OW24995   1.338   1.146   4.220
 4456SOL    HW124996   1.293   1.125   4.302
 4456SOL    HW224997   1.353   1.061   4.179
 4457SOL     OW24998   3.444   1.629   8.712
 4457SOL    HW124999   3.460   1.681   8.634
 4457SOL    HW225000   3.405   1.548   8.679
 4458SOL     OW25001   4.750   3.786   4.562
 4458SOL    HW125002   0.056   3.827   4.558
 4458SOL    HW225003   4.757   3.710   4.505
 4459SOL     OW25004   1.638   2.004   8.379
 4459SOL    HW125005   1.608   2.043   8.461
 4459SOL    HW225006   1.641   1.910   8.397
 4460SOL     OW25007   3.058   3.762   8.018
 4460SOL    HW125008   3.145   3.750   8.056
 4460SOL    HW225009   3.043   3.857   8.021
 4461SOL     OW25010   0.958   3.802  19.839
 4461SOL    HW125011   0.877   3.827  19.795
 4461SOL    HW225012   0.942   3.819  19.932
 4462SOL     OW25013   0.565   1.749   4.941
 4462SOL    HW125014   0.638   1.697   4.974
 4462SOL    HW225015   0.487   1.699   4.964
 4463SOL     OW25016   2.848   1.512  25.731
 4463SOL    HW125017   2.775   1.461  25.694
 4463SOL    HW225018   2.882   1.562  25.657
 4464SOL     OW25019   0.245   0.879   9.018
 4464SOL    HW125020   0.236   0.805   9.078
 4464SOL    HW225021   0.203   0.952   9.064
 4465SOL     OW25022   1.261   1.884  23.859
 4465SOL    HW125023   1.282   1.968  23.817
 4465SOL    HW225024   1.172   1.865  23.830
 4466SOL     OW25025   4.362   2.243  21.113
 4466SOL    HW125026   4.326   2.212  21.030
 4466SOL    HW225027   4.300   2.212  21.179
 4467SOL     OW25028   0.810   1.478  22.431
 4467SOL    HW125029   0.772   1.391  22.442
 4467SOL    HW225030   0.891   1.476  22.481
 4468SOL     OW25031   1.000   0.797  23.277
 4468SOL    HW125032   0.930   0.862  23.269
 4468SOL    HW225033   0.955   0.713  23.273
 4469SOL     OW25034   1.784   2.546  25.416
 4469SOL    HW125035   1.839   2.624  25.425
 4469SOL    HW225036   1.703   2.578  25.376
 4470SOL     OW25037   1.396   0.308  24.613
 4470SOL    HW125038   1.426   0.240  24.673
 4470SOL    HW225039   1.455   0.381  24.629
 4471SOL     OW25040   3.791   0.436   5.112
 4471SOL    HW125041   3.791   0.340   5.106
 4471SOL    HW225042   3.882   0.462   5.095
 4472SOL     OW25043   0.348   3.324   2.718
 4472SOL    HW125044   0.432   3.282   2.738
 4472SOL    HW225045   0.288   3.251   2.703
 4473SOL     OW25046   2.790   3.253  25.997
 4473SOL    HW125047   2.885   3.260  25.989
 4473SOL    HW225048   2.776   3.199  26.075
 4474SOL     OW25049   3.499   0.386  27.584
 4474SOL    HW125050   3.589   0.410  27.606
 4474SOL    HW225051   3.460   0.360  27.667
 4475SOL     OW25052   1.183   2.174   5.315
 4475SOL    HW125053   1.145   2.226   5.244
 4475SOL    HW225054   1.169   2.227   5.393
 4476SOL     OW25055   4.357   1.022  26.783
 4476SOL    HW125056   4.352   1.090  26.850
 4476SOL    HW225057   4.309   0.948  26.821
 4477SOL     OW25058   1.821   1.662   6.977
 4477SOL    HW125059   1.900   1.706   6.946
 4477SOL    HW225060   1.793   1.713   7.053
 4478SOL     OW25061   4.741   3.326   0.061
 4478SOL    HW125062   4.771   3.342  28.491
 4478SOL    HW225063   0.039   3.337   0.115
 4479SOL     OW25064   4.532   4.215  11.432
 4479SOL    HW125065   4.450   4.254  11.402
 4479SOL    HW225066   4.530   4.126  11.396
 4480SOL     OW25067   0.601   3.253   3.149
 4480SOL    HW125068   0.545   3.232   3.074
 4480SOL    HW225069   0.578   3.343   3.172
 4481SOL     OW25070   3.714   1.861  27.952
 4481SOL    HW125071   3.670   1.946  27.954
 4481SOL    HW225072   3.648   1.799  27.983
 4482SOL     OW25073   1.640   3.404  10.305
 4482SOL    HW125074   1.587   3.471  10.262
 4482SOL    HW225075   1.644   3.432  10.396
 4483SOL     OW25076   2.257   4.437   0.939
 4483SOL    HW125077   2.210   4.507   0.983
 4483SOL    HW225078   2.231   4.357   0.985
 4484SOL     OW25079   1.400   1.639  28.017
 4484SOL    HW125080   1.383   1.592  27.935
 4484SOL    HW225081   1.421   1.570  28.080
 4485SOL     OW25082   0.498   2.524  21.338
 4485SOL    HW125083   0.453   2.533  21.422
 4485SOL    HW225084   0.574   2.582  21.345
 4486SOL     OW25085   0.070   2.975   0.805
 4486SOL    HW125086   4.756   2.971   0.821
 4486SOL    HW225087   0.089   3.069   0.801
 4487SOL     OW25088   3.083   1.439   3.421
 4487SOL    HW125089   3.074   1.459   3.328
 4487SOL    HW225090   3.010   1.379   3.439
 4488SOL     OW25091   1.366   1.804   2.715
 4488SOL    HW125092   1.323   1.882   2.749
 4488SOL    HW225093   1.416   1.835   2.639
 4489SOL     OW25094   0.695   1.918   3.028
 4489SOL    HW125095   0.692   1.906   2.933
 4489SOL    HW225096   0.695   1.829   3.064
 4490SOL     OW25097   1.534   1.882   2.532
 4490SOL    HW125098   1.500   1.834   2.456
 4490SOL    HW225099   1.594   1.947   2.494
 4491SOL     OW25100   4.483   2.128   3.075
 4491SOL    HW125101   4.475   2.085   2.990
 4491SOL    HW225102   4.493   2.056   3.138
 4492SOL     OW25103   3.828   0.906  21.871
 4492SOL    HW125104   3.736   0.914  21.845
 4492SOL    HW225105   3.844   0.982  21.926
 4493SOL     OW25106   0.721   1.156   7.595
 4493SOL    HW125107   0.787   1.201   7.648
 4493SOL    HW225108   0.645   1.149   7.653
 4494SOL     OW25109   1.592   0.401   5.504
 4494SOL    HW125110   1.504   0.427   5.477
 4494SOL    HW225111   1.604   0.315   5.465
 4495SOL     OW25112   1.879   0.985   2.777
 4495SOL    HW125113   1.818   1.034   2.722
 4495SOL    HW225114   1.933   1.052   2.818
 4496SOL     OW25115   3.767   1.622  19.675
 4496SOL    HW125116   3.797   1.707  19.643
 4496SOL    HW225117   3.776   1.564  19.600
 4497SOL     OW25118   3.784   1.180   1.211
 4497SOL    HW125119   3.860   1.237   1.225
 4497SOL    HW225120   3.746   1.169   1.298
 4498SOL     OW25121   0.999   3.561   2.761
 4498SOL    HW125122   1.080   3.594   2.800
 4498SOL    HW225123   0.948   3.527   2.835
 4499SOL     OW25124   2.133   1.025  25.810
 4499SOL    HW125125   2.215   1.065  25.839
 4499SOL    HW225126   2.160   0.953  25.754
 4500SOL     OW25127   3.123   3.878   3.580
 4500SOL    HW125128   3.183   3.952   3.574
 4500SOL    HW225129   3.174   3.803   3.549
 4501SOL     OW25130   1.884   2.138   6.890
 4501SOL    HW125131   1.855   2.065   6.835
 4501SOL    HW225132   1.913   2.205   6.828
 4502SOL     OW25133   3.449   2.549  21.685
 4502SOL    HW125134   3.483   2.513  21.603
 4502SOL    HW225135   3.491   2.497  21.753
 4503SOL     OW25136   3.614   4.128  26.034
 4503SOL    HW125137   3.650   4.212  26.005
 4503SOL    HW225138   3.587   4.144  26.125
 4504SOL     OW25139   4.526   1.997  27.408
 4504SOL    HW125140   4.561   1.914  27.441
 4504SOL    HW225141   4.445   1.973  27.364
 4505SOL     OW25142   0.079   2.387  27.412
 4505SOL    HW125143   0.142   2.404  27.342
 4505SOL    HW225144   4.774   2.396  27.370
 4506SOL     OW25145   1.458   2.426   6.036
 4506SOL    HW125146   1.454   2.510   6.081
 4506SOL    HW225147   1.499   2.367   6.099
 4507SOL     OW25148   3.238   0.620   8.991
 4507SOL    HW125149   3.290   0.686   9.037
 4507SOL    HW225150   3.274   0.619   8.902
 4508SOL     OW25151   3.820   3.684   5.479
 4508SOL    HW125152   3.754   3.650   5.418
 4508SOL    HW225153   3.771   3.702   5.559
 4509SOL     OW25154   2.411   4.645  25.365
 4509SOL    HW125155   2.488   4.590  25.379
 4509SOL    HW225156   2.343   4.584  25.336
 4510SOL     OW25157   2.982   4.246  26.520
 4510SOL    HW125158   3.014   4.243  26.430
 4510SOL    HW225159   2.898   4.291  26.514
 4511SOL     OW25160   3.991   1.685   6.722
 4511SOL    HW125161   3.925   1.654   6.784
 4511SOL    HW225162   3.973   1.779   6.713
 4512SOL     OW25163   0.172   1.012  28.237
 4512SOL    HW125164   0.127   1.046  28.314
 4512SOL    HW225165   0.198   0.923  28.261
 4513SOL     OW25166   2.699   4.448   7.613
 4513SOL    HW125167   2.643   4.485   7.545
 4513SOL    HW225168   2.640   4.436   7.688
 4514SOL     OW25169   4.447   4.261   6.683
 4514SOL    HW125170   4.526   4.297   6.642
 4514SOL    HW225171   4.469   4.256   6.776
 4515SOL     OW25172   2.755   2.469  23.352
 4515SOL    HW125173   2.746   2.531  23.280
 4515SOL    HW225174   2.670   2.472  23.397
 4516SOL     OW25175   3.435   0.139  13.650
 4516SOL    HW125176   3.529   0.126  13.658
 4516SOL    HW225177   3.412   0.195  13.724
 4517SOL     OW25178   3.975   1.321   4.246
 4517SOL    HW125179   4.058   1.303   4.291
 4517SOL    HW225180   4.000   1.370   4.168
 4518SOL     OW25181   1.154   3.420  26.688
 4518SOL    HW125182   1.081   3.448  26.633
 4518SOL    HW225183   1.152   3.324  26.684
 4519SOL     OW25184   1.889   3.345   9.495
 4519SOL    HW125185   1.924   3.396   9.422
 4519SOL    HW225186   1.855   3.265   9.455
 4520SOL     OW25187   3.735   1.952   5.292
 4520SOL    HW125188   3.724   1.881   5.355
 4520SOL    HW225189   3.672   2.018   5.319
 4521SOL     OW25190   1.488   3.495  27.163
 4521SOL    HW125191   1.484   3.579  27.210
 4521SOL    HW225192   1.488   3.519  27.070
 4522SOL     OW25193   1.764   2.100  22.916
 4522SOL    HW125194   1.795   2.010  22.906
 4522SOL    HW225195   1.803   2.147  22.842
 4523SOL     OW25196   0.829   3.194   3.613
 4523SOL    HW125197   0.871   3.118   3.572
 4523SOL    HW225198   0.850   3.267   3.555
 4524SOL     OW25199   4.622   0.909   5.088
 4524SOL    HW125200   4.689   0.851   5.125
 4524SOL    HW225201   4.539   0.870   5.115
 4525SOL     OW25202   0.492   3.892   9.874
 4525SOL    HW125203   0.488   3.801   9.844
 4525SOL    HW225204   0.513   3.885   9.967
 4526SOL     OW25205   0.016   2.005  11.253
 4526SOL    HW125206   4.719   2.040  11.298
 4526SOL    HW225207   0.071   1.971  11.323
 4527SOL     OW25208   3.710   2.305   3.524
 4527SOL    HW125209   3.718   2.249   3.447
 4527SOL    HW225210   3.800   2.331   3.544
 4528SOL     OW25211   1.866   2.164  20.439
 4528SOL    HW125212   1.823   2.092  20.393
 4528SOL    HW225213   1.912   2.122  20.511
 4529SOL     OW25214   2.760   1.053  11.466
 4529SOL    HW125215   2.838   1.003  11.490
 4529SOL    HW225216   2.697   1.035  11.536
 4530SOL     OW25217   2.913   1.165  27.016
 4530SOL    HW125218   3.000   1.200  26.995
 4530SOL    HW225219   2.869   1.236  27.063
 4531SOL     OW25220   2.193   4.731  10.533
 4531SOL    HW125221   2.104   4.760  10.514
 4531SOL    HW225222   2.187   4.693  10.621
 4532SOL     OW25223   1.182   1.550   5.111
 4532SOL    HW125224   1.139   1.473   5.148
 4532SOL    HW225225   1.181   1.614   5.182
 4533SOL     OW25226   0.934   3.548   6.747
 4533SOL    HW125227   0.907   3.639   6.735
 4533SOL    HW225228   0.977   3.525   6.665
 4534SOL     OW25229   3.713   0.352  21.043
 4534SOL    HW125230   3.629   0.349  20.997
 4534SOL    HW225231   3.699   0.300  21.122
 4535SOL     OW25232   0.821   3.100  11.740
 4535SOL    HW125233   0.874   3.022  11.756
 4535SOL    HW225234   0.846   3.129  11.652
 4536SOL     OW25235   2.848   1.412   6.051
 4536SOL    HW125236   2.867   1.407   6.145
 4536SOL    HW225237   2.825   1.504   6.037
 4537SOL     OW25238   1.694   4.343  26.939
 4537SOL    HW125239   1.651   4.415  26.986
 4537SOL    HW225240   1.656   4.346  26.851
 4538SOL     OW25241   1.124   3.239   8.266
 4538SOL    HW125242   1.118   3.144   8.260
 4538SOL    HW225243   1.107   3.259   8.358
 4539SOL     OW25244   2.238   3.024  24.995
 4539SOL    HW125245   2.294   2.949  25.017
 4539SOL    HW225246   2.182   3.035  25.071
 4540SOL     OW25247   1.990   4.539   6.653
 4540SOL    HW125248   1.907   4.581   6.675
 4540SOL    HW225249   1.971   4.445   6.657
 4541SOL     OW25250   3.422   2.039  20.497
 4541SOL    HW125251   3.466   2.098  20.436
 4541SOL    HW225252   3.485   2.026  20.568
 4542SOL     OW25253   0.197   0.611   1.573
 4542SOL    HW125254   0.256   0.684   1.590
 4542SOL    HW225255   0.209   0.591   1.480
 4543SOL     OW25256   3.690   0.598  28.312
 4543SOL    HW125257   3.740   0.520  28.287
 4543SOL    HW225258   3.727   0.668  28.258
 4544SOL     OW25259   2.438   0.711   9.204
 4544SOL    HW125260   2.495   0.651   9.253
 4544SOL    HW225261   2.496   0.781   9.174
 4545SOL     OW25262   0.079   4.655  23.343
 4545SOL    HW125263   0.042   4.610  23.267
 4545SOL    HW225264   0.006   4.705  23.380
 4546SOL     OW25265   1.047   2.604   3.333
 4546SOL    HW125266   1.127   2.564   3.298
 4546SOL    HW225267   1.065   2.618   3.426
 4547SOL     OW25268   4.470   1.048   2.064
 4547SOL    HW125269   4.446   0.989   2.135
 4547SOL    HW225270   4.524   0.995   2.005
 4548SOL     OW25271   0.829   1.207   1.399
 4548SOL    HW125272   0.878   1.201   1.317
 4548SOL    HW225273   0.879   1.154   1.461
 4549SOL     OW25274   3.162   2.953   4.577
 4549SOL    HW125275   3.117   2.984   4.655
 4549SOL    HW225276   3.127   3.006   4.506
 4550SOL     OW25277   1.257   0.312   3.136
 4550SOL    HW125278   1.284   0.403   3.147
 4550SOL    HW225279   1.180   0.317   3.079
 4551SOL     OW25280   0.150   1.046   1.116
 4551SOL    HW125281   0.156   1.000   1.200
 4551SOL    HW225282   0.195   0.989   1.054
 4552SOL     OW25283   2.594   1.533  23.768
 4552SOL    HW125284   2.513   1.544  23.717
 4552SOL    HW225285   2.652   1.602  23.736
 4553SOL     OW25286   2.781   0.696  28.347
 4553SOL    HW125287   2.857   0.713  28.403
 4553SOL    HW225288   2.741   0.617  28.384
 4554SOL     OW25289   0.603   2.036  18.959
 4554SOL    HW125290   0.538   2.081  18.905
 4554SOL    HW225291   0.669   2.006  18.897
 4555SOL     OW25292   0.838   0.751   9.496
 4555SOL    HW125293   0.902   0.822   9.486
 4555SOL    HW225294   0.847   0.724   9.587
 4556SOL     OW25295   4.524   1.313   1.956
 4556SOL    HW125296   4.489   1.225   1.941
 4556SOL    HW225297   4.541   1.316   2.050
 4557SOL     OW25298   4.278   0.797  12.757
 4557SOL    HW125299   4.242   0.807  12.669
 4557SOL    HW225300   4.203   0.809  12.815
 4558SOL     OW25301   3.935   0.219   1.127
 4558SOL    HW125302   3.844   0.190   1.122
 4558SOL    HW225303   3.984   0.139   1.148
 4559SOL     OW25304   0.401   2.077  22.753
 4559SOL    HW125305   0.356   2.078  22.669
 4559SOL    HW225306   0.493   2.095  22.732
 4560SOL     OW25307   3.466   2.871  22.162
 4560SOL    HW125308   3.435   2.781  22.160
 4560SOL    HW225309   3.560   2.864  22.178
 4561SOL     OW25310   2.754   3.371  22.045
 4561SOL    HW125311   2.709   3.286  22.052
 4561SOL    HW225312   2.733   3.415  22.127
 4562SOL     OW25313   3.160   4.524  10.697
 4562SOL    HW125314   3.206   4.492  10.774
 4562SOL    HW225315   3.191   4.614  10.686
 4563SOL     OW25316   1.398   4.670  24.610
 4563SOL    HW125317   1.449   4.723  24.549
 4563SOL    HW225318   1.447   4.675  24.692
 4564SOL     OW25319   2.273   4.752   7.667
 4564SOL    HW125320   2.345   0.000   7.611
 4564SOL    HW225321   2.313   4.690   7.728
 4565SOL     OW25322   2.869   4.058  23.596
 4565SOL    HW125323   2.960   4.037  23.617
 4565SOL    HW225324   2.818   3.996  23.647
 4566SOL     OW25325   1.149   0.213   3.795
 4566SOL    HW125326   1.190   0.127   3.803
 4566SOL    HW225327   1.061   0.201   3.830
 4567SOL     OW25328   3.759   0.606  21.424
 4567SOL    HW125329   3.718   0.552  21.492
 4567SOL    HW225330   3.690   0.619  21.359
 4568SOL     OW25331   1.060   2.864   5.505
 4568SOL    HW125332   1.095   2.793   5.558
 4568SOL    HW225333   1.128   2.932   5.508
 4569SOL     OW25334   0.866   2.837  24.952
 4569SOL    HW125335   0.871   2.816  24.859
 4569SOL    HW225336   0.915   2.767  24.995
 4570SOL     OW25337   3.411   0.130  22.413
 4570SOL    HW125338   3.499   0.121  22.376
 4570SOL    HW225339   3.376   0.041  22.413
 4571SOL     OW25340   0.989   4.500   1.109
 4571SOL    HW125341   0.955   4.412   1.096
 4571SOL    HW225342   0.932   4.539   1.175
 4572SOL     OW25343   3.051   0.458   3.379
 4572SOL    HW125344   2.998   0.390   3.338
 4572SOL    HW225345   3.085   0.418   3.459
 4573SOL     OW25346   1.667   3.573   1.761
 4573SOL    HW125347   1.722   3.572   1.683
 4573SOL    HW225348   1.728   3.557   1.833
 4574SOL     OW25349   2.308   2.649  12.391
 4574SOL    HW125350   2.327   2.739  12.419
 4574SOL    HW225351   2.393   2.605  12.394
 4575SOL     OW25352   3.205   2.220  10.604
 4575SOL    HW125353   3.126   2.236  10.656
 4575SOL    HW225354   3.275   2.207  10.668
 4576SOL     OW25355   2.827   0.768  25.843
 4576SOL    HW125356   2.868   0.836  25.897
 4576SOL    HW225357   2.901   0.724  25.800
 4577SOL     OW25358   4.530   1.686   8.510
 4577SOL    HW125359   4.448   1.715   8.550
 4577SOL    HW225360   4.588   1.762   8.518
 4578SOL     OW25361   2.382   3.441  20.015
 4578SOL    HW125362   2.374   3.402  20.102
 4578SOL    HW225363   2.307   3.500  20.008
 4579SOL     OW25364   0.387   2.360   6.960
 4579SOL    HW125365   0.372   2.433   6.900
 4579SOL    HW225366   0.384   2.282   6.905
 4580SOL     OW25367   2.950   3.016   5.623
 4580SOL    HW125368   2.965   3.107   5.599
 4580SOL    HW225369   3.038   2.978   5.630
 4581SOL     OW25370   1.765   4.396  23.284
 4581SOL    HW125371   1.808   4.412  23.200
 4581SOL    HW225372   1.683   4.444  23.278
 4582SOL     OW25373   3.869   0.025  25.843
 4582SOL    HW125374   3.925   0.090  25.886
 4582SOL    HW225375   3.930   4.739  25.811
 4583SOL     OW25376   0.079   0.346   1.580
 4583SOL    HW125377   0.001   0.398   1.601
 4583SOL    HW225378   0.152   0.402   1.605
 4584SOL     OW25379   3.942   4.225   7.534
 4584SOL    HW125380   4.022   4.270   7.561
 4584SOL    HW225381   3.955   4.206   7.441
 4585SOL     OW25382   3.159   0.581  10.825
 4585SOL    HW125383   3.096   0.546  10.762
 4585SOL    HW225384   3.193   0.660  10.784
 4586SOL     OW25385   3.963   0.772   5.273
 4586SOL    HW125386   4.006   0.840   5.326
 4586SOL    HW225387   4.029   0.746   5.209
 4587SOL     OW25388   3.681   3.079   4.340
 4587SOL    HW125389   3.760   3.100   4.291
 4587SOL    HW225390   3.612   3.129   4.296
 4588SOL     OW25391   2.380   0.554   8.887
 4588SOL    HW125392   2.363   0.622   8.952
 4588SOL    HW225393   2.399   0.602   8.807
 4589SOL     OW25394   2.102   2.593   8.074
 4589SOL    HW125395   2.089   2.544   8.155
 4589SOL    HW225396   2.195   2.616   8.074
 4590SOL     OW25397   3.308   2.874  10.767
 4590SOL    HW125398   3.290   2.793  10.719
 4590SOL    HW225399   3.403   2.881  10.767
 4591SOL     OW25400   0.030   3.288  24.622
 4591SOL    HW125401   0.081   3.362  24.590
 4591SOL    HW225402   4.735   3.327  24.666
 4592SOL     OW25403   2.530   1.388   3.952
 4592SOL    HW125404   2.445   1.370   3.911
 4592SOL    HW225405   2.594   1.366   3.885
 4593SOL     OW25406   2.595   4.192  11.569
 4593SOL    HW125407   2.541   4.205  11.491
 4593SOL    HW225408   2.539   4.142  11.628
 4594SOL     OW25409   4.346   2.400  12.391
 4594SOL    HW125410   4.262   2.434  12.421
 4594SOL    HW225411   4.384   2.358  12.468
 4595SOL     OW25412   2.093   1.632  12.328
 4595SOL    HW125413   2.021   1.590  12.375
 4595SOL    HW225414   2.103   1.717  12.370
 4596SOL     OW25415   1.719   0.228  12.392
 4596SOL    HW125416   1.648   0.206  12.452
 4596SOL    HW225417   1.758   0.307  12.429
 4597SOL     OW25418   2.054   1.802  12.708
 4597SOL    HW125419   2.138   1.824  12.668
 4597SOL    HW225420   2.076   1.736  12.773
 4598SOL     OW25421   3.433   1.590  12.549
 4598SOL    HW125422   3.392   1.607  12.464
 4598SOL    HW225423   3.397   1.658  12.606
 4599SOL     OW25424   1.474   0.199  12.554
 4599SOL    HW125425   1.393   0.156  12.581
 4599SOL    HW225426   1.446   0.270  12.496
 4600SOL     OW25427   2.540   1.954  11.680
 4600SOL    HW125428   2.561   1.996  11.763
 4600SOL    HW225429   2.625   1.939  11.638
 4601SOL     OW25430   2.407   1.336  12.159
 4601SOL    HW125431   2.457   1.325  12.078
 4601SOL    HW225432   2.355   1.415  12.145
 4602SOL     OW25433   2.708   4.722  14.120
 4602SOL    HW125434   2.627   4.771  14.106
 4602SOL    HW225435   2.777   4.777  14.082
 4603SOL     OW25436   3.476   2.305  10.058
 4603SOL    HW125437   3.460   2.300   9.964
 4603SOL    HW225438   3.419   2.375  10.088
 4604SOL     OW25439   2.871   0.525  12.419
 4604SOL    HW125440   2.922   0.562  12.491
 4604SOL    HW225441   2.935   0.509  12.349
 4605SOL     OW25442   4.091   1.417  12.807
 4605SOL    HW125443   4.001   1.391  12.826
 4605SOL    HW225444   4.141   1.391  12.884
 4606SOL     OW25445   1.562   4.587  12.617
 4606SOL    HW125446   1.617   4.528  12.668
 4606SOL    HW225447   1.480   4.592  12.666
 4607SOL     OW25448   2.263   1.418  13.241
 4607SOL    HW125449   2.177   1.412  13.283
 4607SOL    HW225450   2.314   1.348  13.282
 4608SOL     OW25451   3.831   0.967   3.353
 4608SOL    HW125452   3.758   0.950   3.294
 4608SOL    HW225453   3.885   1.031   3.307
 4609SOL     OW25454   2.906   0.863  13.105
 4609SOL    HW125455   2.931   0.954  13.090
 4609SOL    HW225456   2.949   0.840  13.187
 4610SOL     OW25457   1.917   1.439  12.653
 4610SOL    HW125458   2.012   1.448  12.660
 4610SOL    HW225459   1.886   1.529  12.640
 4611SOL     OW25460   3.335   1.510  11.882
 4611SOL    HW125461   3.307   1.453  11.810
 4611SOL    HW225462   3.359   1.450  11.953
 4612SOL     OW25463   1.999   1.339  13.101
 4612SOL    HW125464   1.998   1.340  13.197
 4612SOL    HW225465   2.060   1.268  13.079
 4613SOL     OW25466   3.193   1.239  13.012
 4613SOL    HW125467   3.224   1.263  13.099
 4613SOL    HW225468   3.269   1.254  12.955
 4614SOL     OW25469   0.049   1.024   9.153
 4614SOL    HW125470   4.769   1.097   9.138
 4614SOL    HW225471   0.056   1.017   9.248
 4615SOL     OW25472   1.951   3.705   2.931
 4615SOL    HW125473   1.866   3.661   2.931
 4615SOL    HW225474   1.999   3.664   3.003
 4616SOL     OW25475   1.236   4.516  12.457
 4616SOL    HW125476   1.221   4.450  12.525
 4616SOL    HW225477   1.290   4.583  12.500
 4617SOL     OW25478   2.344   1.077  12.122
 4617SOL    HW125479   2.284   1.091  12.049
 4617SOL    HW225480   2.373   1.165  12.146
 4618SOL     OW25481   0.824   1.221  12.139
 4618SOL    HW125482   0.887   1.223  12.211
 4618SOL    HW225483   0.761   1.289  12.160
 4619SOL     OW25484   0.034   2.551  12.984
 4619SOL    HW125485   4.741   2.601  12.948
 4619SOL    HW225486   0.019   2.551  13.079
 4620SOL     OW25487   3.202   0.916  12.988
 4620SOL    HW125488   3.153   0.850  13.036
 4620SOL    HW225489   3.236   0.870  12.911
 4621SOL     OW25490   2.176   0.453  12.766
 4621SOL    HW125491   2.140   0.366  12.785
 4621SOL    HW225492   2.201   0.488  12.852
 4622SOL     OW25493   3.064   0.204  13.747
 4622SOL    HW125494   2.987   0.148  13.759
 4622SOL    HW225495   3.029   0.293  13.739
 4623SOL     OW25496   1.281   3.777  11.187
 4623SOL    HW125497   1.342   3.708  11.212
 4623SOL    HW225498   1.209   3.731  11.143
 4624SOL     OW25499   3.109   1.902  11.530
 4624SOL    HW125500   3.055   1.872  11.456
 4624SOL    HW225501   3.165   1.970  11.493
 4625SOL     OW25502   2.913   4.144  14.090
 4625SOL    HW125503   2.835   4.182  14.129
 4625SOL    HW225504   2.930   4.199  14.013
 4626SOL     OW25505   1.627   0.301  13.364
 4626SOL    HW125506   1.669   0.236  13.308
 4626SOL    HW225507   1.664   0.285  13.451
 4627SOL     OW25508   1.895   1.625  12.070
 4627SOL    HW125509   1.922   1.657  12.156
 4627SOL    HW225510   1.923   1.533  12.068
 4628SOL     OW25511   3.413   4.221  12.892
 4628SOL    HW125512   3.414   4.212  12.987
 4628SOL    HW225513   3.368   4.304  12.876
 4629SOL     OW25514   3.575   1.163  13.314
 4629SOL    HW125515   3.588   1.085  13.368
 4629SOL    HW225516   3.485   1.155  13.282
 4630SOL     OW25517   2.304   0.757  12.789
 4630SOL    HW125518   2.260   0.833  12.828
 4630SOL    HW225519   2.273   0.682  12.840
 4631SOL     OW25520   2.160   1.106  11.936
 4631SOL    HW125521   2.146   1.059  11.854
 4631SOL    HW225522   2.086   1.081  11.991
 4632SOL     OW25523   2.575   2.584  12.457
 4632SOL    HW125524   2.553   2.515  12.520
 4632SOL    HW225525   2.594   2.661  12.511
 4633SOL     OW25526   3.385   0.988  13.178
 4633SOL    HW125527   3.469   0.956  13.145
 4633SOL    HW225528   3.329   0.993  13.101
 4634SOL     OW25529   2.047   4.451  13.183
 4634SOL    HW125530   2.087   4.533  13.213
 4634SOL    HW225531   2.070   4.387  13.250
 4635SOL     OW25532   3.077   4.340  12.965
 4635SOL    HW125533   3.139   4.405  12.933
 4635SOL    HW225534   3.064   4.363  13.057
 4636SOL     OW25535   3.026   4.762  10.848
 4636SOL    HW125536   3.114   4.762  10.811
 4636SOL    HW225537   2.992   0.069  10.831
 4637SOL     OW25538   1.171   0.864  13.274
 4637SOL    HW125539   1.227   0.787  13.280
 4637SOL    HW225540   1.224   0.929  13.228
 4638SOL     OW25541   3.076   1.980  11.088
 4638SOL    HW125542   3.009   2.004  11.024
 4638SOL    HW225543   3.058   1.888  11.108
 4639SOL     OW25544   3.613   1.397  12.468
 4639SOL    HW125545   3.549   1.456  12.508
 4639SOL    HW225546   3.640   1.339  12.539
 4640SOL     OW25547   2.047   0.295  13.251
 4640SOL    HW125548   1.999   0.372  13.281
 4640SOL    HW225549   2.139   0.320  13.256
 4641SOL     OW25550   1.659   0.618  13.511
 4641SOL    HW125551   1.612   0.573  13.581
 4641SOL    HW225552   1.591   0.669  13.466
 4642SOL     OW25553   2.084   1.626  12.903
 4642SOL    HW125554   2.147   1.554  12.907
 4642SOL    HW225555   2.089   1.667  12.989
 4643SOL     OW25556   2.217   1.574  11.385
 4643SOL    HW125557   2.301   1.556  11.426
 4643SOL    HW225558   2.236   1.641  11.319
 4644SOL     OW25559   3.047   2.868  12.856
 4644SOL    HW125560   3.102   2.806  12.808
 4644SOL    HW225561   3.106   2.940  12.879
 4645SOL     OW25562   2.158   0.034  14.198
 4645SOL    HW125563   2.087   0.093  14.223
 4645SOL    HW225564   2.142   4.735  14.250
 4646SOL     OW25565   1.687   0.106  13.836
 4646SOL    HW125566   1.758   0.087  13.897
 4646SOL    HW225567   1.609   0.110  13.891
 4647SOL     OW25568   3.121   0.134  13.471
 4647SOL    HW125569   3.081   0.212  13.432
 4647SOL    HW225570   3.145   0.161  13.560
 4648SOL     OW25571   2.208   0.660  11.034
 4648SOL    HW125572   2.303   0.667  11.041
 4648SOL    HW225573   2.181   0.612  11.112
 4649SOL     OW25574   2.167   0.262  11.648
 4649SOL    HW125575   2.218   0.251  11.728
 4649SOL    HW225576   2.097   0.197  11.656
 4650SOL     OW25577   3.152   3.232  12.704
 4650SOL    HW125578   3.139   3.173  12.778
 4650SOL    HW225579   3.196   3.178  12.638
 4651SOL     OW25580   3.796   1.871  24.504
 4651SOL    HW125581   3.760   1.836  24.586
 4651SOL    HW225582   3.840   1.952  24.529
 4652SOL     OW25583   3.844   1.253  12.880
 4652SOL    HW125584   3.877   1.174  12.924
 4652SOL    HW225585   3.821   1.312  12.951
 4653SOL     OW25586   3.636   2.750  11.349
 4653SOL    HW125587   3.699   2.821  11.341
 4653SOL    HW225588   3.690   2.672  11.363
 4654SOL     OW25589   3.898   3.440  10.660
 4654SOL    HW125590   3.815   3.410  10.698
 4654SOL    HW225591   3.894   3.412  10.568
 4655SOL     OW25592   1.810   1.195  12.671
 4655SOL    HW125593   1.847   1.283  12.661
 4655SOL    HW225594   1.853   1.160  12.749
 4656SOL     OW25595   3.465   1.995  13.155
 4656SOL    HW125596   3.493   1.969  13.067
 4656SOL    HW225597   3.384   2.044  13.141
 4657SOL     OW25598   3.334   4.735  12.552
 4657SOL    HW125599   3.304   0.045  12.553
 4657SOL    HW225600   3.406   4.735  12.489
 4658SOL     OW25601   3.172   0.622  12.325
 4658SOL    HW125602   3.133   0.699  12.283
 4658SOL    HW225603   3.130   0.547  12.283
 4659SOL     OW25604   2.490   1.252  11.911
 4659SOL    HW125605   2.544   1.174  11.920
 4659SOL    HW225606   2.460   1.250  11.820
 4660SOL     OW25607   0.632   1.252  12.489
 4660SOL    HW125608   0.727   1.259  12.497
 4660SOL    HW225609   0.603   1.222  12.575
 4661SOL     OW25610   2.236   0.414  13.509
 4661SOL    HW125611   2.155   0.414  13.560
 4661SOL    HW225612   2.257   0.321  13.497
 4662SOL     OW25613   2.411   1.935  14.647
 4662SOL    HW125614   2.491   1.888  14.672
 4662SOL    HW225615   2.382   1.976  14.728
 4663SOL     OW25616   2.238   1.747  14.538
 4663SOL    HW125617   2.276   1.829  14.569
 4663SOL    HW225618   2.250   1.686  14.611
 4664SOL     OW25619   2.693   1.509  13.972
 4664SOL    HW125620   2.660   1.596  13.951
 4664SOL    HW225621   2.712   1.470  13.887
 4665SOL     OW25622   2.296   1.450  12.980
 4665SOL    HW125623   2.382   1.491  12.971
 4665SOL    HW225624   2.286   1.435  13.074
 4666SOL     OW25625   2.187   1.255  12.814
 4666SOL    HW125626   2.214   1.320  12.879
 4666SOL    HW225627   2.183   1.304  12.732
 4667SOL     OW25628   3.881   1.433  14.640
 4667SOL    HW125629   3.889   1.469  14.728
 4667SOL    HW225630   3.791   1.453  14.613
 4668SOL     OW25631   0.641   4.579  13.266
 4668SOL    HW125632   0.714   4.578  13.328
 4668SOL    HW225633   0.661   4.652  13.207
 4669SOL     OW25634   3.126   1.167  14.063
 4669SOL    HW125635   3.175   1.085  14.055
 4669SOL    HW225636   3.084   1.161  14.149
 4670SOL     OW25637   1.821   4.016  11.854
 4670SOL    HW125638   1.868   4.085  11.807
 4670SOL    HW225639   1.890   3.966  11.897
 4671SOL     OW25640   3.050   0.730  14.521
 4671SOL    HW125641   3.077   0.741  14.430
 4671SOL    HW225642   3.105   0.659  14.554
 4672SOL     OW25643   2.070   2.457  14.384
 4672SOL    HW125644   2.156   2.480  14.349
 4672SOL    HW225645   2.027   2.409  14.313
 4673SOL     OW25646   3.761   0.821  14.866
 4673SOL    HW125647   3.778   0.843  14.774
 4673SOL    HW225648   3.755   0.906  14.910
 4674SOL     OW25649   2.100   4.322  13.411
 4674SOL    HW125650   2.153   4.377  13.469
 4674SOL    HW225651   2.163   4.268  13.364
 4675SOL     OW25652   3.315   0.952  14.036
 4675SOL    HW125653   3.400   0.937  14.077
 4675SOL    HW225654   3.292   0.868  13.997
 4676SOL     OW25655   2.624   2.023  13.493
 4676SOL    HW125656   2.714   2.020  13.525
 4676SOL    HW225657   2.627   2.082  13.418
 4677SOL     OW25658   1.858   0.738  12.068
 4677SOL    HW125659   1.920   0.804  12.098
 4677SOL    HW225660   1.883   0.659  12.116
 4678SOL     OW25661   1.890   0.054  14.012
 4678SOL    HW125662   1.925   0.141  14.032
 4678SOL    HW225663   1.892   0.007  14.096
 4679SOL     OW25664   2.634   1.252  13.794
 4679SOL    HW125665   2.723   1.278  13.771
 4679SOL    HW225666   2.640   1.158  13.809
 4680SOL     OW25667   2.675   0.529  14.601
 4680SOL    HW125668   2.633   0.443  14.609
 4680SOL    HW225669   2.767   0.513  14.621
 4681SOL     OW25670   2.290   0.826  13.368
 4681SOL    HW125671   2.288   0.800  13.460
 4681SOL    HW225672   2.269   0.919  13.369
 4682SOL     OW25673   3.133   1.949  12.202
 4682SOL    HW125674   3.150   1.987  12.288
 4682SOL    HW225675   3.127   1.855  12.218
 4683SOL     OW25676   2.421   4.449  12.566
 4683SOL    HW125677   2.494   4.388  12.575
 4683SOL    HW225678   2.462   4.532  12.543
 4684SOL     OW25679   3.239   0.468  13.917
 4684SOL    HW125680   3.248   0.558  13.948
 4684SOL    HW225681   3.149   0.462  13.886
 4685SOL     OW25682   2.942   1.051  14.680
 4685SOL    HW125683   3.000   1.000  14.737
 4685SOL    HW225684   2.860   1.001  14.678
 4686SOL     OW25685   1.884   0.700  14.517
 4686SOL    HW125686   1.829   0.703  14.438
 4686SOL    HW225687   1.888   0.791  14.546
 4687SOL     OW25688   1.691   4.495  14.067
 4687SOL    HW125689   1.734   4.570  14.107
 4687SOL    HW225690   1.679   4.433  14.139
 4688SOL     OW25691   3.348   0.094  14.093
 4688SOL    HW125692   3.394   0.012  14.075
 4688SOL    HW225693   3.389   0.127  14.173
 4689SOL     OW25694   1.642   1.335  12.857
 4689SOL    HW125695   1.679   1.267  12.801
 4689SOL    HW225696   1.717   1.388  12.882
 4690SOL     OW25697   3.093   1.424  14.005
 4690SOL    HW125698   3.046   1.451  14.084
 4690SOL    HW225699   3.100   1.329  14.013
 4691SOL     OW25700   2.336   0.424  13.977
 4691SOL    HW125701   2.421   0.397  13.942
 4691SOL    HW225702   2.356   0.456  14.065
 4692SOL     OW25703   4.064   1.304  14.847
 4692SOL    HW125704   4.048   1.326  14.939
 4692SOL    HW225705   4.138   1.360  14.821
 4693SOL     OW25706   2.864   2.039  14.698
 4693SOL    HW125707   2.813   1.985  14.759
 4693SOL    HW225708   2.799   2.085  14.646
 4694SOL     OW25709   2.951   1.350  14.402
 4694SOL    HW125710   2.931   1.416  14.468
 4694SOL    HW225711   3.044   1.361  14.385
 4695SOL     OW25712   1.928   1.350  12.343
 4695SOL    HW125713   2.002   1.337  12.402
 4695SOL    HW225714   1.891   1.435  12.368
 4696SOL     OW25715   2.298   2.188  14.391
 4696SOL    HW125716   2.371   2.132  14.416
 4696SOL    HW225717   2.327   2.231  14.311
 4697SOL     OW25718   1.608   2.297  11.458
 4697SOL    HW125719   1.695   2.257  11.464
 4697SOL    HW225720   1.599   2.347  11.539
 4698SOL     OW25721   3.642   1.448  14.517
 4698SOL    HW125722   3.564   1.416  14.562
 4698SOL    HW225723   3.660   1.382  14.450
 4699SOL     OW25724   2.652   4.307  12.611
 4699SOL    HW125725   2.715   4.257  12.559
 4699SOL    HW225726   2.705   4.349  12.679
 4700SOL     OW25727   2.252   1.247  14.463
 4700SOL    HW125728   2.343   1.229  14.486
 4700SOL    HW225729   2.255   1.270  14.370
 4701SOL     OW25730   1.896   3.770  14.306
 4701SOL    HW125731   1.880   3.824  14.228
 4701SOL    HW225732   1.972   3.716  14.282
 4702SOL     OW25733   2.937   1.151  13.106
 4702SOL    HW125734   3.019   1.195  13.082
 4702SOL    HW225735   2.879   1.166  13.031
 4703SOL     OW25736   3.124   0.265  14.607
 4703SOL    HW125737   3.087   0.214  14.535
 4703SOL    HW225738   3.161   0.199  14.666
 4704SOL     OW25739   2.802   0.773  14.574
 4704SOL    HW125740   2.758   0.688  14.571
 4704SOL    HW225741   2.892   0.754  14.547
 4705SOL     OW25742   2.912   1.550  14.173
 4705SOL    HW125743   2.897   1.489  14.245
 4705SOL    HW225744   2.855   1.520  14.103
 4706SOL     OW25745   2.255   1.000  12.907
 4706SOL    HW125746   2.228   1.005  12.999
 4706SOL    HW225747   2.236   1.087  12.872
 4707SOL     OW25748   3.035   0.396  13.456
 4707SOL    HW125749   3.011   0.430  13.542
 4707SOL    HW225750   2.955   0.403  13.404
 4708SOL     OW25751   1.582   1.823  14.058
 4708SOL    HW125752   1.590   1.841  14.152
 4708SOL    HW225753   1.585   1.728  14.052
 4709SOL     OW25754   3.691   2.063  14.042
 4709SOL    HW125755   3.635   1.997  14.002
 4709SOL    HW225756   3.671   2.057  14.136
 4710SOL     OW25757   1.996   1.844  14.446
 4710SOL    HW125758   1.984   1.923  14.498
 4710SOL    HW225759   2.089   1.823  14.455
 4711SOL     OW25760   2.980   0.454  13.731
 4711SOL    HW125761   2.987   0.543  13.764
 4711SOL    HW225762   2.892   0.425  13.757
 4712SOL     OW25763   1.137   4.679  13.463
 4712SOL    HW125764   1.125   4.593  13.424
 4712SOL    HW225765   1.223   4.708  13.432
 4713SOL     OW25766   1.673   1.183  12.447
 4713SOL    HW125767   1.586   1.200  12.482
 4713SOL    HW225768   1.731   1.186  12.523
 4714SOL     OW25769   2.525   1.358  14.143
 4714SOL    HW125770   2.562   1.367  14.231
 4714SOL    HW225771   2.595   1.387  14.084
 4715SOL     OW25772   1.646   4.370  12.811
 4715SOL    HW125773   1.739   4.381  12.832
 4715SOL    HW225774   1.600   4.424  12.875
 4716SOL     OW25775   0.058   2.328  13.135
 4716SOL    HW125776   0.089   2.395  13.075
 4716SOL    HW225777   0.122   2.328  13.206
 4717SOL     OW25778   1.904   0.548  13.404
 4717SOL    HW125779   1.815   0.565  13.435
 4717SOL    HW225780   1.941   0.488  13.468
 4718SOL     OW25781   2.850   1.804  14.122
 4718SOL    HW125782   2.759   1.779  14.106
 4718SOL    HW225783   2.891   1.724  14.156
 4719SOL     OW25784   2.746   4.469  13.949
 4719SOL    HW125785   2.802   4.488  13.874
 4719SOL    HW225786   2.729   4.554  13.989
 4720SOL     OW25787   1.665   4.404  15.288
 4720SOL    HW125788   1.638   4.312  15.282
 4720SOL    HW225789   1.585   4.451  15.313
 4721SOL     OW25790   1.876   0.977  16.413
 4721SOL    HW125791   1.787   0.982  16.448
 4721SOL    HW225792   1.887   1.057  16.362
 4722SOL     OW25793   3.268   1.413  15.536
 4722SOL    HW125794   3.200   1.442  15.475
 4722SOL    HW225795   3.349   1.419  15.486
 4723SOL     OW25796   0.478   1.290  15.347
 4723SOL    HW125797   0.384   1.277  15.356
 4723SOL    HW225798   0.512   1.203  15.327
 4724SOL     OW25799   0.839   2.508  17.699
 4724SOL    HW125800   0.824   2.422  17.660
 4724SOL    HW225801   0.792   2.506  17.782
 4725SOL     OW25802   1.769   1.722  16.896
 4725SOL    HW125803   1.796   1.806  16.934
 4725SOL    HW225804   1.849   1.669  16.896
 4726SOL     OW25805   1.077   2.521  17.123
 4726SOL    HW125806   1.073   2.518  17.219
 4726SOL    HW225807   1.138   2.451  17.099
 4727SOL     OW25808   4.351   3.788  18.080
 4727SOL    HW125809   4.378   3.719  18.020
 4727SOL    HW225810   4.393   3.867  18.046
 4728SOL     OW25811   2.642   4.389  15.666
 4728SOL    HW125812   2.578   4.446  15.709
 4728SOL    HW225813   2.590   4.315  15.634
 4729SOL     OW25814   3.538   1.928  14.993
 4729SOL    HW125815   3.544   2.019  14.962
 4729SOL    HW225816   3.569   1.876  14.919
 4730SOL     OW25817   1.976   1.526  14.820
 4730SOL    HW125818   2.009   1.608  14.856
 4730SOL    HW225819   2.010   1.524  14.731
 4731SOL     OW25820   1.034   2.705  17.751
 4731SOL    HW125821   0.971   2.634  17.739
 4731SOL    HW225822   1.117   2.669  17.720
 4732SOL     OW25823   2.521   1.271  15.571
 4732SOL    HW125824   2.535   1.184  15.609
 4732SOL    HW225825   2.523   1.257  15.476
 4733SOL     OW25826   3.223   0.341  16.337
 4733SOL    HW125827   3.282   0.298  16.276
 4733SOL    HW225828   3.255   0.431  16.343
 4734SOL     OW25829   3.384   1.551  15.779
 4734SOL    HW125830   3.325   1.494  15.730
 4734SOL    HW225831   3.461   1.559  15.723
 4735SOL     OW25832   4.456   2.723  15.188
 4735SOL    HW125833   4.458   2.774  15.107
 4735SOL    HW225834   4.531   2.755  15.239
 4736SOL     OW25835   2.245   1.332  15.716
 4736SOL    HW125836   2.321   1.361  15.665
 4736SOL    HW225837   2.280   1.265  15.775
 4737SOL     OW25838   2.002   0.443  22.447
 4737SOL    HW125839   1.911   0.456  22.421
 4737SOL    HW225840   1.998   0.378  22.518
 4738SOL     OW25841   1.288   2.286  17.136
 4738SOL    HW125842   1.220   2.242  17.085
 4738SOL    HW225843   1.353   2.313  17.071
 4739SOL     OW25844   2.522   4.617  14.757
 4739SOL    HW125845   2.458   4.688  14.749
 4739SOL    HW225846   2.599   4.648  14.709
 4740SOL     OW25847   3.137   0.005  17.838
 4740SOL    HW125848   3.167   4.700  17.808
 4740SOL    HW225849   3.151   0.063  17.763
 4741SOL     OW25850   2.067   4.753  17.038
 4741SOL    HW125851   1.991   0.031  17.042
 4741SOL    HW225852   2.131   0.021  16.986
 4742SOL     OW25853   0.918   3.383  16.045
 4742SOL    HW125854   0.938   3.406  15.954
 4742SOL    HW225855   0.846   3.441  16.070
 4743SOL     OW25856   2.088   3.870  16.213
 4743SOL    HW125857   2.054   3.939  16.156
 4743SOL    HW225858   2.102   3.913  16.297
 4744SOL     OW25859   3.072   1.705  15.334
 4744SOL    HW125860   3.043   1.614  15.337
 4744SOL    HW225861   2.991   1.755  15.323
 4745SOL     OW25862   2.199   4.624  15.298
 4745SOL    HW125863   2.268   4.687  15.276
 4745SOL    HW225864   2.119   4.676  15.300
 4746SOL     OW25865   3.222   1.186  15.706
 4746SOL    HW125866   3.159   1.255  15.686
 4746SOL    HW225867   3.307   1.223  15.682
 4747SOL     OW25868   3.395   0.283  16.131
 4747SOL    HW125869   3.385   0.347  16.060
 4747SOL    HW225870   3.452   0.215  16.094
 4748SOL     OW25871   3.726   0.403  15.097
 4748SOL    HW125872   3.754   0.464  15.166
 4748SOL    HW225873   3.784   0.422  15.023
 4749SOL     OW25874   2.870   1.400  15.859
 4749SOL    HW125875   2.922   1.471  15.897
 4749SOL    HW225876   2.915   1.379  15.777
 4750SOL     OW25877   2.532   0.001  15.668
 4750SOL    HW125878   2.455   0.055  15.650
 4750SOL    HW225879   2.575   4.772  15.583
 4751SOL     OW25880   1.949   4.466  15.246
 4751SOL    HW125881   1.960   4.551  15.289
 4751SOL    HW225882   1.857   4.444  15.260
 4752SOL     OW25883   1.025   1.924  17.051
 4752SOL    HW125884   1.007   1.869  16.975
 4752SOL    HW225885   1.053   2.008  17.014
 4753SOL     OW25886   2.295   0.667  15.654
 4753SOL    HW125887   2.230   0.692  15.719
 4753SOL    HW225888   2.367   0.631  15.705
 4754SOL     OW25889   3.365   2.927  17.517
 4754SOL    HW125890   3.395   3.018  17.512
 4754SOL    HW225891   3.364   2.897  17.426
 4755SOL     OW25892   2.097   0.261  15.150
 4755SOL    HW125893   2.028   0.202  15.121
 4755SOL    HW225894   2.119   0.313  15.072
 4756SOL     OW25895   1.789   1.103  16.740
 4756SOL    HW125896   1.832   1.034  16.791
 4756SOL    HW225897   1.732   1.056  16.679
 4757SOL     OW25898   3.543   0.779  15.028
 4757SOL    HW125899   3.608   0.806  14.963
 4757SOL    HW225900   3.559   0.685  15.040
 4758SOL     OW25901   3.573   0.307  16.384
 4758SOL    HW125902   3.527   0.314  16.300
 4758SOL    HW225903   3.638   0.378  16.381
 4759SOL     OW25904   2.046   0.599  16.518
 4759SOL    HW125905   2.027   0.594  16.612
 4759SOL    HW225906   2.108   0.528  16.502
 4760SOL     OW25907   3.764   0.808  15.723
 4760SOL    HW125908   3.854   0.812  15.689
 4760SOL    HW225909   3.732   0.723  15.694
 4761SOL     OW25910   2.496   1.865  15.898
 4761SOL    HW125911   2.575   1.892  15.946
 4761SOL    HW225912   2.487   1.772  15.919
 4762SOL     OW25913   2.333   0.815  16.479
 4762SOL    HW125914   2.265   0.882  16.486
 4762SOL    HW225915   2.310   0.751  16.546
 4763SOL     OW25916   2.580   1.484  16.171
 4763SOL    HW125917   2.560   1.526  16.087
 4763SOL    HW225918   2.639   1.412  16.148
 4764SOL     OW25919   1.291   1.925  16.578
 4764SOL    HW125920   1.386   1.917  16.588
 4764SOL    HW225921   1.263   1.840  16.544
 4765SOL     OW25922   2.760   0.106  15.747
 4765SOL    HW125923   2.795   0.028  15.705
 4765SOL    HW225924   2.666   0.101  15.732
 4766SOL     OW25925   1.079   2.270  17.756
 4766SOL    HW125926   1.114   2.272  17.667
 4766SOL    HW225927   1.000   2.216  17.750
 4767SOL     OW25928   2.874   0.605  15.523
 4767SOL    HW125929   2.913   0.551  15.592
 4767SOL    HW225930   2.948   0.628  15.466
 4768SOL     OW25931   2.523   1.243  15.309
 4768SOL    HW125932   2.449   1.275  15.258
 4768SOL    HW225933   2.563   1.176  15.254
 4769SOL     OW25934   3.916   0.664  15.013
 4769SOL    HW125935   3.876   0.736  14.964
 4769SOL    HW225936   3.896   0.586  14.961
 4770SOL     OW25937   2.092   1.927  14.843
 4770SOL    HW125938   2.179   1.967  14.843
 4770SOL    HW225939   2.104   1.842  14.886
 4771SOL     OW25940   4.007   0.346  15.239
 4771SOL    HW125941   4.054   0.429  15.238
 4771SOL    HW225942   4.046   0.296  15.168
 4772SOL     OW25943   1.962   4.740  15.318
 4772SOL    HW125944   1.895   4.757  15.385
 4772SOL    HW225945   1.941   0.020  15.247
 4773SOL     OW25946   3.076   1.266  14.761
 4773SOL    HW125947   3.046   1.345  14.716
 4773SOL    HW225948   3.019   1.196  14.728
 4774SOL     OW25949   3.580   1.071  15.956
 4774SOL    HW125950   3.609   1.122  15.881
 4774SOL    HW225951   3.485   1.082  15.957
 4775SOL     OW25952   3.696   0.483  15.900
 4775SOL    HW125953   3.620   0.435  15.868
 4775SOL    HW225954   3.743   0.509  15.821
 4776SOL     OW25955   2.748   1.301  16.076
 4776SOL    HW125956   2.721   1.210  16.091
 4776SOL    HW225957   2.793   1.299  15.991
 4777SOL     OW25958   1.735   1.893  16.299
 4777SOL    HW125959   1.790   1.815  16.294
 4777SOL    HW225960   1.651   1.861  16.332
 4778SOL     OW25961   2.745   0.014  15.040
 4778SOL    HW125962   2.701   4.711  15.023
 4778SOL    HW225963   2.801   4.777  15.116
 4779SOL     OW25964   3.612   0.237  16.651
 4779SOL    HW125965   3.656   0.312  16.691
 4779SOL    HW225966   3.589   0.266  16.563
 4780SOL     OW25967   0.819   3.815  20.073
 4780SOL    HW125968   0.883   3.860  20.128
 4780SOL    HW225969   0.734   3.840  20.110
 4781SOL     OW25970   1.306   3.846  15.049
 4781SOL    HW125971   1.327   3.879  14.962
 4781SOL    HW225972   1.213   3.823  15.044
 4782SOL     OW25973   1.336   1.955  17.829
 4782SOL    HW125974   1.268   1.901  17.788
 4782SOL    HW225975   1.359   2.020  17.763
 4783SOL     OW25976   3.576   0.104  16.013
 4783SOL    HW125977   3.567   0.062  15.928
 4783SOL    HW225978   3.609   0.035  16.071
 4784SOL     OW25979   2.730   0.321  16.365
 4784SOL    HW125980   2.678   0.280  16.296
 4784SOL    HW225981   2.788   0.382  16.318
 4785SOL     OW25982   1.488   1.814  16.736
 4785SOL    HW125983   1.469   1.722  16.753
 4785SOL    HW225984   1.568   1.813  16.684
 4786SOL     OW25985   3.939   0.687  15.418
 4786SOL    HW125986   4.016   0.681  15.362
 4786SOL    HW225987   3.973   0.713  15.504
 4787SOL     OW25988   2.975   0.434  15.717
 4787SOL    HW125989   3.022   0.394  15.790
 4787SOL    HW225990   3.009   0.391  15.639
 4788SOL     OW25991   3.309   0.022   6.423
 4788SOL    HW125992   3.329   0.115   6.428
 4788SOL    HW225993   3.325   4.779   6.332
 4789SOL     OW25994   3.817   0.152  23.478
 4789SOL    HW125995   3.790   0.143  23.387
 4789SOL    HW225996   3.861   0.070  23.498
 4790SOL     OW25997   0.399   1.537  23.630
 4790SOL    HW125998   0.316   1.558  23.673
 4790SOL    HW225999   0.412   1.607  23.566
 4791SOL     OW26000   2.285   1.730   5.911
 4791SOL    HW126001   2.349   1.801   5.907
 4791SOL    HW226002   2.304   1.686   5.994
 4792SOL     OW26003   3.148   0.639  16.953
 4792SOL    HW126004   3.053   0.627  16.945
 4792SOL    HW226005   3.165   0.634  17.047
 4793SOL     OW26006   3.144   0.319  17.269
 4793SOL    HW126007   3.058   0.286  17.295
 4793SOL    HW226008   3.156   0.289  17.179
 4794SOL     OW26009   2.260   1.424  15.266
 4794SOL    HW126010   2.320   1.485  15.308
 4794SOL    HW226011   2.258   1.451  15.174
 4795SOL     OW26012   1.059   1.194   7.308
 4795SOL    HW126013   1.081   1.262   7.372
 4795SOL    HW226014   1.030   1.242   7.230
 4796SOL     OW26015   0.544   2.675  21.772
 4796SOL    HW126016   0.472   2.712  21.823
 4796SOL    HW226017   0.538   2.719  21.687
 4797SOL     OW26018   1.735   0.481  20.447
 4797SOL    HW126019   1.789   0.547  20.403
 4797SOL    HW226020   1.798   0.427  20.494
 4798SOL     OW26021   3.299   0.884  16.879
 4798SOL    HW126022   3.350   0.840  16.811
 4798SOL    HW226023   3.276   0.814  16.940
 4799SOL     OW26024   0.566   4.365  26.030
 4799SOL    HW126025   0.647   4.413  26.049
 4799SOL    HW226026   0.561   4.364  25.934
 4800SOL     OW26027   2.313   2.878  28.459
 4800SOL    HW126028   2.399   2.914  28.483
 4800SOL    HW226029   2.252   2.949  28.478
 4801SOL     OW26030   3.196   0.535  14.630
 4801SOL    HW126031   3.194   0.440  14.620
 4801SOL    HW226032   3.285   0.555  14.659
 4802SOL     OW26033   4.580   3.876  21.325
 4802SOL    HW126034   4.533   3.810  21.274
 4802SOL    HW226035   4.539   3.872  21.412
 4803SOL     OW26036   1.410   1.642  17.020
 4803SOL    HW126037   1.401   1.603  16.933
 4803SOL    HW226038   1.455   1.576  17.072
 4804SOL     OW26039   0.566   3.430  21.487
 4804SOL    HW126040   0.521   3.347  21.473
 4804SOL    HW226041   0.554   3.477  21.404
 4805SOL     OW26042   3.100   0.334  15.932
 4805SOL    HW126043   3.026   0.281  15.962
 4805SOL    HW226044   3.123   0.389  16.007
 4806SOL     OW26045   3.174   4.710  26.031
 4806SOL    HW126046   3.256   4.661  26.025
 4806SOL    HW226047   3.194   0.014  25.991
 4807SOL     OW26048   0.255   4.071  23.024
 4807SOL    HW126049   0.196   4.141  22.996
 4807SOL    HW226050   0.235   4.059  23.117
 4808SOL     OW26051   1.240   2.145  16.704
 4808SOL    HW126052   1.295   2.216  16.671
 4808SOL    HW226053   1.266   2.069  16.652
 4809SOL     OW26054   1.928   2.278  17.686
 4809SOL    HW126055   1.975   2.360  17.702
 4809SOL    HW226056   1.979   2.212  17.734
 4810SOL     OW26057   2.946   1.627  16.865
 4810SOL    HW126058   3.021   1.643  16.808
 4810SOL    HW226059   2.891   1.565  16.816
 4811SOL     OW26060   0.572   3.138   3.395
 4811SOL    HW126061   0.604   3.212   3.446
 4811SOL    HW226062   0.588   3.163   3.304
 4812SOL     OW26063   4.772   1.647  19.204
 4812SOL    HW126064   0.046   1.591  19.260
 4812SOL    HW226065   0.011   1.618  19.115
 4813SOL     OW26066   1.405   3.059  10.064
 4813SOL    HW126067   1.406   2.987  10.001
 4813SOL    HW226068   1.336   3.036  10.126
 4814SOL     OW26069   1.624   1.735   7.999
 4814SOL    HW126070   1.654   1.816   8.039
 4814SOL    HW226071   1.597   1.680   8.073
 4815SOL     OW26072   2.423   0.422  17.758
 4815SOL    HW126073   2.332   0.451  17.765
 4815SOL    HW226074   2.460   0.438  17.845
 4816SOL     OW26075   3.747   2.784  24.032
 4816SOL    HW126076   3.675   2.722  24.019
 4816SOL    HW226077   3.766   2.817  23.944
 4817SOL     OW26078   2.150   4.503  16.946
 4817SOL    HW126079   2.107   4.578  16.988
 4817SOL    HW226080   2.086   4.432  16.953
 4818SOL     OW26081   1.542   2.654  22.387
 4818SOL    HW126082   1.555   2.642  22.293
 4818SOL    HW226083   1.629   2.640  22.425
 4819SOL     OW26084   4.142   1.713   7.294
 4819SOL    HW126085   4.058   1.671   7.277
 4819SOL    HW226086   4.207   1.648   7.268
 4820SOL     OW26087   4.489   1.879   7.265
 4820SOL    HW126088   4.538   1.858   7.344
 4820SOL    HW226089   4.425   1.945   7.293
 4821SOL     OW26090   0.707   1.017  17.462
 4821SOL    HW126091   0.714   1.043  17.554
 4821SOL    HW226092   0.771   0.947  17.451
 4822SOL     OW26093   3.957   0.661   9.065
 4822SOL    HW126094   4.003   0.665   9.149
 4822SOL    HW226095   4.023   0.684   9.000
 4823SOL     OW26096   4.436   1.868   5.565
 4823SOL    HW126097   4.474   1.781   5.550
 4823SOL    HW226098   4.342   1.852   5.567
 4824SOL     OW26099   1.882   3.945   7.417
 4824SOL    HW126100   1.850   4.021   7.368
 4824SOL    HW226101   1.975   3.964   7.432
 4825SOL     OW26102   2.217   0.575   8.575
 4825SOL    HW126103   2.133   0.601   8.614
 4825SOL    HW226104   2.205   0.591   8.481
 4826SOL     OW26105   2.940   0.899  22.513
 4826SOL    HW126106   2.866   0.842  22.535
 4826SOL    HW226107   2.967   0.938  22.596
 4827SOL     OW26108   3.097   0.219  20.279
 4827SOL    HW126109   3.149   0.299  20.287
 4827SOL    HW226110   3.009   0.244  20.308
 4828SOL     OW26111   1.754   2.144  17.035
 4828SOL    HW126112   1.809   2.103  16.968
 4828SOL    HW226113   1.664   2.126  17.006
 4829SOL     OW26114   3.627   0.499  16.175
 4829SOL    HW126115   3.651   0.528  16.087
 4829SOL    HW226116   3.556   0.557  16.202
 4830SOL     OW26117   3.760   1.669  17.536
 4830SOL    HW126118   3.737   1.625  17.618
 4830SOL    HW226119   3.683   1.658  17.480
 4831SOL     OW26120   2.538   0.454  18.075
 4831SOL    HW126121   2.553   0.548  18.064
 4831SOL    HW226122   2.625   0.418  18.093
 4832SOL     OW26123   0.246   0.996  22.977
 4832SOL    HW126124   0.164   1.035  23.008
 4832SOL    HW226125   0.245   0.907  23.011
 4833SOL     OW26126   1.588   0.171   6.898
 4833SOL    HW126127   1.673   0.147   6.862
 4833SOL    HW226128   1.563   0.251   6.851
 4834SOL     OW26129   2.439   3.753  23.769
 4834SOL    HW126130   2.418   3.772  23.860
 4834SOL    HW226131   2.526   3.714  23.773
 4835SOL     OW26132   1.661   1.514  17.057
 4835SOL    HW126133   1.648   1.450  16.987
 4835SOL    HW226134   1.687   1.594  17.011
 4836SOL     OW26135   0.979   2.543  22.672
 4836SOL    HW126136   0.968   2.480  22.601
 4836SOL    HW226137   1.013   2.622  22.630
 4837SOL     OW26138   3.941   2.154  20.451
 4837SOL    HW126139   3.978   2.195  20.373
 4837SOL    HW226140   3.878   2.090  20.417
 4838SOL     OW26141   1.489   1.840  16.387
 4838SOL    HW126142   1.431   1.892  16.331
 4838SOL    HW226143   1.440   1.760  16.405
 4839SOL     OW26144   2.606   0.818  21.096
 4839SOL    HW126145   2.678   0.786  21.042
 4839SOL    HW226146   2.527   0.786  21.053
 4840SOL     OW26147   3.920   4.413  17.446
 4840SOL    HW126148   3.917   4.318  17.458
 4840SOL    HW226149   3.988   4.442  17.506
 4841SOL     OW26150   2.055   3.336  28.036
 4841SOL    HW126151   2.133   3.389  28.019
 4841SOL    HW226152   1.998   3.393  28.087
 4842SOL     OW26153   1.857   0.140  17.036
 4842SOL    HW126154   1.855   0.208  16.969
 4842SOL    HW226155   1.766   0.132  17.065
 4843SOL     OW26156   3.262   2.694  28.061
 4843SOL    HW126157   3.297   2.687  28.150
 4843SOL    HW226158   3.304   2.772  28.025
 4844SOL     OW26159   2.289   1.173  23.631
 4844SOL    HW126160   2.383   1.183  23.614
 4844SOL    HW226161   2.285   1.108  23.702
 4845SOL     OW26162   3.085   3.668   0.244
 4845SOL    HW126163   3.000   3.711   0.250
 4845SOL    HW226164   3.128   3.709   0.169
 4846SOL     OW26165   1.223   1.798  16.858
 4846SOL    HW126166   1.292   1.821  16.796
 4846SOL    HW226167   1.269   1.755  16.930
 4847SOL     OW26168   1.088   3.575   3.728
 4847SOL    HW126169   1.182   3.555   3.733
 4847SOL    HW226170   1.082   3.669   3.746
 4848SOL     OW26171   2.401   4.609  17.006
 4848SOL    HW126172   2.449   4.544  16.955
 4848SOL    HW226173   2.310   4.581  17.000
 4849SOL     OW26174   3.648   0.863  21.339
 4849SOL    HW126175   3.722   0.895  21.391
 4849SOL    HW226176   3.688   0.812  21.269
 4850SOL     OW26177   0.829   2.048  28.438
 4850SOL    HW126178   0.838   2.109  28.365
 4850SOL    HW226179   0.869   2.094  28.512
 4851SOL     OW26180   1.514   2.073   7.902
 4851SOL    HW126181   1.568   2.131   7.956
 4851SOL    HW226182   1.438   2.054   7.957
 4852SOL     OW26183   0.008   2.076  10.043
 4852SOL    HW126184   0.030   2.130  10.119
 4852SOL    HW226185   0.092   2.051  10.006
 4853SOL     OW26186   1.998   0.193  15.621
 4853SOL    HW126187   2.049   0.267  15.588
 4853SOL    HW226188   1.935   0.175  15.552
 4854SOL     OW26189   2.807   4.694  23.157
 4854SOL    HW126190   2.736   4.712  23.219
 4854SOL    HW226191   2.838   4.607  23.181
 4855SOL     OW26192   3.190   1.635  16.700
 4855SOL    HW126193   3.188   1.540  16.708
 4855SOL    HW226194   3.185   1.651  16.606
 4856SOL     OW26195   0.850   4.556  16.786
 4856SOL    HW126196   0.831   4.613  16.711
 4856SOL    HW226197   0.946   4.552  16.789
 4857SOL     OW26198   2.043   1.244  15.966
 4857SOL    HW126199   2.059   1.153  15.940
 4857SOL    HW226200   1.956   1.264  15.931
 4858SOL     OW26201   2.771   0.679  22.615
 4858SOL    HW126202   2.741   0.590  22.598
 4858SOL    HW226203   2.781   0.683  22.710
 4859SOL     OW26204   0.584   2.784   8.437
 4859SOL    HW126205   0.602   2.690   8.431
 4859SOL    HW226206   0.499   2.795   8.395
 4860SOL     OW26207   3.563   0.797  18.796
 4860SOL    HW126208   3.509   0.739  18.743
 4860SOL    HW226209   3.649   0.796  18.753
 4861SOL     OW26210   2.596   1.392  15.813
 4861SOL    HW126211   2.689   1.377  15.832
 4861SOL    HW226212   2.589   1.382  15.718
 4862SOL     OW26213   4.027   1.168   6.041
 4862SOL    HW126214   4.084   1.229   5.994
 4862SOL    HW226215   4.073   1.151   6.123
 4863SOL     OW26216   2.617   4.713  20.659
 4863SOL    HW126217   2.676   4.637  20.659
 4863SOL    HW226218   2.669   0.003  20.698
 4864SOL     OW26219   4.713   0.823  15.778
 4864SOL    HW126220   4.691   0.859  15.692
 4864SOL    HW226221   4.721   0.729  15.764
 4865SOL     OW26222   3.927   0.220   6.301
 4865SOL    HW126223   3.844   0.266   6.309
 4865SOL    HW226224   3.993   0.289   6.302
 4866SOL     OW26225   3.324   2.829  22.873
 4866SOL    HW126226   3.281   2.819  22.958
 4866SOL    HW226227   3.256   2.864  22.816
 4867SOL     OW26228   1.376   2.208  16.351
 4867SOL    HW126229   1.425   2.212  16.269
 4867SOL    HW226230   1.324   2.128  16.344
 4868SOL     OW26231   0.199   1.249   7.527
 4868SOL    HW126232   0.174   1.336   7.496
 4868SOL    HW226233   0.121   1.216   7.572
 4869SOL     OW26234   3.339   1.402  24.774
 4869SOL    HW126235   3.386   1.483  24.791
 4869SOL    HW226236   3.299   1.415  24.688
 4870SOL     OW26237   3.719   0.558  15.577
 4870SOL    HW126238   3.794   0.574  15.520
 4870SOL    HW226239   3.645   0.547  15.517
 4871SOL     OW26240   3.252   0.196  17.987
 4871SOL    HW126241   3.188   0.265  17.971
 4871SOL    HW226242   3.213   0.117  17.949
 4872SOL     OW26243   2.829   4.553  17.986
 4872SOL    HW126244   2.784   4.488  18.040
 4872SOL    HW226245   2.914   4.513  17.967
 4873SOL     OW26246   3.764   4.240  17.629
 4873SOL    HW126247   3.832   4.256  17.695
 4873SOL    HW226248   3.758   4.145  17.623
 4874SOL     OW26249   1.947   2.076  19.565
 4874SOL    HW126250   2.010   2.029  19.511
 4874SOL    HW226251   1.911   2.143  19.507
 4875SOL     OW26252   0.839   4.772  18.378
 4875SOL    HW126253   0.756   4.725  18.381
 4875SOL    HW226254   0.819   0.074  18.334
 4876SOL     OW26255   4.105   0.510  23.150
 4876SOL    HW126256   4.046   0.518  23.225
 4876SOL    HW226257   4.154   0.592  23.149
 4877SOL     OW26258   3.055   0.192   3.736
 4877SOL    HW126259   3.055   0.277   3.692
 4877SOL    HW226260   3.122   0.141   3.691
 4878SOL     OW26261   0.901   0.718   8.904
 4878SOL    HW126262   0.960   0.777   8.857
 4878SOL    HW226263   0.829   0.702   8.842
 4879SOL     OW26264   1.123   1.885   2.850
 4879SOL    HW126265   1.165   1.809   2.889
 4879SOL    HW226266   1.136   1.955   2.914
 4880SOL     OW26267   0.276   0.954   4.597
 4880SOL    HW126268   0.361   0.925   4.630
 4880SOL    HW226269   0.266   1.042   4.632
 4881SOL     OW26270   0.031   3.013  26.634
 4881SOL    HW126271   0.027   3.107  26.615
 4881SOL    HW226272   0.116   2.985  26.600
 4882SOL     OW26273   3.401   3.532   1.192
 4882SOL    HW126274   3.318   3.564   1.157
 4882SOL    HW226275   3.428   3.463   1.131
 4883SOL     OW26276   2.407   0.105  20.642
 4883SOL    HW126277   2.476   0.039  20.650
 4883SOL    HW226278   2.343   0.065  20.583
 4884SOL     OW26279   0.831   0.148   8.397
 4884SOL    HW126280   0.822   0.055   8.376
 4884SOL    HW226281   0.755   0.168   8.451
 4885SOL     OW26282   4.700   4.129  20.204
 4885SOL    HW126283   4.631   4.102  20.265
 4885SOL    HW226284   4.690   4.224  20.197
 4886SOL     OW26285   2.359   1.375   0.983
 4886SOL    HW126286   2.386   1.332   0.902
 4886SOL    HW226287   2.396   1.463   0.978
 4887SOL     OW26288   2.503   0.100   5.578
 4887SOL    HW126289   2.530   0.119   5.488
 4887SOL    HW226290   2.414   0.136   5.584
 4888SOL     OW26291   4.179   1.188  17.663
 4888SOL    HW126292   4.092   1.207  17.629
 4888SOL    HW226293   4.239   1.225  17.598
 4889SOL     OW26294   2.013   4.231  25.199
 4889SOL    HW126295   2.030   4.152  25.148
 4889SOL    HW226296   2.073   4.226  25.273
 4890SOL     OW26297   1.189   2.646  26.425
 4890SOL    HW126298   1.270   2.611  26.462
 4890SOL    HW226299   1.121   2.622  26.489
 4891SOL     OW26300   1.980   4.158   4.314
 4891SOL    HW126301   2.001   4.251   4.304
 4891SOL    HW226302   1.985   4.143   4.408
 4892SOL     OW26303   0.630   1.251   3.200
 4892SOL    HW126304   0.540   1.271   3.175
 4892SOL    HW226305   0.664   1.197   3.129
 4893SOL     OW26306   0.866   0.853  23.864
 4893SOL    HW126307   0.770   0.857  23.868
 4893SOL    HW226308   0.895   0.938  23.898
 4894SOL     OW26309   1.536   4.131  21.481
 4894SOL    HW126310   1.607   4.186  21.512
 4894SOL    HW226311   1.457   4.180  21.501
 4895SOL     OW26312   3.783   3.992   8.183
 4895SOL    HW126313   3.783   3.917   8.123
 4895SOL    HW226314   3.863   4.040   8.160
 4896SOL     OW26315   3.187   1.455  19.411
 4896SOL    HW126316   3.142   1.372  19.396
 4896SOL    HW226317   3.273   1.442  19.371
 4897SOL     OW26318   3.064   0.142  24.495
 4897SOL    HW126319   3.133   0.120  24.557
 4897SOL    HW226320   3.107   0.197  24.430
 4898SOL     OW26321   3.128   3.729   8.774
 4898SOL    HW126322   3.144   3.781   8.853
 4898SOL    HW226323   3.193   3.760   8.711
 4899SOL     OW26324   3.063   3.173  21.759
 4899SOL    HW126325   3.057   3.106  21.827
 4899SOL    HW226326   3.157   3.186  21.746
 4900SOL     OW26327   4.077   4.437   9.223
 4900SOL    HW126328   4.112   4.519   9.257
 4900SOL    HW226329   4.009   4.411   9.286
 4901SOL     OW26330   2.944   3.233   8.851
 4901SOL    HW126331   2.998   3.158   8.825
 4901SOL    HW226332   2.953   3.295   8.779
 4902SOL     OW26333   1.192   0.790  27.332
 4902SOL    HW126334   1.208   0.734  27.256
 4902SOL    HW226335   1.148   0.733  27.395
 4903SOL     OW26336   2.764   3.344  18.382
 4903SOL    HW126337   2.711   3.400  18.325
 4903SOL    HW226338   2.704   3.317  18.452
 4904SOL     OW26339   2.443   2.315   1.986
 4904SOL    HW126340   2.481   2.259   2.053
 4904SOL    HW226341   2.360   2.344   2.023
 4905SOL     OW26342   2.027   0.647  20.008
 4905SOL    HW126343   2.083   0.600  19.946
 4905SOL    HW226344   1.953   0.677  19.956
 4906SOL     OW26345   1.567   3.577   8.606
 4906SOL    HW126346   1.626   3.568   8.681
 4906SOL    HW226347   1.482   3.598   8.645
 4907SOL     OW26348   3.642   0.627  25.039
 4907SOL    HW126349   3.605   0.568  25.105
 4907SOL    HW226350   3.684   0.568  24.976
 4908SOL     OW26351   2.824   2.782   6.081
 4908SOL    HW126352   2.776   2.818   6.006
 4908SOL    HW226353   2.823   2.687   6.066
 4909SOL     OW26354   0.552   0.382  10.214
 4909SOL    HW126355   0.521   0.292  10.209
 4909SOL    HW226356   0.512   0.425  10.138
 4910SOL     OW26357   3.806   0.760   2.926
 4910SOL    HW126358   3.814   0.705   2.848
 4910SOL    HW226359   3.712   0.768   2.940
 4911SOL     OW26360   2.162   3.601  20.012
 4911SOL    HW126361   2.119   3.677  19.972
 4911SOL    HW226362   2.093   3.535  20.020
 4912SOL     OW26363   0.811   1.751   3.366
 4912SOL    HW126364   0.871   1.767   3.293
 4912SOL    HW226365   0.802   1.656   3.369
 4913SOL     OW26366   0.630   1.867  18.686
 4913SOL    HW126367   0.712   1.883  18.732
 4913SOL    HW226368   0.586   1.799  18.737
 4914SOL     OW26369   0.955   0.475  11.131
 4914SOL    HW126370   1.004   0.454  11.051
 4914SOL    HW226371   0.994   0.556  11.163
 4915SOL     OW26372   2.375   1.330  27.914
 4915SOL    HW126373   2.361   1.394  27.984
 4915SOL    HW226374   2.464   1.347  27.884
 4916SOL     OW26375   3.310   3.659   3.270
 4916SOL    HW126376   3.294   3.665   3.176
 4916SOL    HW226377   3.324   3.749   3.298
 4917SOL     OW26378   1.560   2.542  21.605
 4917SOL    HW126379   1.571   2.608  21.537
 4917SOL    HW226380   1.516   2.469  21.561
 4918SOL     OW26381   4.078   4.423  23.951
 4918SOL    HW126382   4.001   4.471  23.980
 4918SOL    HW226383   4.050   4.332  23.949
 4919SOL     OW26384   4.247   0.147   5.686
 4919SOL    HW126385   4.295   0.161   5.768
 4919SOL    HW226386   4.159   0.179   5.705
 4920SOL     OW26387   2.721   0.688   9.803
 4920SOL    HW126388   2.654   0.649   9.747
 4920SOL    HW226389   2.745   0.769   9.758
 4921SOL     OW26390   4.483   0.105   9.225
 4921SOL    HW126391   4.537   0.068   9.155
 4921SOL    HW226392   4.538   0.173   9.265
 4922SOL     OW26393   3.746   0.667   8.667
 4922SOL    HW126394   3.674   0.606   8.684
 4922SOL    HW226395   3.732   0.739   8.728
 4923SOL     OW26396   1.099   2.964   2.524
 4923SOL    HW126397   1.142   2.893   2.572
 4923SOL    HW226398   1.097   2.933   2.433
 4924SOL     OW26399   1.208   1.516   8.355
 4924SOL    HW126400   1.175   1.540   8.268
 4924SOL    HW226401   1.203   1.420   8.357
 4925SOL     OW26402   4.401   4.390  28.507
 4925SOL    HW126403   4.321   4.396   0.039
 4925SOL    HW226404   4.395   4.461  28.444
 4926SOL     OW26405   1.822   3.568   9.064
 4926SOL    HW126406   1.879   3.644   9.053
 4926SOL    HW226407   1.816   3.556   9.159
 4927SOL     OW26408   3.410   1.633  23.552
 4927SOL    HW126409   3.317   1.622  23.570
 4927SOL    HW226410   3.454   1.574  23.614
 4928SOL     OW26411   2.403   0.351   8.608
 4928SOL    HW126412   2.342   0.418   8.577
 4928SOL    HW226413   2.361   0.268   8.586
 4929SOL     OW26414   0.930   1.435  27.155
 4929SOL    HW126415   0.932   1.383  27.235
 4929SOL    HW226416   0.902   1.522  27.184
 4930SOL     OW26417   4.339   3.379   3.912
 4930SOL    HW126418   4.265   3.439   3.915
 4930SOL    HW226419   4.378   3.383   3.999
 4931SOL     OW26420   3.679   2.604   9.296
 4931SOL    HW126421   3.602   2.583   9.243
 4931SOL    HW226422   3.643   2.643   9.376
 4932SOL     OW26423   2.588   1.644  24.756
 4932SOL    HW126424   2.622   1.679  24.674
 4932SOL    HW226425   2.527   1.711  24.787
 4933SOL     OW26426   4.567   1.812  22.236
 4933SOL    HW126427   4.589   1.780  22.324
 4933SOL    HW226428   4.483   1.771  22.216
 4934SOL     OW26429   0.486   1.266  23.322
 4934SOL    HW126430   0.436   1.265  23.404
 4934SOL    HW226431   0.419   1.263  23.253
 4935SOL     OW26432   4.267   0.779   6.355
 4935SOL    HW126433   4.267   0.864   6.400
 4935SOL    HW226434   4.321   0.793   6.277
 4936SOL     OW26435   1.173   0.334  20.820
 4936SOL    HW126436   1.234   0.299  20.884
 4936SOL    HW226437   1.106   0.378  20.872
 4937SOL     OW26438   1.812   0.600   4.078
 4937SOL    HW126439   1.837   0.556   3.997
 4937SOL    HW226440   1.732   0.648   4.056
 4938SOL     OW26441   3.684   2.870   4.109
 4938SOL    HW126442   3.612   2.918   4.068
 4938SOL    HW226443   3.705   2.921   4.188
 4939SOL     OW26444   2.586   2.539  23.786
 4939SOL    HW126445   2.625   2.478  23.723
 4939SOL    HW226446   2.528   2.484  23.840
 4940SOL     OW26447   3.803   1.684   5.768
 4940SOL    HW126448   3.862   1.613   5.793
 4940SOL    HW226449   3.828   1.757   5.825
 4941SOL     OW26450   3.766   0.918   7.419
 4941SOL    HW126451   3.798   0.956   7.337
 4941SOL    HW226452   3.780   0.824   7.408
 4942SOL     OW26453   4.280   4.374  12.139
 4942SOL    HW126454   4.315   4.363  12.050
 4942SOL    HW226455   4.202   4.319  12.141
 4943SOL     OW26456   0.799   1.598   4.972
 4943SOL    HW126457   0.857   1.536   5.017
 4943SOL    HW226458   0.842   1.683   4.983
 4944SOL     OW26459   4.024   1.171  20.608
 4944SOL    HW126460   4.010   1.163  20.702
 4944SOL    HW226461   3.997   1.261  20.588
 4945SOL     OW26462   2.881   3.483  21.548
 4945SOL    HW126463   2.860   3.555  21.608
 4945SOL    HW226464   2.975   3.468  21.560
 4946SOL     OW26465   4.746   2.658   5.696
 4946SOL    HW126466   4.689   2.602   5.643
 4946SOL    HW226467   4.762   2.608   5.776
 4947SOL     OW26468   1.778   0.272   7.798
 4947SOL    HW126469   1.790   0.271   7.703
 4947SOL    HW226470   1.866   0.260   7.834
 4948SOL     OW26471   2.611   2.315  23.602
 4948SOL    HW126472   2.518   2.324  23.583
 4948SOL    HW226473   2.629   2.222  23.589
 4949SOL     OW26474   2.799   3.906  17.507
 4949SOL    HW126475   2.816   3.964  17.433
 4949SOL    HW226476   2.721   3.857  17.482
 4950SOL     OW26477   0.661   3.057  10.909
 4950SOL    HW126478   0.579   3.050  10.958
 4950SOL    HW226479   0.648   3.003  10.831
 4951SOL     OW26480   0.939   2.047  24.898
 4951SOL    HW126481   0.861   2.039  24.953
 4951SOL    HW226482   0.974   1.958  24.893
 4952SOL     OW26483   3.274   0.619  25.209
 4952SOL    HW126484   3.354   0.670  25.194
 4952SOL    HW226485   3.206   0.667  25.162
 4953SOL     OW26486   4.096   0.424   5.060
 4953SOL    HW126487   4.096   0.330   5.041
 4953SOL    HW226488   4.183   0.442   5.096
 4954SOL     OW26489   3.539   0.997   7.809
 4954SOL    HW126490   3.583   1.026   7.889
 4954SOL    HW226491   3.499   0.913   7.833
 4955SOL     OW26492   3.324   4.669   8.154
 4955SOL    HW126493   3.229   4.682   8.148
 4955SOL    HW226494   3.356   4.688   8.066
 4956SOL     OW26495   4.277   3.735  21.222
 4956SOL    HW126496   4.246   3.718  21.133
 4956SOL    HW226497   4.289   3.648  21.261
 4957SOL     OW26498   0.982   3.982  11.462
 4957SOL    HW126499   0.925   3.907  11.480
 4957SOL    HW226500   0.978   4.034  11.542
 4958SOL     OW26501   1.633   3.003  22.231
 4958SOL    HW126502   1.603   3.002  22.322
 4958SOL    HW226503   1.658   2.913  22.212
 4959SOL     OW26504   3.741   0.006   2.667
 4959SOL    HW126505   3.686   0.038   2.596
 4959SOL    HW226506   3.770   4.700   2.638
 4960SOL     OW26507   0.309   1.590   7.633
 4960SOL    HW126508   0.370   1.620   7.565
 4960SOL    HW226509   0.364   1.546   7.697
 4961SOL     OW26510   4.763   0.634   8.657
 4961SOL    HW126511   4.679   0.627   8.703
 4961SOL    HW226512   0.047   0.645   8.727
 4962SOL     OW26513   0.701   2.326   5.987
 4962SOL    HW126514   0.629   2.380   6.018
 4962SOL    HW226515   0.659   2.256   5.938
 4963SOL     OW26516   1.729   4.326   7.206
 4963SOL    HW126517   1.746   4.295   7.117
 4963SOL    HW226518   1.791   4.398   7.219
 4964SOL     OW26519   1.930   4.088   0.332
 4964SOL    HW126520   1.845   4.101   0.289
 4964SOL    HW226521   1.963   4.176   0.349
 4965SOL     OW26522   3.531   2.380   6.230
 4965SOL    HW126523   3.446   2.420   6.247
 4965SOL    HW226524   3.555   2.338   6.312
 4966SOL     OW26525   0.359   0.566   2.114
 4966SOL    HW126526   0.394   0.541   2.029
 4966SOL    HW226527   0.286   0.506   2.129
 4967SOL     OW26528   2.846   4.695  24.780
 4967SOL    HW126529   2.850   4.656  24.693
 4967SOL    HW226530   2.755   4.685  24.806
 4968SOL     OW26531   4.461   2.890   0.604
 4968SOL    HW126532   4.421   2.912   0.520
 4968SOL    HW226533   4.503   2.971   0.632
 4969SOL     OW26534   1.526   1.835   6.655
 4969SOL    HW126535   1.605   1.783   6.639
 4969SOL    HW226536   1.545   1.920   6.614
 4970SOL     OW26537   3.825   2.333   1.215
 4970SOL    HW126538   3.889   2.262   1.221
 4970SOL    HW226539   3.809   2.344   1.121
 4971SOL     OW26540   2.859   2.203   5.914
 4971SOL    HW126541   2.836   2.295   5.904
 4971SOL    HW226542   2.856   2.187   6.008
 4972SOL     OW26543   2.063   0.755  23.750
 4972SOL    HW126544   2.035   0.691  23.684
 4972SOL    HW226545   2.029   0.839  23.718
 4973SOL     OW26546   2.675   2.794  21.639
 4973SOL    HW126547   2.701   2.852  21.567
 4973SOL    HW226548   2.614   2.846  21.691
 4974SOL     OW26549   0.011   1.181   9.591
 4974SOL    HW126550   4.757   1.251   9.647
 4974SOL    HW226551   0.101   1.169   9.621
 4975SOL     OW26552   4.050   3.586  22.345
 4975SOL    HW126553   4.061   3.498  22.380
 4975SOL    HW226554   3.956   3.603  22.351
 4976SOL     OW26555   0.204   2.142  23.738
 4976SOL    HW126556   0.279   2.082  23.737
 4976SOL    HW226557   0.153   2.119  23.660
 4977SOL     OW26558   3.641   3.176  24.818
 4977SOL    HW126559   3.601   3.119  24.752
 4977SOL    HW226560   3.684   3.245  24.767
 4978SOL     OW26561   0.911   2.844   8.105
 4978SOL    HW126562   0.999   2.829   8.070
 4978SOL    HW226563   0.918   2.927   8.152
 4979SOL     OW26564   1.097   2.444   7.555
 4979SOL    HW126565   1.131   2.509   7.494
 4979SOL    HW226566   1.162   2.440   7.625
 4980SOL     OW26567   1.391   2.095  27.099
 4980SOL    HW126568   1.306   2.094  27.054
 4980SOL    HW226569   1.373   2.138  27.183
 4981SOL     OW26570   4.435   0.596  17.948
 4981SOL    HW126571   4.461   0.598  18.040
 4981SOL    HW226572   4.510   0.559  17.902
 4982SOL     OW26573   0.614   0.652  17.432
 4982SOL    HW126574   0.565   0.731  17.456
 4982SOL    HW226575   0.662   0.676  17.353
 4983SOL     OW26576   2.617   1.076  24.291
 4983SOL    HW126577   2.596   1.162  24.326
 4983SOL    HW226578   2.565   1.070  24.211
 4984SOL     OW26579   3.107   1.982   3.718
 4984SOL    HW126580   3.096   2.077   3.714
 4984SOL    HW226581   3.154   1.960   3.638
 4985SOL     OW26582   4.074   4.299  19.123
 4985SOL    HW126583   4.054   4.229  19.185
 4985SOL    HW226584   4.042   4.378  19.166
 4986SOL     OW26585   0.179   0.414  20.326
 4986SOL    HW126586   0.195   0.325  20.356
 4986SOL    HW226587   0.199   0.469  20.402
 4987SOL     OW26588   1.026   2.886  21.749
 4987SOL    HW126589   1.022   2.884  21.845
 4987SOL    HW226590   0.935   2.875  21.721
 4988SOL     OW26591   1.063   2.883   6.238
 4988SOL    HW126592   1.115   2.803   6.228
 4988SOL    HW226593   1.122   2.945   6.281
 4989SOL     OW26594   0.535   2.608  27.280
 4989SOL    HW126595   0.589   2.611  27.201
 4989SOL    HW226596   0.571   2.677  27.336
 4990SOL     OW26597   0.997   3.243   1.268
 4990SOL    HW126598   1.090   3.244   1.289
 4990SOL    HW226599   0.984   3.160   1.222
 4991SOL     OW26600   3.410   4.157  16.559
 4991SOL    HW126601   3.415   4.250  16.581
 4991SOL    HW226602   3.336   4.151  16.499
 4992SOL     OW26603   3.002   0.426  19.665
 4992SOL    HW126604   3.039   0.338  19.669
 4992SOL    HW226605   2.911   0.416  19.694
 4993SOL     OW26606   0.645   1.879   9.186
 4993SOL    HW126607   0.602   1.939   9.125
 4993SOL    HW226608   0.663   1.932   9.264
 4994SOL     OW26609   0.200   1.322   5.786
 4994SOL    HW126610   0.236   1.285   5.705
 4994SOL    HW226611   0.262   1.295   5.854
 4995SOL     OW26612   4.557   2.553  26.869
 4995SOL    HW126613   4.613   2.616  26.914
 4995SOL    HW226614   4.612   2.518  26.799
 4996SOL     OW26615   0.223   1.103  27.054
 4996SOL    HW126616   0.149   1.145  27.011
 4996SOL    HW226617   0.284   1.174  27.073
 4997SOL     OW26618   2.271   3.202   7.906
 4997SOL    HW126619   2.342   3.216   7.843
 4997SOL    HW226620   2.312   3.152   7.977
 4998SOL     OW26621   1.996   4.683   8.236
 4998SOL    HW126622   2.023   4.628   8.163
 4998SOL    HW226623   2.077   4.702   8.283
 4999SOL     OW26624   0.660   4.722  26.984
 4999SOL    HW126625   0.580   4.756  26.943
 4999SOL    HW226626   0.662   4.630  26.959
 5000SOL     OW26627   4.479   1.383   9.451
 5000SOL    HW126628   4.535   1.307   9.435
 5000SOL    HW226629   4.403   1.369   9.395
 5001SOL     OW26630   2.722   0.547  18.378
 5001SOL    HW126631   2.723   0.503  18.463
 5001SOL    HW226632   2.637   0.590  18.374
 5002SOL     OW26633   2.814   1.652  26.953
 5002SOL    HW126634   2.890   1.710  26.952
 5002SOL    HW226635   2.793   1.640  27.046
 5003SOL     OW26636   0.322   2.519   3.415
 5003SOL    HW126637   0.403   2.477   3.445
 5003SOL    HW226638   0.270   2.447   3.379
 5004SOL     OW26639   4.043   4.631  25.698
 5004SOL    HW126640   4.102   4.674  25.760
 5004SOL    HW226641   4.101   4.600  25.628
 5005SOL     OW26642   0.058   2.330  23.259
 5005SOL    HW126643   4.763   2.359  23.310
 5005SOL    HW226644   0.041   2.237  23.242
 5006SOL     OW26645   4.585   0.833  19.963
 5006SOL    HW126646   4.538   0.904  20.006
 5006SOL    HW226647   4.533   0.813  19.885
 5007SOL     OW26648   4.249   3.698   4.878
 5007SOL    HW126649   4.290   3.783   4.864
 5007SOL    HW226650   4.304   3.637   4.828
 5008SOL     OW26651   4.423   0.994  22.568
 5008SOL    HW126652   4.392   0.946  22.491
 5008SOL    HW226653   4.504   0.949  22.593
 5009SOL     OW26654   2.474   4.339   2.435
 5009SOL    HW126655   2.394   4.383   2.406
 5009SOL    HW226656   2.538   4.410   2.444
 5010SOL     OW26657   2.023   4.173  22.062
 5010SOL    HW126658   2.095   4.202  22.118
 5010SOL    HW226659   2.006   4.083  22.090
 5011SOL     OW26660   1.334   0.418  27.006
 5011SOL    HW126661   1.411   0.397  27.059
 5011SOL    HW226662   1.314   0.337  26.959
 5012SOL     OW26663   1.493   3.477   2.082
 5012SOL    HW126664   1.499   3.394   2.130
 5012SOL    HW226665   1.569   3.477   2.024
 5013SOL     OW26666   3.802   2.103  27.676
 5013SOL    HW126667   3.763   2.033  27.623
 5013SOL    HW226668   3.743   2.112  27.751
 5014SOL     OW26669   0.335   2.846  28.014
 5014SOL    HW126670   0.418   2.831  28.059
 5014SOL    HW226671   0.326   2.941  28.010
 5015SOL     OW26672   1.775   1.475  18.919
 5015SOL    HW126673   1.730   1.417  18.981
 5015SOL    HW226674   1.706   1.533  18.887
 5016SOL     OW26675   4.308   1.294   7.467
 5016SOL    HW126676   4.352   1.212   7.489
 5016SOL    HW226677   4.351   1.359   7.522
 5017SOL     OW26678   1.392   3.221   8.215
 5017SOL    HW126679   1.298   3.235   8.206
 5017SOL    HW226680   1.420   3.285   8.280
 5018SOL     OW26681   3.254   2.678   3.971
 5018SOL    HW126682   3.344   2.655   3.948
 5018SOL    HW226683   3.252   2.672   4.067
 5019SOL     OW26684   4.659   4.374  23.658
 5019SOL    HW126685   4.566   4.352  23.662
 5019SOL    HW226686   4.686   4.351  23.569
 5020SOL     OW26687   1.839   4.014   6.680
 5020SOL    HW126688   1.813   3.934   6.726
 5020SOL    HW226689   1.883   3.983   6.601
 5021SOL     OW26690   1.921   2.044  24.227
 5021SOL    HW126691   1.988   2.109  24.249
 5021SOL    HW226692   1.853   2.057  24.293
 5022SOL     OW26693   1.130   4.156  20.654
 5022SOL    HW126694   1.174   4.088  20.603
 5022SOL    HW226695   1.138   4.235  20.601
 5023SOL     OW26696   1.185   2.529   4.195
 5023SOL    HW126697   1.265   2.500   4.152
 5023SOL    HW226698   1.215   2.584   4.268
 5024SOL     OW26699   2.363   1.301   7.272
 5024SOL    HW126700   2.385   1.263   7.187
 5024SOL    HW226701   2.368   1.228   7.333
 5025SOL     OW26702   2.370   3.219  22.552
 5025SOL    HW126703   2.344   3.278  22.481
 5025SOL    HW226704   2.348   3.132  22.520
 5026SOL     OW26705   4.575   1.387   2.238
 5026SOL    HW126706   4.484   1.397   2.265
 5026SOL    HW226707   4.624   1.435   2.304
 5027SOL     OW26708   4.230   0.267   0.335
 5027SOL    HW126709   4.314   0.313   0.336
 5027SOL    HW226710   4.235   0.207   0.409
 5028SOL     OW26711   0.817   2.605  20.838
 5028SOL    HW126712   0.803   2.688  20.883
 5028SOL    HW226713   0.912   2.594  20.835
 5029SOL     OW26714   1.827   3.519  17.936
 5029SOL    HW126715   1.874   3.598  17.962
 5029SOL    HW226716   1.811   3.530  17.842
 5030SOL     OW26717   0.565   4.072  27.355
 5030SOL    HW126718   0.545   4.110  27.440
 5030SOL    HW226719   0.516   4.126  27.293
 5031SOL     OW26720   2.851   3.440   1.091
 5031SOL    HW126721   2.789   3.381   1.048
 5031SOL    HW226722   2.924   3.384   1.117
 5032SOL     OW26723   0.814   4.439  27.801
 5032SOL    HW126724   0.767   4.522  27.813
 5032SOL    HW226725   0.883   4.441  27.867
 5033SOL     OW26726   2.416   1.232   9.460
 5033SOL    HW126727   2.394   1.303   9.520
 5033SOL    HW226728   2.331   1.200   9.428
 5034SOL     OW26729   3.912   0.753   6.837
 5034SOL    HW126730   3.979   0.762   6.904
 5034SOL    HW226731   3.926   0.827   6.778
 5035SOL     OW26732   0.185   1.172  21.618
 5035SOL    HW126733   0.122   1.222  21.566
 5035SOL    HW226734   0.175   1.082  21.587
 5036SOL     OW26735   3.272   1.613  22.086
 5036SOL    HW126736   3.180   1.640  22.079
 5036SOL    HW226737   3.307   1.666  22.157
 5037SOL     OW26738   0.447   1.797  23.548
 5037SOL    HW126739   0.509   1.827  23.481
 5037SOL    HW226740   0.454   1.862  23.618
 5038SOL     OW26741   4.156   0.444   6.039
 5038SOL    HW126742   4.079   0.501   6.031
 5038SOL    HW226743   4.193   0.440   5.951
 5039SOL     OW26744   2.549   1.353   2.806
 5039SOL    HW126745   2.544   1.308   2.722
 5039SOL    HW226746   2.553   1.446   2.783
 5040SOL     OW26747   1.637   0.532   4.821
 5040SOL    HW126748   1.557   0.480   4.826
 5040SOL    HW226749   1.611   0.619   4.853
 5041SOL     OW26750   1.337   0.438   1.352
 5041SOL    HW126751   1.308   0.522   1.316
 5041SOL    HW226752   1.276   0.420   1.424
 5042SOL     OW26753   2.488   3.251  17.858
 5042SOL    HW126754   2.524   3.310  17.924
 5042SOL    HW226755   2.559   3.189  17.840
 5043SOL     OW26756   2.795   4.663   5.495
 5043SOL    HW126757   2.830   4.673   5.407
 5043SOL    HW226758   2.852   4.598   5.537
 5044SOL     OW26759   1.611   4.638  27.345
 5044SOL    HW126760   1.536   4.578  27.348
 5044SOL    HW226761   1.630   4.657  27.437
 5045SOL     OW26762   2.955   4.087   7.417
 5045SOL    HW126763   2.894   4.135   7.473
 5045SOL    HW226764   3.035   4.081   7.469
 5046SOL     OW26765   3.982   4.049   7.324
 5046SOL    HW126766   4.059   4.081   7.277
 5046SOL    HW226767   3.931   4.003   7.258
 5047SOL     OW26768   2.794   0.974  17.423
 5047SOL    HW126769   2.842   0.901  17.383
 5047SOL    HW226770   2.702   0.956  17.403
 5048SOL     OW26771   0.554   1.648  26.509
 5048SOL    HW126772   0.563   1.699  26.429
 5048SOL    HW226773   0.563   1.557  26.481
 5049SOL     OW26774   1.233   1.699   0.083
 5049SOL    HW126775   1.289   1.685   0.007
 5049SOL    HW226776   1.146   1.674   0.053
 5050SOL     OW26777   1.474   2.294   5.442
 5050SOL    HW126778   1.556   2.249   5.461
 5050SOL    HW226779   1.419   2.276   5.518
 5051SOL     OW26780   0.006   3.918  25.441
 5051SOL    HW126781   0.089   3.894  25.400
 5051SOL    HW226782   4.731   3.840  25.431
 5052SOL     OW26783   0.733   3.045  27.795
 5052SOL    HW126784   0.789   3.017  27.867
 5052SOL    HW226785   0.742   3.140  27.792
 5053SOL     OW26786   0.231   3.776  26.324
 5053SOL    HW126787   0.230   3.703  26.263
 5053SOL    HW226788   0.146   3.773  26.367
 5054SOL     OW26789   2.508   0.536  28.272
 5054SOL    HW126790   2.590   0.503  28.308
 5054SOL    HW226791   2.508   0.506  28.181
 5055SOL     OW26792   3.951   0.786   6.261
 5055SOL    HW126793   4.019   0.851   6.282
 5055SOL    HW226794   3.940   0.737   6.342
 5056SOL     OW26795   0.140   0.329   4.091
 5056SOL    HW126796   0.189   0.310   4.011
 5056SOL    HW226797   0.197   0.388   4.141
 5057SOL     OW26798   0.646   0.876  21.193
 5057SOL    HW126799   0.679   0.911  21.276
 5057SOL    HW226800   0.672   0.784  21.194
 5058SOL     OW26801   3.623   0.118  10.552
 5058SOL    HW126802   3.708   0.162  10.559
 5058SOL    HW226803   3.574   0.149  10.628
 5059SOL     OW26804   0.768   1.458  25.113
 5059SOL    HW126805   0.712   1.503  25.050
 5059SOL    HW226806   0.847   1.512  25.117
 5060SOL     OW26807   1.083   4.358   6.695
 5060SOL    HW126808   1.086   4.309   6.777
 5060SOL    HW226809   1.173   4.356   6.663
 5061SOL     OW26810   2.901   3.946  20.014
 5061SOL    HW126811   2.831   3.905  20.064
 5061SOL    HW226812   2.893   3.908  19.926
 5062SOL     OW26813   2.420   3.647   8.737
 5062SOL    HW126814   2.440   3.581   8.803
 5062SOL    HW226815   2.494   3.644   8.677
 5063SOL     OW26816   3.091   2.185   1.722
 5063SOL    HW126817   3.169   2.148   1.762
 5063SOL    HW226818   3.080   2.136   1.640
 5064SOL     OW26819   3.127   3.103   8.585
 5064SOL    HW126820   3.066   3.168   8.551
 5064SOL    HW226821   3.071   3.032   8.616
 5065SOL     OW26822   2.071   1.191  22.863
 5065SOL    HW126823   2.017   1.116  22.836
 5065SOL    HW226824   2.050   1.259  22.799
 5066SOL     OW26825   1.765   1.075  22.816
 5066SOL    HW126826   1.725   1.098  22.732
 5066SOL    HW226827   1.760   0.980  22.820
 5067SOL     OW26828   0.973   4.168   5.377
 5067SOL    HW126829   0.908   4.168   5.307
 5067SOL    HW226830   1.001   4.077   5.384
 5068SOL     OW26831   2.682   0.520  18.898
 5068SOL    HW126832   2.640   0.435  18.887
 5068SOL    HW226833   2.691   0.554  18.809
 5069SOL     OW26834   4.636   2.802   1.382
 5069SOL    HW126835   4.603   2.805   1.472
 5069SOL    HW226836   4.562   2.829   1.328
 5070SOL     OW26837   4.673   0.747  27.359
 5070SOL    HW126838   4.581   0.725  27.374
 5070SOL    HW226839   4.698   0.692  27.284
 5071SOL     OW26840   2.835   2.162  27.716
 5071SOL    HW126841   2.811   2.195  27.630
 5071SOL    HW226842   2.754   2.125  27.751
 5072SOL     OW26843   0.450   3.799   8.778
 5072SOL    HW126844   0.419   3.862   8.713
 5072SOL    HW226845   0.411   3.829   8.860
 5073SOL     OW26846   3.744   2.851   5.508
 5073SOL    HW126847   3.807   2.895   5.451
 5073SOL    HW226848   3.760   2.758   5.494
 5074SOL     OW26849   4.152   0.030  25.874
 5074SOL    HW126850   4.184   0.080  25.799
 5074SOL    HW226851   4.221   0.037  25.940
 5075SOL     OW26852   1.777   3.126  23.900
 5075SOL    HW126853   1.819   3.045  23.929
 5075SOL    HW226854   1.711   3.143  23.967
 5076SOL     OW26855   0.582   1.137   5.495
 5076SOL    HW126856   0.637   1.081   5.440
 5076SOL    HW226857   0.639   1.162   5.568
 5077SOL     OW26858   1.994   3.932   2.537
 5077SOL    HW126859   1.994   3.924   2.442
 5077SOL    HW226860   2.010   3.843   2.569
 5078SOL     OW26861   0.711   0.628  22.640
 5078SOL    HW126862   0.625   0.658  22.611
 5078SOL    HW226863   0.756   0.604  22.559
 5079SOL     OW26864   3.165   3.532  26.927
 5079SOL    HW126865   3.177   3.598  26.859
 5079SOL    HW226866   3.077   3.497  26.912
 5080SOL     OW26867   4.726   2.363  20.967
 5080SOL    HW126868   4.688   2.299  21.027
 5080SOL    HW226869   4.657   2.429  20.956
 5081SOL     OW26870   0.615   1.026   2.240
 5081SOL    HW126871   0.573   1.005   2.156
 5081SOL    HW226872   0.602   1.120   2.251
 5082SOL     OW26873   3.347   1.371   6.220
 5082SOL    HW126874   3.439   1.361   6.245
 5082SOL    HW226875   3.346   1.355   6.126
 5083SOL     OW26876   1.460   2.651  26.667
 5083SOL    HW126877   1.500   2.642  26.753
 5083SOL    HW226878   1.408   2.731  26.673
 5084SOL     OW26879   0.998   3.057   5.985
 5084SOL    HW126880   1.035   3.003   6.055
 5084SOL    HW226881   0.937   2.999   5.939
 5085SOL     OW26882   2.030   3.971  20.908
 5085SOL    HW126883   1.947   3.983  20.953
 5085SOL    HW226884   2.093   3.955  20.978
 5086SOL     OW26885   4.152   0.027  24.363
 5086SOL    HW126886   4.212   0.101  24.376
 5086SOL    HW226887   4.121   0.037  24.273
 5087SOL     OW26888   3.722   4.436  21.093
 5087SOL    HW126889   3.811   4.406  21.111
 5087SOL    HW226890   3.734   4.520  21.049
 5088SOL     OW26891   0.594   3.455   3.360
 5088SOL    HW126892   0.679   3.413   3.370
 5088SOL    HW226893   0.614   3.547   3.343
 5089SOL     OW26894   1.635   2.685   9.393
 5089SOL    HW126895   1.596   2.598   9.398
 5089SOL    HW226896   1.580   2.732   9.331
 5090SOL     OW26897   3.847   0.421   8.954
 5090SOL    HW126898   3.885   0.497   8.998
 5090SOL    HW226899   3.799   0.375   9.023
 5091SOL     OW26900   4.257   1.243  25.762
 5091SOL    HW126901   4.176   1.232  25.712
 5091SOL    HW226902   4.327   1.228  25.698
 5092SOL     OW26903   3.564   0.647  27.761
 5092SOL    HW126904   3.549   0.603  27.845
 5092SOL    HW226905   3.513   0.727  27.766
 5093SOL     OW26906   2.964   3.858  20.341
 5093SOL    HW126907   3.044   3.807  20.352
 5093SOL    HW226908   2.924   3.822  20.262
 5094SOL     OW26909   4.533   1.048   4.860
 5094SOL    HW126910   4.594   1.113   4.825
 5094SOL    HW226911   4.578   1.011   4.936
 5095SOL     OW26912   1.026   1.960  27.149
 5095SOL    HW126913   1.063   2.030  27.203
 5095SOL    HW226914   1.088   1.950  27.077
 5096SOL     OW26915   0.191   2.585  23.042
 5096SOL    HW126916   0.229   2.509  22.998
 5096SOL    HW226917   0.132   2.623  22.977
 5097SOL     OW26918   1.847   2.214   1.764
 5097SOL    HW126919   1.867   2.134   1.813
 5097SOL    HW226920   1.918   2.221   1.700
 5098SOL     OW26921   3.841   4.618  17.103
 5098SOL    HW126922   3.794   4.583  17.178
 5098SOL    HW226923   3.931   4.630  17.134
 5099SOL     OW26924   3.625   3.158   9.376
 5099SOL    HW126925   3.694   3.136   9.314
 5099SOL    HW226926   3.592   3.073   9.406
 5100SOL     OW26927   3.006   0.226   0.228
 5100SOL    HW126928   3.038   0.311   0.197
 5100SOL    HW226929   2.945   0.247   0.298
 5101SOL     OW26930   1.297   0.787   9.723
 5101SOL    HW126931   1.242   0.710   9.736
 5101SOL    HW226932   1.270   0.822   9.638
 5102SOL     OW26933   2.376   2.277   5.092
 5102SOL    HW126934   2.419   2.284   5.007
 5102SOL    HW226935   2.401   2.357   5.139
 5103SOL     OW26936   1.625   0.805  27.342
 5103SOL    HW126937   1.718   0.828  27.349
 5103SOL    HW226938   1.607   0.808  27.248
 5104SOL     OW26939   1.276   2.788   5.204
 5104SOL    HW126940   1.329   2.744   5.138
 5104SOL    HW226941   1.187   2.786   5.168
 5105SOL     OW26942   4.643   1.854  19.842
 5105SOL    HW126943   4.576   1.813  19.787
 5105SOL    HW226944   4.724   1.844  19.792
 5106SOL     OW26945   4.242   4.226  22.862
 5106SOL    HW126946   4.203   4.278  22.792
 5106SOL    HW226947   4.202   4.140  22.854
 5107SOL     OW26948   1.063   4.660   8.031
 5107SOL    HW126949   1.061   4.733   8.092
 5107SOL    HW226950   0.971   4.638   8.018
 5108SOL     OW26951   0.811   0.525   9.326
 5108SOL    HW126952   0.851   0.576   9.397
 5108SOL    HW226953   0.757   0.460   9.370
 5109SOL     OW26954   3.520   4.067   2.019
 5109SOL    HW126955   3.595   4.116   2.054
 5109SOL    HW226956   3.519   3.985   2.069
 5110SOL     OW26957   0.263   1.278   0.474
 5110SOL    HW126958   0.221   1.363   0.458
 5110SOL    HW226959   0.304   1.288   0.560
 5111SOL     OW26960   4.093   2.753   6.401
 5111SOL    HW126961   4.188   2.764   6.397
 5111SOL    HW226962   4.070   2.713   6.317
 5112SOL     OW26963   4.312   0.777  27.004
 5112SOL    HW126964   4.381   0.738  26.950
 5112SOL    HW226965   4.348   0.776  27.093
 5113SOL     OW26966   1.955   3.662   8.475
 5113SOL    HW126967   2.017   3.593   8.450
 5113SOL    HW226968   1.978   3.683   8.566
 5114SOL     OW26969   3.254   0.738   2.841
 5114SOL    HW126970   3.201   0.812   2.811
 5114SOL    HW226971   3.248   0.742   2.936
 5115SOL     OW26972   0.088   0.735   5.191
 5115SOL    HW126973   0.151   0.665   5.175
 5115SOL    HW226974   0.066   0.727   5.284
 5116SOL     OW26975   3.415   4.329   7.153
 5116SOL    HW126976   3.403   4.420   7.180
 5116SOL    HW226977   3.331   4.287   7.172
 5117SOL     OW26978   3.036   1.972   0.508
 5117SOL    HW126979   3.111   1.919   0.533
 5117SOL    HW226980   2.961   1.913   0.517
 5118SOL     OW26981   3.027   1.451   8.170
 5118SOL    HW126982   3.109   1.501   8.168
 5118SOL    HW226983   3.043   1.381   8.233
 5119SOL     OW26984   0.574   1.896   7.352
 5119SOL    HW126985   0.581   1.972   7.294
 5119SOL    HW226986   0.649   1.841   7.329
 5120SOL     OW26987   2.727   2.512   4.134
 5120SOL    HW126988   2.709   2.599   4.097
 5120SOL    HW226989   2.807   2.524   4.186
 5121SOL     OW26990   2.259   0.232  28.092
 5121SOL    HW126991   2.210   0.212  28.012
 5121SOL    HW226992   2.274   0.147  28.133
 5122SOL     OW26993   3.062   2.380   3.307
 5122SOL    HW126994   3.088   2.361   3.217
 5122SOL    HW226995   3.092   2.470   3.322
 5123SOL     OW26996   1.485   0.703   6.474
 5123SOL    HW126997   1.486   0.670   6.564
 5123SOL    HW226998   1.445   0.790   6.481
 5124SOL     OW26999   3.542   2.923  23.540
 5124SOL    HW127000   3.550   2.828  23.547
 5124SOL    HW227001   3.450   2.937  23.518
 5125SOL     OW27002   2.032   1.184  27.935
 5125SOL    HW127003   2.119   1.219  27.955
 5125SOL    HW227004   2.029   1.100  27.981
 5126SOL     OW27005   2.200   3.823  25.977
 5126SOL    HW127006   2.195   3.887  26.048
 5126SOL    HW227007   2.185   3.739  26.019
 5127SOL     OW27008   3.263   2.634  22.138
 5127SOL    HW127009   3.203   2.685  22.084
 5127SOL    HW227010   3.274   2.552  22.090
 5128SOL     OW27011   0.236   0.445  22.993
 5128SOL    HW127012   0.268   0.530  23.024
 5128SOL    HW227013   0.144   0.443  23.019
 5129SOL     OW27014   1.137   1.363  27.004
 5129SOL    HW127015   1.065   1.369  27.067
 5129SOL    HW227016   1.126   1.439  26.947
 5130SOL     OW27017   2.358   0.703   1.742
 5130SOL    HW127018   2.342   0.664   1.828
 5130SOL    HW227019   2.271   0.710   1.703
 5131SOL     OW27020   1.546   2.979  20.653
 5131SOL    HW127021   1.469   2.995  20.599
 5131SOL    HW227022   1.607   3.049  20.630
 5132SOL     OW27023   2.929   1.401   0.290
 5132SOL    HW127024   2.984   1.432   0.362
 5132SOL    HW227025   2.891   1.480   0.252
 5133SOL     OW27026   0.058   4.150   4.287
 5133SOL    HW127027   4.766   4.134   4.226
 5133SOL    HW227028   0.124   4.085   4.262
 5134SOL     OW27029   2.624   2.660   4.700
 5134SOL    HW127030   2.680   2.598   4.746
 5134SOL    HW227031   2.572   2.701   4.769
 5135SOL     OW27032   3.387   2.707  26.699
 5135SOL    HW127033   3.360   2.794  26.670
 5135SOL    HW227034   3.374   2.708  26.794
 5136SOL     OW27035   2.250   3.864   8.807
 5136SOL    HW127036   2.308   3.821   8.744
 5136SOL    HW227037   2.167   3.875   8.760
 5137SOL     OW27038   2.980   4.412  19.219
 5137SOL    HW127039   3.074   4.418  19.233
 5137SOL    HW227040   2.948   4.502  19.228
 5138SOL     OW27041   1.542   0.577   2.142
 5138SOL    HW127042   1.565   0.555   2.052
 5138SOL    HW227043   1.451   0.607   2.137
 5139SOL     OW27044   0.820   1.272   4.949
 5139SOL    HW127045   0.824   1.317   5.033
 5139SOL    HW227046   0.728   1.274   4.924
 5140SOL     OW27047   2.760   3.633   5.077
 5140SOL    HW127048   2.777   3.563   5.013
 5140SOL    HW227049   2.839   3.687   5.075
 5141SOL     OW27050   0.981   2.629  18.419
 5141SOL    HW127051   1.069   2.664  18.435
 5141SOL    HW227052   0.994   2.535  18.410
 5142SOL     OW27053   1.358   2.484  10.620
 5142SOL    HW127054   1.424   2.547  10.650
 5142SOL    HW227055   1.399   2.439  10.547
 5143SOL     OW27056   2.365   4.699   2.711
 5143SOL    HW127057   2.315   4.649   2.646
 5143SOL    HW227058   2.434   4.639   2.739
 5144SOL     OW27059   4.720   3.770  25.088
 5144SOL    HW127060   4.670   3.690  25.075
 5144SOL    HW227061   4.665   3.839  25.051
 5145SOL     OW27062   3.984   2.740  26.883
 5145SOL    HW127063   4.025   2.804  26.941
 5145SOL    HW227064   3.915   2.701  26.937
 5146SOL     OW27065   4.227   2.962  24.840
 5146SOL    HW127066   4.284   3.037  24.859
 5146SOL    HW227067   4.148   2.978  24.892
 5147SOL     OW27068   2.662   4.378  25.897
 5147SOL    HW127069   2.656   4.292  25.856
 5147SOL    HW227070   2.579   4.421  25.876
 5148SOL     OW27071   0.843   0.227  24.433
 5148SOL    HW127072   0.797   0.216  24.516
 5148SOL    HW227073   0.895   0.147  24.424
 5149SOL     OW27074   2.486   4.560  27.574
 5149SOL    HW127075   2.390   4.564  27.571
 5149SOL    HW227076   2.505   4.487  27.633
 5150SOL     OW27077   0.069   2.888   5.538
 5150SOL    HW127078   0.048   2.830   5.465
 5150SOL    HW227079   0.030   2.846   5.614
 5151SOL     OW27080   0.931   3.346  17.045
 5151SOL    HW127081   0.947   3.392  17.127
 5151SOL    HW227082   1.017   3.338  17.004
 5152SOL     OW27083   0.219   0.161  21.906
 5152SOL    HW127084   0.209   0.256  21.904
 5152SOL    HW227085   0.178   0.131  21.825
 5153SOL     OW27086   0.524   4.290  28.288
 5153SOL    HW127087   0.496   4.380  28.304
 5153SOL    HW227088   0.548   4.289  28.195
 5154SOL     OW27089   4.081   0.225  20.471
 5154SOL    HW127090   4.087   0.222  20.567
 5154SOL    HW227091   4.046   0.139  20.447
 5155SOL     OW27092   0.002   1.778   2.999
 5155SOL    HW127093   4.764   1.742   3.086
 5155SOL    HW227094   4.768   1.705   2.939
 5156SOL     OW27095   1.018   3.351   0.799
 5156SOL    HW127096   0.980   3.297   0.730
 5156SOL    HW227097   1.023   3.293   0.875
 5157SOL     OW27098   4.134   0.952   8.496
 5157SOL    HW127099   4.195   0.911   8.434
 5157SOL    HW227100   4.077   0.881   8.525
 5158SOL     OW27101   2.224   0.902  18.271
 5158SOL    HW127102   2.160   0.848  18.318
 5158SOL    HW227103   2.197   0.992  18.290
 5159SOL     OW27104   2.333   1.859  22.087
 5159SOL    HW127105   2.357   1.855  21.994
 5159SOL    HW227106   2.382   1.787  22.128
 5160SOL     OW27107   0.458   1.637   0.723
 5160SOL    HW127108   0.501   1.705   0.672
 5160SOL    HW227109   0.491   1.649   0.812
 5161SOL     OW27110   0.753   0.998   7.181
 5161SOL    HW127111   0.744   1.088   7.211
 5161SOL    HW227112   0.826   1.001   7.119
 5162SOL     OW27113   0.785   2.031  25.471
 5162SOL    HW127114   0.838   1.977  25.530
 5162SOL    HW227115   0.824   2.019  25.385
 5163SOL     OW27116   3.984   0.518  19.599
 5163SOL    HW127117   3.897   0.489  19.626
 5163SOL    HW227118   3.967   0.586  19.533
 5164SOL     OW27119   1.244   3.943  27.459
 5164SOL    HW127120   1.182   3.896  27.403
 5164SOL    HW227121   1.301   3.875  27.494
 5165SOL     OW27122   4.072   4.712  21.097
 5165SOL    HW127123   4.000   4.743  21.152
 5165SOL    HW227124   4.030   4.687  21.015
 5166SOL     OW27125   0.808   2.803  21.041
 5166SOL    HW127126   0.748   2.853  21.097
 5166SOL    HW227127   0.894   2.818  21.079
 5167SOL     OW27128   1.413   2.263  20.531
 5167SOL    HW127129   1.487   2.284  20.588
 5167SOL    HW227130   1.394   2.171  20.550
 5168SOL     OW27131   1.800   4.731   1.946
 5168SOL    HW127132   1.741   4.689   1.884
 5168SOL    HW227133   1.804   4.671   2.021
 5169SOL     OW27134   3.169   3.784   4.509
 5169SOL    HW127135   3.258   3.807   4.536
 5169SOL    HW227136   3.157   3.829   4.425
 5170SOL     OW27137   1.047   3.691  21.820
 5170SOL    HW127138   1.078   3.613  21.774
 5170SOL    HW227139   1.126   3.743  21.834
 5171SOL     OW27140   0.522   2.271   0.481
 5171SOL    HW127141   0.484   2.318   0.406
 5171SOL    HW227142   0.478   2.309   0.557
 5172SOL     OW27143   1.705   3.626  10.820
 5172SOL    HW127144   1.661   3.684  10.757
 5172SOL    HW227145   1.659   3.542  10.812
 5173SOL     OW27146   3.955   1.501   9.543
 5173SOL    HW127147   3.897   1.533   9.473
 5173SOL    HW227148   3.936   1.407   9.549
 5174SOL     OW27149   0.794   4.566   7.619
 5174SOL    HW127150   0.716   4.527   7.579
 5174SOL    HW227151   0.789   4.659   7.595
 5175SOL     OW27152   0.097   4.515   1.344
 5175SOL    HW127153   0.081   4.609   1.349
 5175SOL    HW227154   0.010   4.476   1.347
 5176SOL     OW27155   0.033   1.773   3.569
 5176SOL    HW127156   0.048   1.866   3.554
 5176SOL    HW227157   0.121   1.736   3.581
 5177SOL     OW27158   2.919   3.602   0.796
 5177SOL    HW127159   2.850   3.667   0.790
 5177SOL    HW227160   2.984   3.630   0.732
 5178SOL     OW27161   3.374   2.421   8.466
 5178SOL    HW127162   3.410   2.457   8.547
 5178SOL    HW227163   3.449   2.415   8.407
 5179SOL     OW27164   3.069   1.796   4.593
 5179SOL    HW127165   3.049   1.885   4.622
 5179SOL    HW227166   3.081   1.747   4.674
 5180SOL     OW27167   1.947   1.882   4.790
 5180SOL    HW127168   1.970   1.953   4.731
 5180SOL    HW227169   1.893   1.923   4.857
 5181SOL     OW27170   2.620   4.462  24.431
 5181SOL    HW127171   2.636   4.455  24.337
 5181SOL    HW227172   2.707   4.476  24.469
 5182SOL     OW27173   1.887   0.702  26.920
 5182SOL    HW127174   1.963   0.752  26.890
 5182SOL    HW227175   1.903   0.613  26.889
 5183SOL     OW27176   3.579   3.170   7.412
 5183SOL    HW127177   3.545   3.130   7.492
 5183SOL    HW227178   3.646   3.231   7.442
 5184SOL     OW27179   2.002   1.887  25.185
 5184SOL    HW127180   2.067   1.921  25.246
 5184SOL    HW227181   2.052   1.867  25.106
 5185SOL     OW27182   0.589   4.648   6.121
 5185SOL    HW127183   0.582   4.736   6.157
 5185SOL    HW227184   0.570   4.590   6.195
 5186SOL     OW27185   2.020   3.136   8.368
 5186SOL    HW127186   2.069   3.122   8.449
 5186SOL    HW227187   1.929   3.121   8.392
 5187SOL     OW27188   4.082   2.734   3.865
 5187SOL    HW127189   4.032   2.784   3.800
 5187SOL    HW227190   4.047   2.645   3.858
 5188SOL     OW27191   1.396   0.247  21.004
 5188SOL    HW127192   1.445   0.255  20.922
 5188SOL    HW227193   1.427   0.320  21.058
 5189SOL     OW27194   1.606   1.261   1.168
 5189SOL    HW127195   1.523   1.281   1.124
 5189SOL    HW227196   1.633   1.177   1.132
 5190SOL     OW27197   0.371   1.809   7.980
 5190SOL    HW127198   0.348   1.718   7.960
 5190SOL    HW227199   0.465   1.815   7.962
 5191SOL     OW27200   1.312   1.590   3.193
 5191SOL    HW127201   1.292   1.529   3.264
 5191SOL    HW227202   1.400   1.622   3.212
 5192SOL     OW27203   1.438   0.968   0.712
 5192SOL    HW127204   1.445   0.968   0.617
 5192SOL    HW227205   1.511   1.022   0.741
 5193SOL     OW27206   1.696   0.371   7.338
 5193SOL    HW127207   1.718   0.462   7.319
 5193SOL    HW227208   1.699   0.328   7.253
 5194SOL     OW27209   2.006   2.630   1.884
 5194SOL    HW127210   2.077   2.694   1.880
 5194SOL    HW227211   1.999   2.597   1.794
 5195SOL     OW27212   2.298   0.771  25.085
 5195SOL    HW127213   2.327   0.755  25.175
 5195SOL    HW227214   2.373   0.747  25.031
 5196SOL     OW27215   0.469   3.063  26.463
 5196SOL    HW127216   0.448   2.992  26.524
 5196SOL    HW227217   0.399   3.060  26.398
 5197SOL     OW27218   2.268   0.676  23.230
 5197SOL    HW127219   2.192   0.733  23.240
 5197SOL    HW227220   2.231   0.589  23.219
 5198SOL     OW27221   2.222   0.496  21.775
 5198SOL    HW127222   2.177   0.580  21.762
 5198SOL    HW227223   2.299   0.502  21.718
 5199SOL     OW27224   3.326   3.171  21.683
 5199SOL    HW127225   3.376   3.192  21.604
 5199SOL    HW227226   3.387   3.189  21.755
 5200SOL     OW27227   1.371   4.405  22.502
 5200SOL    HW127228   1.380   4.364  22.588
 5200SOL    HW227229   1.336   4.336  22.446
 5201SOL     OW27230   2.642   4.104   2.086
 5201SOL    HW127231   2.732   4.076   2.104
 5201SOL    HW227232   2.644   4.199   2.099
 5202SOL     OW27233   3.969   0.228   4.130
 5202SOL    HW127234   3.980   0.141   4.091
 5202SOL    HW227235   3.888   0.262   4.092
 5203SOL     OW27236   1.732   0.688   6.846
 5203SOL    HW127237   1.764   0.751   6.781
 5203SOL    HW227238   1.798   0.689   6.915
 5204SOL     OW27239   3.035   4.653   6.164
 5204SOL    HW127240   2.953   4.687   6.199
 5204SOL    HW227241   3.011   4.569   6.124
 5205SOL     OW27242   2.852   1.559  26.034
 5205SOL    HW127243   2.833   1.569  25.941
 5205SOL    HW227244   2.767   1.569  26.077
 5206SOL     OW27245   1.090   2.336   5.101
 5206SOL    HW127246   1.049   2.374   5.178
 5206SOL    HW227247   1.113   2.411   5.046
 5207SOL     OW27248   0.584   2.671   1.314
 5207SOL    HW127249   0.632   2.731   1.371
 5207SOL    HW227250   0.492   2.683   1.339
 5208SOL     OW27251   3.344   0.029   6.863
 5208SOL    HW127252   3.416   0.026   6.925
 5208SOL    HW227253   3.370   4.750   6.793
 5209SOL     OW27254   3.114   1.642  19.973
 5209SOL    HW127255   3.165   1.606  20.046
 5209SOL    HW227256   3.049   1.575  19.954
 5210SOL     OW27257   3.775   1.845  27.574
 5210SOL    HW127258   3.826   1.836  27.654
 5210SOL    HW227259   3.771   1.756  27.539
 5211SOL     OW27260   0.182   4.612  28.028
 5211SOL    HW127261   0.243   4.685  28.018
 5211SOL    HW227262   0.230   4.548  28.081
 5212SOL     OW27263   2.180   4.283   3.480
 5212SOL    HW127264   2.148   4.327   3.401
 5212SOL    HW227265   2.125   4.318   3.550
 5213SOL     OW27266   2.518   4.374  27.758
 5213SOL    HW127267   2.522   4.424  27.839
 5213SOL    HW227268   2.527   4.283  27.786
 5214SOL     OW27269   0.733   1.954  23.072
 5214SOL    HW127270   0.798   1.884  23.076
 5214SOL    HW227271   0.776   2.023  23.021
 5215SOL     OW27272   3.420   1.241  20.441
 5215SOL    HW127273   3.342   1.294  20.458
 5215SOL    HW227274   3.412   1.215  20.349
 5216SOL     OW27275   1.358   1.644  22.641
 5216SOL    HW127276   1.269   1.665  22.668
 5216SOL    HW227277   1.384   1.717  22.585
 5217SOL     OW27278   1.519   3.143  20.915
 5217SOL    HW127279   1.565   3.077  20.863
 5217SOL    HW227280   1.473   3.093  20.982
 5218SOL     OW27281   3.759   0.077   9.195
 5218SOL    HW127282   3.718   0.038   9.273
 5218SOL    HW227283   3.853   0.070   9.211
 5219SOL     OW27284   3.875   0.232  10.516
 5219SOL    HW127285   3.880   0.318  10.558
 5219SOL    HW227286   3.937   0.237  10.443
 5220SOL     OW27287   4.569   0.750   0.727
 5220SOL    HW127288   4.512   0.680   0.697
 5220SOL    HW227289   4.528   0.830   0.695
 5221SOL     OW27290   0.658   1.704   6.227
 5221SOL    HW127291   0.580   1.649   6.234
 5221SOL    HW227292   0.625   1.791   6.205
 5222SOL     OW27293   1.337   1.724  23.556
 5222SOL    HW127294   1.282   1.683  23.622
 5222SOL    HW227295   1.293   1.807  23.537
 5223SOL     OW27296   1.030   2.705   7.349
 5223SOL    HW127297   0.967   2.767   7.385
 5223SOL    HW227298   1.110   2.720   7.399
 5224SOL     OW27299   2.106   2.375  20.940
 5224SOL    HW127300   2.200   2.394  20.937
 5224SOL    HW227301   2.070   2.419  20.863
 5225SOL     OW27302   3.403   3.356  20.199
 5225SOL    HW127303   3.372   3.267  20.183
 5225SOL    HW227304   3.349   3.388  20.271
 5226SOL     OW27305   1.322   3.793   2.308
 5226SOL    HW127306   1.309   3.883   2.337
 5226SOL    HW227307   1.414   3.788   2.283
 5227SOL     OW27308   1.690   4.134  23.339
 5227SOL    HW127309   1.713   4.225  23.322
 5227SOL    HW227310   1.771   4.094  23.371
 5228SOL     OW27311   2.845   2.355   6.714
 5228SOL    HW127312   2.816   2.430   6.766
 5228SOL    HW227313   2.923   2.323   6.759
 5229SOL     OW27314   0.491   0.980  22.827
 5229SOL    HW127315   0.542   0.923  22.884
 5229SOL    HW227316   0.424   1.017  22.885
 5230SOL     OW27317   2.719   4.694  10.051
 5230SOL    HW127318   2.672   4.775  10.072
 5230SOL    HW227319   2.783   4.685  10.122
 5231SOL     OW27320   1.127   1.680   4.880
 5231SOL    HW127321   1.187   1.643   4.815
 5231SOL    HW227322   1.141   1.627   4.958
 5232SOL     OW27323   1.757   4.070  24.959
 5232SOL    HW127324   1.718   4.111  25.037
 5232SOL    HW227325   1.821   4.008  24.994
 5233SOL     OW27326   1.435   1.318   3.056
 5233SOL    HW127327   1.340   1.314   3.065
 5233SOL    HW227328   1.449   1.361   2.972
 5234SOL     OW27329   0.042   1.680  27.563
 5234SOL    HW127330   0.090   1.757  27.594
 5234SOL    HW227331   0.049   1.617  27.634
 5235SOL     OW27332   3.396   1.272  20.738
 5235SOL    HW127333   3.429   1.293  20.651
 5235SOL    HW227334   3.392   1.176  20.740
 5236SOL     OW27335   2.137   1.146  22.058
 5236SOL    HW127336   2.107   1.186  21.976
 5236SOL    HW227337   2.232   1.156  22.057
 5237SOL     OW27338   0.158   0.947  23.961
 5237SOL    HW127339   0.227   0.889  23.993
 5237SOL    HW227340   0.091   0.945  24.029
 5238SOL     OW27341   3.284   2.818   7.708
 5238SOL    HW127342   3.368   2.847   7.745
 5238SOL    HW227343   3.250   2.895   7.662
 5239SOL     OW27344   4.623   2.292   5.612
 5239SOL    HW127345   4.535   2.267   5.583
 5239SOL    HW227346   4.680   2.222   5.580
 5240SOL     OW27347   4.581   4.045   0.279
 5240SOL    HW127348   4.609   3.957   0.255
 5240SOL    HW227349   4.548   4.082   0.197
 5241SOL     OW27350   2.334   1.260   0.731
 5241SOL    HW127351   2.246   1.276   0.697
 5241SOL    HW227352   2.389   1.322   0.683
 5242SOL     OW27353   0.566   0.330  25.385
 5242SOL    HW127354   0.635   0.309  25.448
 5242SOL    HW227355   0.599   0.406  25.337
 5243SOL     OW27356   2.546   0.092  21.614
 5243SOL    HW127357   2.535   0.008  21.659
 5243SOL    HW227358   2.467   0.101  21.560
 5244SOL     OW27359   4.598   2.570  24.677
 5244SOL    HW127360   4.658   2.521  24.620
 5244SOL    HW227361   4.589   2.655  24.634
 5245SOL     OW27362   4.334   0.933  17.524
 5245SOL    HW127363   4.370   0.873  17.459
 5245SOL    HW227364   4.252   0.963  17.486
 5246SOL     OW27365   3.923   0.414   2.424
 5246SOL    HW127366   3.831   0.418   2.397
 5246SOL    HW227367   3.926   0.343   2.488
 5247SOL     OW27368   3.910   3.754  26.014
 5247SOL    HW127369   3.935   3.815  25.944
 5247SOL    HW227370   3.814   3.753  26.012
 5248SOL     OW27371   0.291   2.807  20.306
 5248SOL    HW127372   0.307   2.818  20.400
 5248SOL    HW227373   0.357   2.743  20.278
 5249SOL     OW27374   1.350   0.285  19.311
 5249SOL    HW127375   1.340   0.333  19.229
 5249SOL    HW227376   1.271   0.305  19.361
 5250SOL     OW27377   1.760   3.225   8.667
 5250SOL    HW127378   1.689   3.245   8.728
 5250SOL    HW227379   1.840   3.237   8.718
 5251SOL     OW27380   0.257   0.176  23.410
 5251SOL    HW127381   0.180   0.196  23.463
 5251SOL    HW227382   0.313   0.253  23.420
 5252SOL     OW27383   4.667   0.926   2.391
 5252SOL    HW127384   4.746   0.888   2.351
 5252SOL    HW227385   4.666   1.017   2.361
 5253SOL     OW27386   2.010   3.219   9.769
 5253SOL    HW127387   1.937   3.160   9.786
 5253SOL    HW227388   1.988   3.263   9.687
 5254SOL     OW27389   4.310   4.253   3.178
 5254SOL    HW127390   4.278   4.199   3.250
 5254SOL    HW227391   4.403   4.232   3.173
 5255SOL     OW27392   1.353   1.981  19.136
 5255SOL    HW127393   1.317   2.067  19.114
 5255SOL    HW227394   1.308   1.956  19.217
 5256SOL     OW27395   0.964   4.180   2.219
 5256SOL    HW127396   1.005   4.137   2.294
 5256SOL    HW227397   0.936   4.265   2.252
 5257SOL     OW27398   0.779   0.004  10.484
 5257SOL    HW127399   0.832   0.041  10.555
 5257SOL    HW227400   0.792   0.064  10.410
 5258SOL     OW27401   1.770   4.716  27.029
 5258SOL    HW127402   1.858   4.688  27.054
 5258SOL    HW227403   1.780   4.748  26.939
 5259SOL     OW27404   1.903   2.797  28.407
 5259SOL    HW127405   1.990   2.757  28.402
 5259SOL    HW227406   1.904   2.864  28.338
 5260SOL     OW27407   2.885   3.386   5.898
 5260SOL    HW127408   2.810   3.399   5.840
 5260SOL    HW227409   2.854   3.324   5.964
 5261SOL     OW27410   2.169   0.871  25.532
 5261SOL    HW127411   2.170   0.782  25.567
 5261SOL    HW227412   2.220   0.922  25.595
 5262SOL     OW27413   0.251   2.908  22.912
 5262SOL    HW127414   0.247   2.908  22.816
 5262SOL    HW227415   0.161   2.893  22.940
 5263SOL     OW27416   0.299   1.268   1.647
 5263SOL    HW127417   0.312   1.348   1.596
 5263SOL    HW227418   0.206   1.270   1.671
 5264SOL     OW27419   1.977   1.006  23.749
 5264SOL    HW127420   1.894   1.026  23.707
 5264SOL    HW227421   2.026   1.088  23.746
 5265SOL     OW27422   0.707   3.742   2.102
 5265SOL    HW127423   0.790   3.767   2.143
 5265SOL    HW227424   0.697   3.804   2.030
 5266SOL     OW27425   2.152   4.129  21.694
 5266SOL    HW127426   2.123   4.206  21.644
 5266SOL    HW227427   2.071   4.087  21.723
 5267SOL     OW27428   4.639   1.955  28.213
 5267SOL    HW127429   4.576   1.984  28.147
 5267SOL    HW227430   4.722   1.992  28.185
 5268SOL     OW27431   4.612   2.226  22.672
 5268SOL    HW127432   4.648   2.293  22.615
 5268SOL    HW227433   4.668   2.228  22.750
 5269SOL     OW27434   4.742   2.392   2.728
 5269SOL    HW127435   4.716   2.318   2.782
 5269SOL    HW227436   4.705   2.469   2.772
 5270SOL     OW27437   3.437   3.928  25.906
 5270SOL    HW127438   3.492   4.001  25.936
 5270SOL    HW227439   3.355   3.969  25.878
 5271SOL     OW27440   4.125   2.232   0.973
 5271SOL    HW127441   4.131   2.171   0.899
 5271SOL    HW227442   4.121   2.176   1.050
 5272SOL     OW27443   0.584   0.051  18.638
 5272SOL    HW127444   0.584   4.764  18.570
 5272SOL    HW227445   0.674   0.082  18.642
 5273SOL     OW27446   3.500   0.000  23.654
 5273SOL    HW127447   3.569   0.065  23.670
 5273SOL    HW227448   3.436   0.046  23.600
 5274SOL     OW27449   4.545   1.763  10.190
 5274SOL    HW127450   4.614   1.711  10.232
 5274SOL    HW227451   4.477   1.700  10.168
 5275SOL     OW27452   0.162   3.758   9.839
 5275SOL    HW127453   0.069   3.746   9.819
 5275SOL    HW227454   0.208   3.710   9.770
 5276SOL     OW27455   2.092   2.616   1.049
 5276SOL    HW127456   2.181   2.594   1.077
 5276SOL    HW227457   2.078   2.565   0.969
 5277SOL     OW27458   2.504   0.794  22.433
 5277SOL    HW127459   2.478   0.876  22.390
 5277SOL    HW227460   2.490   0.727  22.366
 5278SOL     OW27461   0.064   3.034  18.141
 5278SOL    HW127462   0.044   2.943  18.162
 5278SOL    HW227463   0.160   3.036  18.135
 5279SOL     OW27464   3.167   4.486  23.500
 5279SOL    HW127465   3.114   4.498  23.421
 5279SOL    HW227466   3.257   4.487  23.468
 5280SOL     OW27467   1.889   2.314   3.115
 5280SOL    HW127468   1.929   2.390   3.158
 5280SOL    HW227469   1.814   2.350   3.067
 5281SOL     OW27470   2.886   0.156   5.568
 5281SOL    HW127471   2.865   0.063   5.556
 5281SOL    HW227472   2.810   0.192   5.613
 5282SOL     OW27473   2.142   0.655  22.136
 5282SOL    HW127474   2.111   0.660  22.227
 5282SOL    HW227475   2.174   0.743  22.117
 5283SOL     OW27476   3.851   0.234  10.196
 5283SOL    HW127477   3.779   0.272  10.246
 5283SOL    HW227478   3.819   0.148  10.169
 5284SOL     OW27479   1.579   1.914  23.678
 5284SOL    HW127480   1.498   1.865  23.694
 5284SOL    HW227481   1.565   1.958  23.594
 5285SOL     OW27482   3.529   4.539  27.424
 5285SOL    HW127483   3.524   4.572  27.514
 5285SOL    HW227484   3.438   4.530  27.396
 5286SOL     OW27485   0.059   0.954   9.419
 5286SOL    HW127486   0.016   0.878   9.458
 5286SOL    HW227487   0.074   1.013   9.492
 5287SOL     OW27488   2.137   3.962  28.089
 5287SOL    HW127489   2.160   3.900  28.158
 5287SOL    HW227490   2.046   3.940  28.067
 5288SOL     OW27491   1.368   1.048  18.154
 5288SOL    HW127492   1.349   1.062  18.247
 5288SOL    HW227493   1.457   1.081  18.142
 5289SOL     OW27494   0.543   3.723  19.835
 5289SOL    HW127495   0.454   3.690  19.821
 5289SOL    HW227496   0.544   3.753  19.926
 5290SOL     OW27497   1.731   3.441   1.190
 5290SOL    HW127498   1.680   3.419   1.268
 5290SOL    HW227499   1.681   3.404   1.117
 5291SOL     OW27500   3.125   0.731   8.057
 5291SOL    HW127501   3.208   0.733   8.104
 5291SOL    HW227502   3.114   0.820   8.023
 5292SOL     OW27503   4.215   3.752  17.482
 5292SOL    HW127504   4.308   3.766  17.501
 5292SOL    HW227505   4.198   3.805  17.404
 5293SOL     OW27506   2.163   1.577  20.576
 5293SOL    HW127507   2.134   1.528  20.499
 5293SOL    HW227508   2.258   1.579  20.569
 5294SOL     OW27509   4.725   4.610  22.646
 5294SOL    HW127510   4.780   4.536  22.620
 5294SOL    HW227511   4.644   4.570  22.679
 5295SOL     OW27512   1.485   3.710   9.334
 5295SOL    HW127513   1.405   3.759   9.314
 5295SOL    HW227514   1.552   3.751   9.280
 5296SOL     OW27515   1.432   3.174   4.850
 5296SOL    HW127516   1.420   3.247   4.911
 5296SOL    HW227517   1.417   3.213   4.764
 5297SOL     OW27518   1.103   1.477   0.460
 5297SOL    HW127519   1.184   1.485   0.409
 5297SOL    HW227520   1.063   1.564   0.456
 5298SOL     OW27521   2.766   0.653   2.041
 5298SOL    HW127522   2.857   0.682   2.032
 5298SOL    HW227523   2.716   0.713   1.986
 5299SOL     OW27524   2.533   4.493  10.216
 5299SOL    HW127525   2.596   4.500  10.287
 5299SOL    HW227526   2.587   4.481  10.138
 5300SOL     OW27527   4.399   2.408  25.642
 5300SOL    HW127528   4.490   2.395  25.617
 5300SOL    HW227529   4.349   2.382  25.565
 5301SOL     OW27530   0.357   2.186  21.023
 5301SOL    HW127531   0.309   2.107  21.046
 5301SOL    HW227532   0.289   2.247  20.993
 5302SOL     OW27533   1.624   3.955   8.906
 5302SOL    HW127534   1.540   3.970   8.862
 5302SOL    HW227535   1.685   4.016   8.864
 5303SOL     OW27536   0.706   4.321   4.059
 5303SOL    HW127537   0.727   4.250   3.998
 5303SOL    HW227538   0.791   4.347   4.095
 5304SOL     OW27539   4.266   1.473  23.263
 5304SOL    HW127540   4.334   1.536  23.285
 5304SOL    HW227541   4.309   1.388  23.268
 5305SOL     OW27542   0.051   3.666  24.404
 5305SOL    HW127543   0.115   3.703  24.343
 5305SOL    HW227544   4.747   3.675  24.360
 5306SOL     OW27545   2.330   0.370  11.457
 5306SOL    HW127546   2.269   0.321  11.513
 5306SOL    HW227547   2.323   0.461  11.487
 5307SOL     OW27548   0.380   3.869   4.624
 5307SOL    HW127549   0.341   3.782   4.620
 5307SOL    HW227550   0.427   3.877   4.541
 5308SOL     OW27551   1.251   0.414  20.322
 5308SOL    HW127552   1.238   0.321  20.341
 5308SOL    HW227553   1.272   0.417  20.229
 5309SOL     OW27554   3.084   0.285   1.874
 5309SOL    HW127555   3.011   0.328   1.829
 5309SOL    HW227556   3.093   0.201   1.829
 5310SOL     OW27557   1.591   0.691   6.144
 5310SOL    HW127558   1.569   0.698   6.237
 5310SOL    HW227559   1.603   0.781   6.115
 5311SOL     OW27560   4.090   3.245   2.602
 5311SOL    HW127561   4.090   3.188   2.525
 5311SOL    HW227562   4.166   3.301   2.590
 5312SOL     OW27563   2.041   3.377  17.722
 5312SOL    HW127564   2.104   3.340  17.660
 5312SOL    HW227565   2.092   3.438  17.775
 5313SOL     OW27566   0.235   2.887   2.171
 5313SOL    HW127567   0.251   2.858   2.261
 5313SOL    HW227568   0.170   2.957   2.179
 5314SOL     OW27569   4.642   3.590  26.442
 5314SOL    HW127570   4.693   3.671  26.442
 5314SOL    HW227571   4.699   3.525  26.400
 5315SOL     OW27572   1.630   0.621  24.918
 5315SOL    HW127573   1.694   0.596  24.851
 5315SOL    HW227574   1.660   0.576  24.997
 5316SOL     OW27575   0.276   1.689  24.885
 5316SOL    HW127576   0.279   1.637  24.805
 5316SOL    HW227577   0.248   1.776  24.856
 5317SOL     OW27578   3.268   4.736  21.654
 5317SOL    HW127579   3.318   4.664  21.693
 5317SOL    HW227580   3.305   4.746  21.566
 5318SOL     OW27581   0.741   0.856   3.865
 5318SOL    HW127582   0.754   0.950   3.874
 5318SOL    HW227583   0.829   0.820   3.856
 5319SOL     OW27584   0.835   0.279   7.052
 5319SOL    HW127585   0.843   0.192   7.012
 5319SOL    HW227586   0.878   0.271   7.137
 5320SOL     OW27587   3.496   2.437   9.775
 5320SOL    HW127588   3.408   2.475   9.775
 5320SOL    HW227589   3.546   2.492   9.836
 5321SOL     OW27590   1.896   0.235  27.222
 5321SOL    HW127591   1.909   0.273  27.309
 5321SOL    HW227592   1.809   0.196  27.225
 5322SOL     OW27593   3.497   2.619  23.898
 5322SOL    HW127594   3.478   2.711  23.878
 5322SOL    HW227595   3.425   2.591  23.955
 5323SOL     OW27596   4.462   1.511   7.568
 5323SOL    HW127597   4.540   1.493   7.515
 5323SOL    HW227598   4.495   1.558   7.644
 5324SOL     OW27599   4.693   3.842   2.411
 5324SOL    HW127600   4.657   3.755   2.396
 5324SOL    HW227601   4.724   3.871   2.325
 5325SOL     OW27602   0.501   3.934   7.929
 5325SOL    HW127603   0.529   3.954   8.018
 5325SOL    HW227604   0.407   3.951   7.928
 5326SOL     OW27605   2.921   0.321   0.574
 5326SOL    HW127606   2.923   0.338   0.668
 5326SOL    HW227607   3.001   0.271   0.556
 5327SOL     OW27608   2.207   2.291  21.554
 5327SOL    HW127609   2.264   2.360  21.588
 5327SOL    HW227610   2.182   2.322  21.467
 5328SOL     OW27611   0.843   3.392  26.977
 5328SOL    HW127612   0.911   3.459  26.985
 5328SOL    HW227613   0.851   3.360  26.887
 5329SOL     OW27614   3.814   0.975   3.625
 5329SOL    HW127615   3.789   0.949   3.536
 5329SOL    HW227616   3.905   0.947   3.634
 5330SOL     OW27617   2.581   2.053  27.760
 5330SOL    HW127618   2.568   1.975  27.706
 5330SOL    HW227619   2.565   2.126  27.701
 5331SOL     OW27620   1.431   1.756  25.942
 5331SOL    HW127621   1.438   1.748  25.847
 5331SOL    HW227622   1.474   1.839  25.962
 5332SOL     OW27623   3.893   3.797  24.511
 5332SOL    HW127624   3.881   3.785  24.605
 5332SOL    HW227625   3.964   3.738  24.487
 5333SOL     OW27626   3.285   0.854  17.959
 5333SOL    HW127627   3.342   0.798  18.013
 5333SOL    HW227628   3.273   0.933  18.011
 5334SOL     OW27629   2.763   4.515   1.668
 5334SOL    HW127630   2.696   4.583   1.675
 5334SOL    HW227631   2.845   4.559   1.689
 5335SOL     OW27632   2.322   3.630  26.696
 5335SOL    HW127633   2.234   3.604  26.724
 5335SOL    HW227634   2.315   3.725  26.683
 5336SOL     OW27635   1.283   3.874  10.935
 5336SOL    HW127636   1.297   3.860  11.029
 5336SOL    HW227637   1.227   3.951  10.930
 5337SOL     OW27638   2.765   2.603   2.784
 5337SOL    HW127639   2.734   2.527   2.834
 5337SOL    HW227640   2.761   2.574   2.693
 5338SOL     OW27641   0.928   0.538  22.146
 5338SOL    HW127642   1.003   0.593  22.166
 5338SOL    HW227643   0.887   0.521  22.231
 5339SOL     OW27644   0.457   2.007   1.372
 5339SOL    HW127645   0.423   2.055   1.447
 5339SOL    HW227646   0.410   2.043   1.297
 5340SOL     OW27647   0.640   0.885  25.275
 5340SOL    HW127648   0.547   0.863  25.264
 5340SOL    HW227649   0.657   0.951  25.207
 5341SOL     OW27650   4.207   3.891   1.822
 5341SOL    HW127651   4.296   3.898   1.788
 5341SOL    HW227652   4.173   3.809   1.785
 5342SOL     OW27653   2.764   2.886  19.453
 5342SOL    HW127654   2.843   2.835  19.473
 5342SOL    HW227655   2.794   2.956  19.395
 5343SOL     OW27656   2.462   0.149   3.187
 5343SOL    HW127657   2.505   0.088   3.127
 5343SOL    HW227658   2.506   0.134   3.271
 5344SOL     OW27659   4.475   0.332  25.505
 5344SOL    HW127660   4.442   0.245  25.484
 5344SOL    HW227661   4.455   0.343  25.598
 5345SOL     OW27662   3.537   1.430   4.872
 5345SOL    HW127663   3.570   1.343   4.849
 5345SOL    HW227664   3.520   1.473   4.788
 5346SOL     OW27665   1.734   3.489  22.153
 5346SOL    HW127666   1.718   3.452  22.240
 5346SOL    HW227667   1.648   3.520  22.124
 5347SOL     OW27668   0.292   2.866  26.590
 5347SOL    HW127669   0.247   2.847  26.507
 5347SOL    HW227670   0.336   2.784  26.613
 5348SOL     OW27671   0.952   3.710   7.124
 5348SOL    HW127672   0.898   3.762   7.065
 5348SOL    HW227673   0.889   3.667   7.182
 5349SOL     OW27674   4.406   2.213  17.542
 5349SOL    HW127675   4.480   2.176  17.494
 5349SOL    HW227676   4.341   2.143  17.544
 5350SOL     OW27677   3.019   2.425  18.874
 5350SOL    HW127678   3.065   2.503  18.843
 5350SOL    HW227679   3.045   2.356  18.813
 5351SOL     OW27680   4.107   4.178   3.649
 5351SOL    HW127681   4.074   4.184   3.739
 5351SOL    HW227682   4.188   4.229   3.649
 5352SOL     OW27683   0.809   0.264   1.233
 5352SOL    HW127684   0.725   0.283   1.191
 5352SOL    HW227685   0.785   0.229   1.319
 5353SOL     OW27686   1.214   2.963   0.187
 5353SOL    HW127687   1.127   2.930   0.209
 5353SOL    HW227688   1.233   3.027   0.255
 5354SOL     OW27689   1.710   1.766  16.594
 5354SOL    HW127690   1.757   1.734  16.671
 5354SOL    HW227691   1.755   1.725  16.520
 5355SOL     OW27692   0.898   0.593   2.812
 5355SOL    HW127693   0.980   0.621   2.770
 5355SOL    HW227694   0.834   0.658   2.785
 5356SOL     OW27695   1.105   4.495  26.832
 5356SOL    HW127696   1.166   4.466  26.900
 5356SOL    HW227697   1.041   4.548  26.878
 5357SOL     OW27698   0.738   4.109  25.293
 5357SOL    HW127699   0.704   4.134  25.207
 5357SOL    HW227700   0.689   4.030  25.316
 5358SOL     OW27701   0.185   3.966  23.290
 5358SOL    HW127702   0.112   3.909  23.313
 5358SOL    HW227703   0.199   4.020  23.368
 5359SOL     OW27704   1.289   1.561   8.880
 5359SOL    HW127705   1.245   1.477   8.894
 5359SOL    HW227706   1.347   1.545   8.806
 5360SOL     OW27707   3.320   1.108  15.958
 5360SOL    HW127708   3.300   1.185  16.012
 5360SOL    HW227709   3.297   1.134  15.869
 5361SOL     OW27710   4.159   3.782  20.910
 5361SOL    HW127711   4.103   3.828  20.972
 5361SOL    HW227712   4.182   3.848  20.845
 5362SOL     OW27713   2.262   1.968   6.833
 5362SOL    HW127714   2.256   2.062   6.813
 5362SOL    HW227715   2.209   1.926   6.765
 5363SOL     OW27716   3.974   3.388   3.115
 5363SOL    HW127717   3.904   3.379   3.050
 5363SOL    HW227718   3.974   3.481   3.138
 5364SOL     OW27719   0.549   4.695   6.748
 5364SOL    HW127720   0.459   4.721   6.730
 5364SOL    HW227721   0.541   4.610   6.791
 5365SOL     OW27722   1.013   2.858  22.008
 5365SOL    HW127723   1.101   2.840  22.040
 5365SOL    HW227724   0.960   2.868  22.087
 5366SOL     OW27725   2.284   2.811  19.517
 5366SOL    HW127726   2.255   2.830  19.606
 5366SOL    HW227727   2.374   2.843  19.514
 5367SOL     OW27728   4.378   4.144  18.413
 5367SOL    HW127729   4.411   4.230  18.387
 5367SOL    HW227730   4.419   4.127  18.498
 5368SOL     OW27731   0.158   0.241   8.092
 5368SOL    HW127732   0.138   0.329   8.124
 5368SOL    HW227733   0.078   0.213   8.048
 5369SOL     OW27734   3.777   0.858   4.771
 5369SOL    HW127735   3.684   0.836   4.762
 5369SOL    HW227736   3.805   0.815   4.852
 5370SOL     OW27737   0.939   3.716  24.807
 5370SOL    HW127738   0.939   3.786  24.742
 5370SOL    HW227739   1.005   3.654  24.775
 5371SOL     OW27740   4.049   1.452   8.996
 5371SOL    HW127741   4.044   1.482   9.087
 5371SOL    HW227742   3.983   1.504   8.950
 5372SOL     OW27743   0.056   2.282   2.047
 5372SOL    HW127744   0.035   2.271   2.140
 5372SOL    HW227745   0.147   2.310   2.046
 5373SOL     OW27746   1.295   4.479  11.798
 5373SOL    HW127747   1.356   4.497  11.870
 5373SOL    HW227748   1.275   4.565  11.761
 5374SOL     OW27749   0.129   4.035  19.127
 5374SOL    HW127750   0.221   4.014  19.144
 5374SOL    HW227751   0.130   4.125  19.095
 5375SOL     OW27752   0.091   3.384  25.519
 5375SOL    HW127753   0.094   3.321  25.447
 5375SOL    HW227754   0.019   3.443  25.497
 5376SOL     OW27755   2.109   3.631   3.933
 5376SOL    HW127756   2.055   3.555   3.909
 5376SOL    HW227757   2.054   3.707   3.913
 5377SOL     OW27758   2.396   4.232   2.698
 5377SOL    HW127759   2.315   4.182   2.686
 5377SOL    HW227760   2.390   4.302   2.633
 5378SOL     OW27761   3.257   4.024   8.431
 5378SOL    HW127762   3.243   4.105   8.479
 5378SOL    HW227763   3.286   4.052   8.344
 5379SOL     OW27764   0.566   2.154  20.856
 5379SOL    HW127765   0.599   2.241  20.836
 5379SOL    HW227766   0.496   2.169  20.919
 5380SOL     OW27767   4.780   3.773  17.618
 5380SOL    HW127768   0.061   3.834  17.577
 5380SOL    HW227769   0.034   3.686  17.597
 5381SOL     OW27770   0.365   3.116  27.997
 5381SOL    HW127771   0.433   3.182  27.983
 5381SOL    HW227772   0.283   3.164  27.987
 5382SOL     OW27773   3.845   1.819   6.188
 5382SOL    HW127774   3.906   1.891   6.204
 5382SOL    HW227775   3.779   1.856   6.129
 5383SOL     OW27776   2.786   3.100   1.054
 5383SOL    HW127777   2.697   3.087   1.086
 5383SOL    HW227778   2.778   3.165   0.984
 5384SOL     OW27779   1.412   3.952   6.106
 5384SOL    HW127780   1.350   4.025   6.100
 5384SOL    HW227781   1.496   3.994   6.122
 5385SOL     OW27782   3.175   3.090  19.764
 5385SOL    HW127783   3.219   3.175  19.772
 5385SOL    HW227784   3.086   3.107  19.795
 5386SOL     OW27785   4.467   1.483  22.983
 5386SOL    HW127786   4.386   1.478  22.933
 5386SOL    HW227787   4.458   1.416  23.051
 5387SOL     OW27788   1.061   1.348   2.290
 5387SOL    HW127789   1.033   1.427   2.244
 5387SOL    HW227790   1.102   1.380   2.370
 5388SOL     OW27791   1.215   1.170   3.929
 5388SOL    HW127792   1.165   1.229   3.985
 5388SOL    HW227793   1.286   1.138   3.985
 5389SOL     OW27794   0.330   0.926  22.580
 5389SOL    HW127795   0.400   0.952  22.640
 5389SOL    HW227796   0.260   0.990  22.596
 5390SOL     OW27797   1.355   0.742   7.015
 5390SOL    HW127798   1.278   0.696   7.048
 5390SOL    HW227799   1.325   0.832   7.001
 5391SOL     OW27800   3.801   2.572   4.727
 5391SOL    HW127801   3.835   2.659   4.708
 5391SOL    HW227802   3.708   2.578   4.707
 5392SOL     OW27803   3.197   2.667   4.580
 5392SOL    HW127804   3.136   2.644   4.650
 5392SOL    HW227805   3.183   2.761   4.566
 5393SOL     OW27806   2.920   3.586   8.181
 5393SOL    HW127807   2.957   3.505   8.147
 5393SOL    HW227808   2.959   3.655   8.128
 5394SOL     OW27809   4.654   2.440   5.862
 5394SOL    HW127810   4.745   2.424   5.888
 5394SOL    HW227811   4.645   2.397   5.777
 5395SOL     OW27812   0.843   3.239  26.749
 5395SOL    HW127813   0.806   3.218  26.663
 5395SOL    HW227814   0.912   3.174  26.762
 5396SOL     OW27815   0.443   0.442   2.805
 5396SOL    HW127816   0.502   0.370   2.784
 5396SOL    HW227817   0.486   0.489   2.876
 5397SOL     OW27818   4.548   0.199   1.314
 5397SOL    HW127819   4.493   0.184   1.391
 5397SOL    HW227820   4.507   0.149   1.244
 5398SOL     OW27821   3.118   3.836  21.647
 5398SOL    HW127822   3.131   3.741  21.651
 5398SOL    HW227823   3.046   3.852  21.708
 5399SOL     OW27824   4.311   1.735  22.096
 5399SOL    HW127825   4.304   1.829  22.110
 5399SOL    HW227826   4.311   1.725  22.001
 5400SOL     OW27827   1.830   4.759  23.093
 5400SOL    HW127828   1.846   4.672  23.130
 5400SOL    HW227829   1.844   4.748  22.999
 5401SOL     OW27830   3.741   0.884  27.391
 5401SOL    HW127831   3.833   0.861  27.382
 5401SOL    HW227832   3.740   0.955  27.455
 5402SOL     OW27833   3.082   3.092  25.969
 5402SOL    HW127834   3.140   3.074  25.895
 5402SOL    HW227835   3.090   3.186  25.984
 5403SOL     OW27836   1.633   2.103   6.551
 5403SOL    HW127837   1.677   2.185   6.574
 5403SOL    HW227838   1.582   2.124   6.473
 5404SOL     OW27839   2.115   2.165   7.264
 5404SOL    HW127840   2.189   2.156   7.204
 5404SOL    HW227841   2.151   2.210   7.341
 5405SOL     OW27842   0.085   3.127   5.039
 5405SOL    HW127843   0.036   3.072   5.100
 5405SOL    HW227844   0.018   3.182   4.997
 5406SOL     OW27845   4.298   1.657  20.050
 5406SOL    HW127846   4.223   1.703  20.011
 5406SOL    HW227847   4.317   1.587  19.988
 5407SOL     OW27848   1.923   0.121  26.628
 5407SOL    HW127849   2.015   0.147  26.619
 5407SOL    HW227850   1.906   0.122  26.722
 5408SOL     OW27851   1.934   0.238  21.027
 5408SOL    HW127852   1.901   0.149  21.039
 5408SOL    HW227853   2.009   0.244  21.086
 5409SOL     OW27854   3.047   1.851   6.304
 5409SOL    HW127855   3.051   1.928   6.247
 5409SOL    HW227856   3.118   1.795   6.273
 5410SOL     OW27857   2.309   0.320  27.344
 5410SOL    HW127858   2.297   0.251  27.409
 5410SOL    HW227859   2.374   0.284  27.283
 5411SOL     OW27860   2.604   1.450  21.143
 5411SOL    HW127861   2.684   1.497  21.120
 5411SOL    HW227862   2.616   1.428  21.235
 5412SOL     OW27863   2.619   4.484  27.107
 5412SOL    HW127864   2.689   4.520  27.052
 5412SOL    HW227865   2.658   4.476  27.194
 5413SOL     OW27866   1.478   1.671   5.082
 5413SOL    HW127867   1.435   1.590   5.109
 5413SOL    HW227868   1.455   1.735   5.149
 5414SOL     OW27869   3.669   3.411   4.617
 5414SOL    HW127870   3.671   3.440   4.526
 5414SOL    HW227871   3.579   3.425   4.645
 5415SOL     OW27872   1.371   0.982  26.030
 5415SOL    HW127873   1.415   0.969  25.946
 5415SOL    HW227874   1.349   1.075  26.031
 5416SOL     OW27875   3.787   3.744  27.150
 5416SOL    HW127876   3.869   3.729  27.103
 5416SOL    HW227877   3.809   3.809  27.216
 5417SOL     OW27878   3.187   2.621   0.848
 5417SOL    HW127879   3.117   2.686   0.850
 5417SOL    HW227880   3.248   2.654   0.782
 5418SOL     OW27881   1.558   1.235  21.081
 5418SOL    HW127882   1.615   1.162  21.056
 5418SOL    HW227883   1.522   1.268  20.998
 5419SOL     OW27884   3.847   3.820   1.153
 5419SOL    HW127885   3.874   3.787   1.239
 5419SOL    HW227886   3.856   3.915   1.159
 5420SOL     OW27887   4.497   4.585  19.371
 5420SOL    HW127888   4.423   4.557  19.317
 5420SOL    HW227889   4.544   4.504  19.391
 5421SOL     OW27890   4.194   1.740  10.915
 5421SOL    HW127891   4.104   1.769  10.932
 5421SOL    HW227892   4.192   1.645  10.927
 5422SOL     OW27893   2.653   2.354  25.943
 5422SOL    HW127894   2.564   2.386  25.957
 5422SOL    HW227895   2.641   2.269  25.900
 5423SOL     OW27896   3.794   0.928  17.789
 5423SOL    HW127897   3.712   0.889  17.760
 5423SOL    HW227898   3.847   0.933  17.709
 5424SOL     OW27899   0.287   3.244  25.117
 5424SOL    HW127900   0.361   3.304  25.125
 5424SOL    HW227901   0.301   3.199  25.033
 5425SOL     OW27902   0.869   2.763  10.132
 5425SOL    HW127903   0.784   2.720  10.126
 5425SOL    HW227904   0.889   2.764  10.226
 5426SOL     OW27905   1.677   4.370  22.797
 5426SOL    HW127906   1.762   4.379  22.755
 5426SOL    HW227907   1.632   4.453  22.778
 5427SOL     OW27908   3.509   2.175   6.044
 5427SOL    HW127909   3.452   2.193   5.969
 5427SOL    HW227910   3.502   2.253   6.098
 5428SOL     OW27911   0.197   1.686  21.571
 5428SOL    HW127912   0.186   1.649  21.659
 5428SOL    HW227913   0.278   1.737  21.576
 5429SOL     OW27914   2.805   4.139  18.987
 5429SOL    HW127915   2.867   4.073  19.017
 5429SOL    HW227916   2.835   4.162  18.899
 5430SOL     OW27917   3.608   3.645  21.794
 5430SOL    HW127918   3.633   3.689  21.713
 5430SOL    HW227919   3.588   3.716  21.854
 5431SOL     OW27920   1.026   2.420  24.453
 5431SOL    HW127921   0.971   2.435  24.530
 5431SOL    HW227922   0.966   2.382  24.389
 5432SOL     OW27923   2.387   1.094  18.467
 5432SOL    HW127924   2.294   1.103  18.448
 5432SOL    HW227925   2.392   1.086  18.562
 5433SOL     OW27926   1.356   1.388   3.424
 5433SOL    HW127927   1.442   1.429   3.412
 5433SOL    HW227928   1.375   1.303   3.464
 5434SOL     OW27929   0.961   3.489   0.214
 5434SOL    HW127930   0.982   3.450   0.129
 5434SOL    HW227931   0.915   3.420   0.261
 5435SOL     OW27932   1.253   4.183   3.589
 5435SOL    HW127933   1.255   4.256   3.527
 5435SOL    HW227934   1.225   4.222   3.672
 5436SOL     OW27935   4.435   1.364   1.149
 5436SOL    HW127936   4.498   1.292   1.142
 5436SOL    HW227937   4.349   1.322   1.142
 5437SOL     OW27938   4.242   1.475   8.373
 5437SOL    HW127939   4.244   1.453   8.466
 5437SOL    HW227940   4.287   1.402   8.330
 5438SOL     OW27941   1.936   3.159  20.980
 5438SOL    HW127942   1.876   3.101  21.028
 5438SOL    HW227943   2.023   3.139  21.015
 5439SOL     OW27944   2.148   2.525   3.657
 5439SOL    HW127945   2.138   2.437   3.622
 5439SOL    HW227946   2.153   2.581   3.580
 5440SOL     OW27947   1.054   0.803   7.615
 5440SOL    HW127948   1.065   0.898   7.605
 5440SOL    HW227949   1.066   0.768   7.527
 5441SOL     OW27950   3.737   4.422   5.375
 5441SOL    HW127951   3.783   4.355   5.325
 5441SOL    HW227952   3.779   4.504   5.350
 5442SOL     OW27953   3.798   2.280  19.236
 5442SOL    HW127954   3.795   2.204  19.294
 5442SOL    HW227955   3.742   2.256  19.162
 5443SOL     OW27956   3.475   0.974  19.491
 5443SOL    HW127957   3.522   0.995  19.410
 5443SOL    HW227958   3.447   1.059  19.525
 5444SOL     OW27959   2.050   3.898  25.522
 5444SOL    HW127960   2.141   3.872  25.536
 5444SOL    HW227961   2.016   3.835  25.458
 5445SOL     OW27962   2.609   3.451  17.963
 5445SOL    HW127963   2.612   3.507  17.886
 5445SOL    HW227964   2.615   3.511  18.037
 5446SOL     OW27965   1.231   3.784   6.546
 5446SOL    HW127966   1.278   3.712   6.589
 5446SOL    HW227967   1.261   3.862   6.592
 5447SOL     OW27968   3.611   3.141  25.245
 5447SOL    HW127969   3.613   3.052  25.211
 5447SOL    HW227970   3.666   3.138  25.323
 5448SOL     OW27971   2.909   1.451  19.899
 5448SOL    HW127972   2.878   1.504  19.826
 5448SOL    HW227973   2.853   1.373  19.898
 5449SOL     OW27974   1.114   4.515   3.446
 5449SOL    HW127975   1.047   4.559   3.498
 5449SOL    HW227976   1.197   4.553   3.476
 5450SOL     OW27977   3.474   1.563  20.308
 5450SOL    HW127978   3.505   1.614  20.233
 5450SOL    HW227979   3.551   1.514  20.337
 5451SOL     OW27980   0.172   3.777  22.986
 5451SOL    HW127981   0.178   3.871  23.001
 5451SOL    HW227982   0.248   3.740  23.031
 5452SOL     OW27983   4.045   2.285  17.498
 5452SOL    HW127984   4.000   2.362  17.464
 5452SOL    HW227985   4.081   2.313  17.582
 5453SOL     OW27986   4.238   3.365  25.918
 5453SOL    HW127987   4.217   3.451  25.883
 5453SOL    HW227988   4.261   3.382  26.009
 5454SOL     OW27989   4.091   1.452  16.758
 5454SOL    HW127990   4.130   1.430  16.673
 5454SOL    HW227991   4.145   1.406  16.822
 5455SOL     OW27992   4.023   1.988  25.881
 5455SOL    HW127993   3.958   1.971  25.813
 5455SOL    HW227994   3.989   2.064  25.928
 5456SOL     OW27995   3.884   0.759  19.446
 5456SOL    HW127996   3.857   0.850  19.460
 5456SOL    HW227997   3.802   0.710  19.437
 5457SOL     OW27998   0.596   2.942   4.781
 5457SOL    HW127999   0.555   2.861   4.810
 5457SOL    HW228000   0.531   2.981   4.722
 5458SOL     OW28001   3.894   0.604   6.469
 5458SOL    HW128002   3.832   0.659   6.517
 5458SOL    HW228003   3.870   0.514   6.493
 5459SOL     OW28004   1.697   1.408  25.610
 5459SOL    HW128005   1.764   1.451  25.558
 5459SOL    HW228006   1.743   1.379  25.689
 5460SOL     OW28007   3.390   1.977   2.742
 5460SOL    HW128008   3.384   1.983   2.647
 5460SOL    HW228009   3.411   1.885   2.759
 5461SOL     OW28010   3.161   0.251   1.229
 5461SOL    HW128011   3.132   0.301   1.153
 5461SOL    HW228012   3.197   0.170   1.193
 5462SOL     OW28013   0.829   0.706   5.549
 5462SOL    HW128014   0.780   0.690   5.630
 5462SOL    HW228015   0.919   0.721   5.578
 5463SOL     OW28016   0.882   3.004  11.067
 5463SOL    HW128017   0.902   3.091  11.100
 5463SOL    HW228018   0.806   3.017  11.010
 5464SOL     OW28019   0.569   2.134  22.423
 5464SOL    HW128020   0.640   2.148  22.360
 5464SOL    HW228021   0.510   2.072  22.379
 5465SOL     OW28022   4.496   4.038  20.948
 5465SOL    HW128023   4.562   4.089  20.996
 5465SOL    HW228024   4.545   3.997  20.877
 5466SOL     OW28025   3.366   1.228   1.479
 5466SOL    HW128026   3.300   1.267   1.421
 5466SOL    HW228027   3.362   1.134   1.459
 5467SOL     OW28028   4.733   4.650   7.554
 5467SOL    HW128029   0.027   4.703   7.581
 5467SOL    HW228030   4.690   4.702   7.486
 5468SOL     OW28031   0.483   1.447  20.064
 5468SOL    HW128032   0.392   1.461  20.089
 5468SOL    HW228033   0.532   1.459  20.145
 5469SOL     OW28034   3.370   1.547   5.040
 5469SOL    HW128035   3.289   1.567   4.993
 5469SOL    HW228036   3.418   1.487   4.983
 5470SOL     OW28037   4.122   2.432  26.999
 5470SOL    HW128038   4.204   2.399  26.962
 5470SOL    HW228039   4.149   2.502  27.058
 5471SOL     OW28040   3.259   4.537  26.717
 5471SOL    HW128041   3.196   4.609  26.709
 5471SOL    HW228042   3.320   4.566  26.785
 5472SOL     OW28043   4.437   1.768   4.128
 5472SOL    HW128044   4.461   1.795   4.217
 5472SOL    HW228045   4.503   1.702   4.104
 5473SOL     OW28046   3.996   0.375   0.916
 5473SOL    HW128047   3.978   0.318   0.991
 5473SOL    HW228048   3.990   0.464   0.952
 5474SOL     OW28049   1.304   1.148   4.497
 5474SOL    HW128050   1.309   1.073   4.557
 5474SOL    HW228051   1.373   1.207   4.527
 5475SOL     OW28052   0.360   2.145  26.877
 5475SOL    HW128053   0.281   2.108  26.838
 5475SOL    HW228054   0.377   2.089  26.953
 5476SOL     OW28055   3.896   0.420   8.372
 5476SOL    HW128056   3.967   0.460   8.422
 5476SOL    HW228057   3.816   0.454   8.412
 5477SOL     OW28058   1.111   0.121   6.217
 5477SOL    HW128059   1.040   0.134   6.280
 5477SOL    HW228060   1.067   0.094   6.137
 5478SOL     OW28061   1.903   3.568  10.220
 5478SOL    HW128062   1.810   3.590  10.228
 5478SOL    HW228063   1.922   3.578  10.127
 5479SOL     OW28064   0.700   4.264  21.055
 5479SOL    HW128065   0.754   4.334  21.093
 5479SOL    HW228066   0.712   4.273  20.961
 5480SOL     OW28067   0.733   1.835  19.996
 5480SOL    HW128068   0.796   1.783  20.046
 5480SOL    HW228069   0.703   1.901  20.058
 5481SOL     OW28070   1.997   1.151  26.904
 5481SOL    HW128071   2.030   1.061  26.905
 5481SOL    HW228072   1.953   1.159  26.819
 5482SOL     OW28073   1.650   0.052  26.203
 5482SOL    HW128074   1.677   0.030  26.292
 5482SOL    HW228075   1.641   4.748  26.159
 5483SOL     OW28076   3.273   3.892   9.526
 5483SOL    HW128077   3.267   3.883   9.431
 5483SOL    HW228078   3.365   3.873   9.546
 5484SOL     OW28079   1.635   2.009   0.872
 5484SOL    HW128080   1.617   2.093   0.914
 5484SOL    HW228081   1.730   2.006   0.865
 5485SOL     OW28082   0.822   2.474   7.461
 5485SOL    HW128083   0.841   2.564   7.435
 5485SOL    HW228084   0.898   2.447   7.513
 5486SOL     OW28085   0.643   1.326  22.914
 5486SOL    HW128086   0.681   1.254  22.863
 5486SOL    HW228087   0.650   1.296  23.005
 5487SOL     OW28088   1.624   0.983  26.537
 5487SOL    HW128089   1.617   0.888  26.543
 5487SOL    HW228090   1.545   1.010  26.491
 5488SOL     OW28091   3.277   2.400  21.273
 5488SOL    HW128092   3.320   2.364  21.195
 5488SOL    HW228093   3.201   2.447  21.239
 5489SOL     OW28094   1.104   3.201  19.509
 5489SOL    HW128095   1.009   3.209  19.519
 5489SOL    HW228096   1.140   3.236  19.590
 5490SOL     OW28097   3.924   0.539   5.443
 5490SOL    HW128098   3.885   0.461   5.403
 5490SOL    HW228099   3.933   0.601   5.371
 5491SOL     OW28100   3.363   1.634  22.361
 5491SOL    HW128101   3.379   1.723  22.391
 5491SOL    HW228102   3.366   1.581  22.440
 5492SOL     OW28103   2.356   0.234   8.882
 5492SOL    HW128104   2.357   0.317   8.930
 5492SOL    HW228105   2.378   0.259   8.792
 5493SOL     OW28106   3.420   0.026  23.018
 5493SOL    HW128107   3.497   4.775  22.970
 5493SOL    HW228108   3.421   4.758  23.101
 5494SOL     OW28109   1.584   3.928  22.123
 5494SOL    HW128110   1.490   3.928  22.108
 5494SOL    HW228111   1.599   3.855  22.183
 5495SOL     OW28112   0.032   2.706  16.896
 5495SOL    HW128113   0.122   2.727  16.870
 5495SOL    HW228114   4.770   2.678  16.815
 5496SOL     OW28115   1.909   4.057   4.061
 5496SOL    HW128116   1.856   3.977   4.066
 5496SOL    HW228117   1.932   4.076   4.152
 5497SOL     OW28118   1.774   1.397   5.275
 5497SOL    HW128119   1.826   1.326   5.313
 5497SOL    HW228120   1.815   1.414   5.190
 5498SOL     OW28121   1.197   1.406  18.196
 5498SOL    HW128122   1.199   1.502  18.201
 5498SOL    HW228123   1.278   1.383  18.151
 5499SOL     OW28124   3.461   3.160  17.411
 5499SOL    HW128125   3.416   3.153  17.327
 5499SOL    HW228126   3.550   3.189  17.389
 5500SOL     OW28127   2.338   3.032   6.883
 5500SOL    HW128128   2.343   3.083   6.802
 5500SOL    HW228129   2.394   2.956   6.867
 5501SOL     OW28130   0.388   0.579  12.054
 5501SOL    HW128131   0.470   0.574  12.103
 5501SOL    HW228132   0.321   0.553  12.117
 5502SOL     OW28133   3.818   1.745   0.959
 5502SOL    HW128134   3.842   1.822   1.011
 5502SOL    HW228135   3.799   1.780   0.872
 5503SOL     OW28136   1.882   2.927  21.612
 5503SOL    HW128137   1.916   2.882  21.535
 5503SOL    HW228138   1.787   2.919  21.604
 5504SOL     OW28139   0.752   0.585  26.592
 5504SOL    HW128140   0.725   0.640  26.666
 5504SOL    HW228141   0.790   0.507  26.633
 5505SOL     OW28142   4.623   4.357   6.120
 5505SOL    HW128143   4.556   4.352   6.188
 5505SOL    HW228144   4.602   4.436   6.070
 5506SOL     OW28145   1.167   3.526  23.640
 5506SOL    HW128146   1.202   3.526  23.729
 5506SOL    HW228147   1.166   3.434  23.614
 5507SOL     OW28148   0.976   3.059  25.031
 5507SOL    HW128149   0.977   2.968  25.002
 5507SOL    HW228150   0.920   3.104  24.968
 5508SOL     OW28151   0.737   0.775  10.217
 5508SOL    HW128152   0.776   0.688  10.205
 5508SOL    HW228153   0.809   0.836  10.203
 5509SOL     OW28154   0.043   3.817   5.495
 5509SOL    HW128155   0.127   3.786   5.530
 5509SOL    HW228156   4.773   3.737   5.478
 5510SOL     OW28157   2.656   4.376   9.377
 5510SOL    HW128158   2.668   4.294   9.425
 5510SOL    HW228159   2.574   4.412   9.411
 5511SOL     OW28160   2.456   0.886   6.510
 5511SOL    HW128161   2.522   0.839   6.459
 5511SOL    HW228162   2.412   0.942   6.446
 5512SOL     OW28163   2.091   3.750  23.846
 5512SOL    HW128164   2.060   3.740  23.756
 5512SOL    HW228165   2.184   3.727  23.843
 5513SOL     OW28166   1.286   3.954   3.282
 5513SOL    HW128167   1.362   3.940   3.338
 5513SOL    HW228168   1.248   4.036   3.313
 5514SOL     OW28169   2.209   1.635  19.492
 5514SOL    HW128170   2.185   1.570  19.426
 5514SOL    HW228171   2.262   1.699  19.445
 5515SOL     OW28172   0.487   2.260   6.256
 5515SOL    HW128173   0.396   2.275   6.281
 5515SOL    HW228174   0.518   2.344   6.223
 5516SOL     OW28175   4.030   3.893   7.549
 5516SOL    HW128176   4.033   3.954   7.475
 5516SOL    HW228177   3.974   3.936   7.614
 5517SOL     OW28178   2.361   3.155  21.727
 5517SOL    HW128179   2.342   3.229  21.785
 5517SOL    HW228180   2.338   3.187  21.640
 5518SOL     OW28181   2.577   1.845  27.578
 5518SOL    HW128182   2.642   1.796  27.528
 5518SOL    HW228183   2.501   1.851  27.520
 5519SOL     OW28184   4.636   4.348   1.198
 5519SOL    HW128185   4.566   4.312   1.143
 5519SOL    HW228186   4.606   4.436   1.220
 5520SOL     OW28187   2.855   4.308   8.734
 5520SOL    HW128188   2.779   4.305   8.676
 5520SOL    HW228189   2.824   4.355   8.812
 5521SOL     OW28190   0.626   3.592   6.640
 5521SOL    HW128191   0.714   3.597   6.678
 5521SOL    HW228192   0.622   3.505   6.601
 5522SOL     OW28193   3.282   4.196  28.207
 5522SOL    HW128194   3.333   4.115  28.212
 5522SOL    HW228195   3.260   4.204  28.114
 5523SOL     OW28196   3.028   2.709  20.844
 5523SOL    HW128197   3.094   2.746  20.785
 5523SOL    HW228198   2.952   2.694  20.788
 5524SOL     OW28199   1.890   4.057  18.801
 5524SOL    HW128200   1.985   4.057  18.811
 5524SOL    HW228201   1.857   4.067  18.890
 5525SOL     OW28202   0.386   2.538   4.740
 5525SOL    HW128203   0.304   2.567   4.700
 5525SOL    HW228204   0.389   2.444   4.723
 5526SOL     OW28205   2.469   0.677  24.326
 5526SOL    HW128206   2.471   0.762  24.370
 5526SOL    HW228207   2.377   0.652  24.328
 5527SOL     OW28208   0.484   3.825   3.043
 5527SOL    HW128209   0.574   3.857   3.032
 5527SOL    HW228210   0.435   3.866   2.972
 5528SOL     OW28211   4.403   3.313  20.557
 5528SOL    HW128212   4.312   3.332  20.580
 5528SOL    HW228213   4.450   3.312  20.641
 5529SOL     OW28214   1.939   2.162   8.948
 5529SOL    HW128215   1.888   2.241   8.965
 5529SOL    HW228216   2.026   2.182   8.982
 5530SOL     OW28217   0.543   0.279   4.078
 5530SOL    HW128218   0.464   0.328   4.100
 5530SOL    HW228219   0.548   0.211   4.145
 5531SOL     OW28220   1.411   1.000  17.850
 5531SOL    HW128221   1.420   0.905  17.852
 5531SOL    HW228222   1.325   1.015  17.810
 5532SOL     OW28223   4.559   4.593  26.927
 5532SOL    HW128224   4.582   4.682  26.954
 5532SOL    HW228225   4.642   4.545  26.926
 5533SOL     OW28226   4.055   3.642   3.200
 5533SOL    HW128227   4.019   3.722   3.163
 5533SOL    HW228228   4.092   3.669   3.284
 5534SOL     OW28229   2.035   0.838  26.157
 5534SOL    HW128230   2.125   0.833  26.125
 5534SOL    HW228231   2.037   0.793  26.242
 5535SOL     OW28232   3.109   4.037  21.151
 5535SOL    HW128233   3.127   4.105  21.215
 5535SOL    HW228234   3.147   3.958  21.189
 5536SOL     OW28235   3.714   3.506   2.826
 5536SOL    HW128236   3.668   3.423   2.839
 5536SOL    HW228237   3.704   3.553   2.909
 5537SOL     OW28238   3.205   0.665  21.174
 5537SOL    HW128239   3.218   0.745  21.225
 5537SOL    HW228240   3.282   0.660  21.117
 5538SOL     OW28241   1.578   4.392  21.119
 5538SOL    HW128242   1.554   4.417  21.030
 5538SOL    HW228243   1.612   4.303  21.110
 5539SOL     OW28244   1.450   2.642  19.062
 5539SOL    HW128245   1.445   2.546  19.065
 5539SOL    HW228246   1.434   2.670  19.152
 5540SOL     OW28247   4.321   3.353   6.171
 5540SOL    HW128248   4.318   3.275   6.227
 5540SOL    HW228249   4.340   3.425   6.231
 5541SOL     OW28250   0.966   1.781   5.969
 5541SOL    HW128251   0.874   1.803   5.952
 5541SOL    HW228252   1.012   1.807   5.889
 5542SOL     OW28253   3.844   3.749  23.859
 5542SOL    HW128254   3.756   3.719  23.837
 5542SOL    HW228255   3.831   3.813  23.929
 5543SOL     OW28256   1.533   4.631  20.622
 5543SOL    HW128257   1.560   4.552  20.669
 5543SOL    HW228258   1.603   4.695  20.639
 5544SOL     OW28259   1.724   2.307  25.690
 5544SOL    HW128260   1.817   2.306  25.711
 5544SOL    HW228261   1.698   2.398  25.702
 5545SOL     OW28262   2.563   1.266   4.620
 5545SOL    HW128263   2.590   1.174   4.622
 5545SOL    HW228264   2.645   1.315   4.611
 5546SOL     OW28265   2.879   1.446  22.997
 5546SOL    HW128266   2.828   1.475  23.072
 5546SOL    HW228267   2.860   1.352  22.990
 5547SOL     OW28268   0.411   4.028   2.822
 5547SOL    HW128269   0.402   4.121   2.802
 5547SOL    HW228270   0.351   3.984   2.762
 5548SOL     OW28271   2.254   1.219  20.076
 5548SOL    HW128272   2.220   1.305  20.100
 5548SOL    HW228273   2.345   1.235  20.052
 5549SOL     OW28274   3.937   4.269  26.304
 5549SOL    HW128275   4.032   4.262  26.300
 5549SOL    HW228276   3.905   4.196  26.252
 5550SOL     OW28277   3.758   3.592   7.722
 5550SOL    HW128278   3.729   3.504   7.696
 5550SOL    HW228279   3.694   3.620   7.787
 5551SOL     OW28280   3.715   4.289  22.899
 5551SOL    HW128281   3.755   4.302  22.813
 5551SOL    HW228282   3.663   4.368  22.913
 5552SOL     OW28283   3.625   4.478  23.731
 5552SOL    HW128284   3.534   4.507  23.735
 5552SOL    HW228285   3.657   4.510  23.647
 5553SOL     OW28286   3.714   3.883   2.692
 5553SOL    HW128287   3.619   3.870   2.697
 5553SOL    HW228288   3.728   3.931   2.610
 5554SOL     OW28289   4.531   3.321  23.631
 5554SOL    HW128290   4.542   3.226  23.631
 5554SOL    HW228291   4.466   3.337  23.700
 5555SOL     OW28292   0.593   2.172   8.464
 5555SOL    HW128293   0.563   2.217   8.385
 5555SOL    HW228294   0.517   2.121   8.492
 5556SOL     OW28295   0.369   1.816  26.671
 5556SOL    HW128296   0.277   1.816  26.645
 5556SOL    HW228297   0.417   1.796  26.591
 5557SOL     OW28298   2.222   3.159   4.404
 5557SOL    HW128299   2.215   3.227   4.337
 5557SOL    HW228300   2.292   3.189   4.462
 5558SOL     OW28301   2.610   1.309   0.560
 5558SOL    HW128302   2.581   1.386   0.609
 5558SOL    HW228303   2.692   1.283   0.601
 5559SOL     OW28304   1.040   2.212  22.035
 5559SOL    HW128305   1.046   2.300  22.072
 5559SOL    HW228306   1.041   2.226  21.940
 5560SOL     OW28307   0.454   1.897  25.422
 5560SOL    HW128308   0.438   1.835  25.350
 5560SOL    HW228309   0.545   1.881  25.448
 5561SOL     OW28310   3.229   2.710   5.112
 5561SOL    HW128311   3.225   2.671   5.199
 5561SOL    HW228312   3.323   2.720   5.094
 5562SOL     OW28313   1.053   2.799  27.167
 5562SOL    HW128314   0.961   2.800  27.141
 5562SOL    HW228315   1.072   2.890  27.190
 5563SOL     OW28316   4.182   2.624  27.748
 5563SOL    HW128317   4.255   2.618  27.686
 5563SOL    HW228318   4.179   2.717  27.772
 5564SOL     OW28319   2.011   4.361   3.685
 5564SOL    HW128320   1.966   4.326   3.762
 5564SOL    HW228321   2.051   4.442   3.716
 5565SOL     OW28322   2.034   3.707  17.673
 5565SOL    HW128323   1.992   3.641  17.618
 5565SOL    HW228324   2.086   3.759  17.612
 5566SOL     OW28325   2.649   0.114  20.383
 5566SOL    HW128326   2.586   0.045  20.403
 5566SOL    HW228327   2.624   0.187  20.440
 5567SOL     OW28328   1.295   0.755  20.713
 5567SOL    HW128329   1.359   0.817  20.748
 5567SOL    HW228330   1.213   0.778  20.757
 5568SOL     OW28331   1.583   4.547   9.163
 5568SOL    HW128332   1.531   4.598   9.225
 5568SOL    HW228333   1.637   4.611   9.117
 5569SOL     OW28334   3.990   0.198  20.744
 5569SOL    HW128335   3.987   0.202  20.840
 5569SOL    HW228336   3.906   0.158  20.720
 5570SOL     OW28337   3.374   3.253  27.671
 5570SOL    HW128338   3.344   3.235  27.760
 5570SOL    HW228339   3.391   3.167  27.633
 5571SOL     OW28340   3.644   3.312   0.726
 5571SOL    HW128341   3.645   3.371   0.801
 5571SOL    HW228342   3.644   3.370   0.650
 5572SOL     OW28343   4.486   3.574  17.909
 5572SOL    HW128344   4.510   3.661  17.876
 5572SOL    HW228345   4.566   3.522  17.900
 5573SOL     OW28346   0.468   3.897  21.108
 5573SOL    HW128347   0.458   3.987  21.139
 5573SOL    HW228348   0.411   3.846  21.165
 5574SOL     OW28349   3.665   2.878   6.623
 5574SOL    HW128350   3.620   2.800   6.656
 5574SOL    HW228351   3.643   2.881   6.530
 5575SOL     OW28352   4.589   3.499  10.480
 5575SOL    HW128353   4.523   3.460  10.537
 5575SOL    HW228354   4.671   3.457  10.505
 5576SOL     OW28355   0.951   1.518  24.538
 5576SOL    HW128356   0.933   1.575  24.613
 5576SOL    HW228357   0.909   1.435  24.560
 5577SOL     OW28358   1.491   0.297   2.698
 5577SOL    HW128359   1.412   0.316   2.647
 5577SOL    HW228360   1.553   0.366   2.674
 5578SOL     OW28361   0.106   3.334  25.892
 5578SOL    HW128362   0.169   3.384  25.840
 5578SOL    HW228363   0.053   3.401  25.936
 5579SOL     OW28364   3.781   3.279   5.499
 5579SOL    HW128365   3.854   3.313   5.447
 5579SOL    HW228366   3.808   3.291   5.590
 5580SOL     OW28367   1.441   1.757  25.664
 5580SOL    HW128368   1.500   1.831  25.648
 5580SOL    HW228369   1.388   1.752  25.584
 5581SOL     OW28370   4.759   2.395  27.091
 5581SOL    HW128371   4.771   2.390  26.996
 5581SOL    HW228372   0.064   2.423  27.125
 5582SOL     OW28373   3.109   1.071  22.667
 5582SOL    HW128374   3.189   1.099  22.622
 5582SOL    HW228375   3.135   0.991  22.713
 5583SOL     OW28376   0.806   3.414  24.664
 5583SOL    HW128377   0.894   3.427  24.628
 5583SOL    HW228378   0.757   3.491  24.636
 5584SOL     OW28379   2.412   0.559  21.556
 5584SOL    HW128380   2.395   0.646  21.519
 5584SOL    HW228381   2.360   0.499  21.502
 5585SOL     OW28382   4.181   0.930  27.421
 5585SOL    HW128383   4.269   0.940  27.456
 5585SOL    HW228384   4.128   0.993  27.469
 5586SOL     OW28385   0.299   0.725   7.662
 5586SOL    HW128386   0.365   0.691   7.723
 5586SOL    HW228387   0.350   0.757   7.587
 5587SOL     OW28388   1.992   3.977   8.716
 5587SOL    HW128389   1.909   4.013   8.748
 5587SOL    HW228390   1.990   3.992   8.621
 5588SOL     OW28391   3.273   0.517  26.114
 5588SOL    HW128392   3.280   0.504  26.209
 5588SOL    HW228393   3.222   0.442  26.083
 5589SOL     OW28394   2.514   3.167  19.679
 5589SOL    HW128395   2.541   3.221  19.604
 5589SOL    HW228396   2.473   3.229  19.739
 5590SOL     OW28397   2.595   3.557   2.832
 5590SOL    HW128398   2.645   3.482   2.863
 5590SOL    HW228399   2.612   3.626   2.897
 5591SOL     OW28400   3.179   3.663   9.674
 5591SOL    HW128401   3.216   3.595   9.618
 5591SOL    HW228402   3.219   3.744   9.644
 5592SOL     OW28403   2.144   1.768  20.940
 5592SOL    HW128404   2.148   1.686  20.989
 5592SOL    HW228405   2.122   1.834  21.005
 5593SOL     OW28406   2.748   1.218   7.118
 5593SOL    HW128407   2.777   1.258   7.200
 5593SOL    HW228408   2.809   1.146   7.103
 5594SOL     OW28409   2.905   1.386   5.096
 5594SOL    HW128410   2.831   1.326   5.104
 5594SOL    HW228411   2.932   1.379   5.004
 5595SOL     OW28412   3.404   4.421  25.429
 5595SOL    HW128413   3.469   4.382  25.370
 5595SOL    HW228414   3.350   4.347  25.457
 5596SOL     OW28415   2.444   0.563   7.345
 5596SOL    HW128416   2.466   0.592   7.256
 5596SOL    HW228417   2.529   0.552   7.388
 5597SOL     OW28418   2.315   2.296   2.717
 5597SOL    HW128419   2.328   2.290   2.622
 5597SOL    HW228420   2.372   2.368   2.745
 5598SOL     OW28421   3.954   0.836  20.851
 5598SOL    HW128422   4.030   0.838  20.793
 5598SOL    HW228423   3.944   0.744  20.875
 5599SOL     OW28424   3.000   1.897   9.211
 5599SOL    HW128425   2.991   1.967   9.276
 5599SOL    HW228426   3.013   1.943   9.128
 5600SOL     OW28427   0.678   1.480  21.290
 5600SOL    HW128428   0.598   1.431  21.272
 5600SOL    HW228429   0.702   1.455  21.379
 5601SOL     OW28430   0.238   1.834  19.869
 5601SOL    HW128431   0.323   1.801  19.839
 5601SOL    HW228432   0.245   1.836  19.964
 5602SOL     OW28433   2.062   4.605  25.768
 5602SOL    HW128434   2.003   4.583  25.840
 5602SOL    HW228435   2.148   4.611  25.809
 5603SOL     OW28436   2.242   0.205   5.548
 5603SOL    HW128437   2.151   0.187   5.570
 5603SOL    HW228438   2.240   0.289   5.501
 5604SOL     OW28439   0.271   4.131   4.016
 5604SOL    HW128440   0.341   4.196   4.026
 5604SOL    HW228441   0.264   4.117   3.922
 5605SOL     OW28442   3.571   0.946  22.554
 5605SOL    HW128443   3.494   0.890  22.539
 5605SOL    HW228444   3.631   0.924  22.482
 5606SOL     OW28445   4.579   1.674   0.142
 5606SOL    HW128446   4.667   1.644   0.119
 5606SOL    HW228447   4.561   1.744   0.080
 5607SOL     OW28448   1.855   0.990  18.291
 5607SOL    HW128449   1.876   0.897  18.296
 5607SOL    HW228450   1.930   1.034  18.332
 5608SOL     OW28451   4.514   0.787  24.928
 5608SOL    HW128452   4.496   0.764  24.837
 5608SOL    HW228453   4.427   0.793  24.968
 5609SOL     OW28454   2.165   4.451   2.984
 5609SOL    HW128455   2.193   4.374   2.934
 5609SOL    HW228456   2.234   4.464   3.049
 5610SOL     OW28457   1.162   2.598   3.853
 5610SOL    HW128458   1.251   2.631   3.844
 5610SOL    HW228459   1.170   2.503   3.842
 5611SOL     OW28460   3.299   2.959   6.316
 5611SOL    HW128461   3.348   2.881   6.290
 5611SOL    HW228462   3.281   3.005   6.234
 5612SOL     OW28463   4.755   1.893  23.031
 5612SOL    HW128464   4.738   1.800  23.044
 5612SOL    HW228465   0.042   1.896  22.964
 5613SOL     OW28466   1.585   0.129   2.143
 5613SOL    HW128467   1.670   0.101   2.108
 5613SOL    HW228468   1.594   0.118   2.238
 5614SOL     OW28469   3.673   2.575  24.530
 5614SOL    HW128470   3.665   2.488  24.490
 5614SOL    HW228471   3.693   2.557  24.622
 5615SOL     OW28472   0.918   3.591  23.424
 5615SOL    HW128473   0.970   3.666  23.452
 5615SOL    HW228474   0.912   3.535  23.502
 5616SOL     OW28475   4.739   4.034   8.880
 5616SOL    HW128476   4.660   4.087   8.890
 5616SOL    HW228477   4.770   4.052   8.791
 5617SOL     OW28478   3.768   1.206   0.382
 5617SOL    HW128479   3.777   1.191   0.476
 5617SOL    HW228480   3.701   1.144   0.354
 5618SOL     OW28481   0.360   0.423  23.909
 5618SOL    HW128482   0.413   0.444  23.832
 5618SOL    HW228483   0.422   0.385  23.972
 5619SOL     OW28484   4.361   2.389  19.818
 5619SOL    HW128485   4.369   2.416  19.727
 5619SOL    HW228486   4.417   2.312  19.825
 5620SOL     OW28487   2.374   0.767   5.817
 5620SOL    HW128488   2.427   0.710   5.761
 5620SOL    HW228489   2.286   0.762   5.781
 5621SOL     OW28490   0.125   2.261  17.752
 5621SOL    HW128491   0.060   2.245  17.820
 5621SOL    HW228492   0.075   2.300  17.680
 5622SOL     OW28493   2.596   0.332   7.033
 5622SOL    HW128494   2.611   0.413   7.082
 5622SOL    HW228495   2.615   0.355   6.942
 5623SOL     OW28496   1.854   0.701  24.303
 5623SOL    HW128497   1.922   0.670  24.244
 5623SOL    HW228498   1.818   0.778  24.260
 5624SOL     OW28499   3.316   3.433   7.608
 5624SOL    HW128500   3.243   3.389   7.564
 5624SOL    HW228501   3.276   3.477   7.683
 5625SOL     OW28502   3.129   3.595   3.464
 5625SOL    HW128503   3.148   3.501   3.468
 5625SOL    HW228504   3.181   3.628   3.391
 5626SOL     OW28505   0.420   4.647  26.668
 5626SOL    HW128506   0.440   4.557  26.692
 5626SOL    HW228507   0.444   4.652  26.575
 5627SOL     OW28508   4.685   3.303   3.673
 5627SOL    HW128509   4.710   3.211   3.661
 5627SOL    HW228510   4.756   3.341   3.724
 5628SOL     OW28511   3.542   3.016   0.988
 5628SOL    HW128512   3.622   3.067   0.979
 5628SOL    HW228513   3.523   2.984   0.900
 5629SOL     OW28514   3.728   1.489  11.698
 5629SOL    HW128515   3.663   1.498  11.628
 5629SOL    HW228516   3.677   1.466  11.775
 5630SOL     OW28517   3.515   2.502  19.041
 5630SOL    HW128518   3.501   2.407  19.036
 5630SOL    HW228519   3.427   2.538  19.055
 5631SOL     OW28520   4.585   4.276   3.454
 5631SOL    HW128521   4.549   4.310   3.536
 5631SOL    HW228522   4.528   4.203   3.431
 5632SOL     OW28523   3.091   2.518   5.697
 5632SOL    HW128524   3.006   2.553   5.723
 5632SOL    HW228525   3.075   2.425   5.681
 5633SOL     OW28526   1.845   3.678  27.034
 5633SOL    HW128527   1.840   3.586  27.061
 5633SOL    HW228528   1.795   3.726  27.101
 5634SOL     OW28529   1.916   1.969   7.697
 5634SOL    HW128530   1.825   1.942   7.688
 5634SOL    HW228531   1.963   1.889   7.719
 5635SOL     OW28532   1.767   3.501   0.565
 5635SOL    HW128533   1.710   3.577   0.556
 5635SOL    HW228534   1.820   3.520   0.643
 5636SOL     OW28535   3.004   2.522  20.344
 5636SOL    HW128536   3.028   2.613  20.361
 5636SOL    HW228537   2.915   2.514  20.378
 5637SOL     OW28538   3.294   4.320  26.540
 5637SOL    HW128539   3.247   4.300  26.621
 5637SOL    HW228540   3.315   4.413  26.546
 5638SOL     OW28541   3.184   1.994   6.759
 5638SOL    HW128542   3.193   1.913   6.710
 5638SOL    HW228543   3.260   2.046   6.734
 5639SOL     OW28544   4.582   3.978   3.995
 5639SOL    HW128545   4.665   3.933   4.010
 5639SOL    HW228546   4.553   4.004   4.082
 5640SOL     OW28547   4.330   1.808  18.409
 5640SOL    HW128548   4.420   1.779  18.395
 5640SOL    HW228549   4.309   1.859  18.331
 5641SOL     OW28550   1.285   3.417   6.335
 5641SOL    HW128551   1.309   3.472   6.260
 5641SOL    HW228552   1.367   3.374   6.360
 5642SOL     OW28553   4.703   1.397   5.549
 5642SOL    HW128554   4.612   1.420   5.528
 5642SOL    HW228555   4.705   1.391   5.644
 5643SOL     OW28556   2.185   4.150   3.903
 5643SOL    HW128557   2.167   4.224   3.844
 5643SOL    HW228558   2.172   4.072   3.848
 5644SOL     OW28559   3.870   3.720  23.403
 5644SOL    HW128560   3.929   3.677  23.465
 5644SOL    HW228561   3.785   3.720  23.447
 5645SOL     OW28562   1.140   3.455  25.078
 5645SOL    HW128563   1.162   3.548  25.086
 5645SOL    HW228564   1.190   3.425  25.002
 5646SOL     OW28565   0.476   0.757   2.481
 5646SOL    HW128566   0.502   0.737   2.391
 5646SOL    HW228567   0.502   0.848   2.494
 5647SOL     OW28568   1.522   1.092  24.757
 5647SOL    HW128569   1.455   1.024  24.755
 5647SOL    HW228570   1.583   1.068  24.687
 5648SOL     OW28571   1.472   0.015   1.769
 5648SOL    HW128572   1.537   4.727   1.785
 5648SOL    HW228573   1.402   4.777   1.832
 5649SOL     OW28574   4.469   2.906   4.425
 5649SOL    HW128575   4.548   2.926   4.375
 5649SOL    HW228576   4.465   2.810   4.427
 5650SOL     OW28577   4.387   1.187   5.340
 5650SOL    HW128578   4.371   1.241   5.263
 5650SOL    HW228579   4.396   1.098   5.306
 5651SOL     OW28580   3.727   0.716  20.695
 5651SOL    HW128581   3.787   0.770  20.643
 5651SOL    HW228582   3.764   0.628  20.690
 5652SOL     OW28583   3.700   0.674   2.667
 5652SOL    HW128584   3.606   0.694   2.665
 5652SOL    HW228585   3.720   0.641   2.579
 5653SOL     OW28586   0.644   4.769  25.528
 5653SOL    HW128587   0.699   4.727  25.594
 5653SOL    HW228588   0.555   4.761  25.562
 5654SOL     OW28589   1.505   0.668   8.607
 5654SOL    HW128590   1.426   0.646   8.557
 5654SOL    HW228591   1.474   0.686   8.696
 5655SOL     OW28592   4.579   0.591   8.228
 5655SOL    HW128593   4.654   0.562   8.176
 5655SOL    HW228594   4.575   0.528   8.300
 5656SOL     OW28595   2.912   0.114   3.081
 5656SOL    HW128596   2.893   0.021   3.092
 5656SOL    HW228597   2.912   0.127   2.986
 5657SOL     OW28598   1.928   4.158  28.302
 5657SOL    HW128599   1.892   4.090  28.244
 5657SOL    HW228600   2.023   4.152  28.290
 5658SOL     OW28601   3.892   1.033  28.268
 5658SOL    HW128602   3.888   1.117  28.223
 5658SOL    HW228603   3.981   1.030  28.304
 5659SOL     OW28604   2.661   0.225  22.819
 5659SOL    HW128605   2.573   0.189  22.832
 5659SOL    HW228606   2.646   0.314  22.786
 5660SOL     OW28607   1.795   4.669  22.077
 5660SOL    HW128608   1.846   4.693  22.154
 5660SOL    HW228609   1.729   4.738  22.069
 5661SOL     OW28610   2.964   1.273  10.283
 5661SOL    HW128611   2.873   1.283  10.255
 5661SOL    HW228612   2.965   1.308  10.372
 5662SOL     OW28613   0.128   3.217   1.264
 5662SOL    HW128614   0.060   3.167   1.308
 5662SOL    HW228615   0.197   3.153   1.245
 5663SOL     OW28616   3.227   3.422  22.573
 5663SOL    HW128617   3.169   3.416  22.649
 5663SOL    HW228618   3.170   3.405  22.498
 5664SOL     OW28619   3.468   4.381  22.511
 5664SOL    HW128620   3.497   4.333  22.433
 5664SOL    HW228621   3.381   4.346  22.530
 5665SOL     OW28622   0.540   0.378   6.739
 5665SOL    HW128623   0.632   0.398   6.724
 5665SOL    HW228624   0.529   0.383   6.834
 5666SOL     OW28625   3.589   4.773  25.951
 5666SOL    HW128626   3.672   0.020  25.912
 5666SOL    HW228627   3.543   4.727  25.880
 5667SOL     OW28628   0.003   2.755  21.803
 5667SOL    HW128629   4.749   2.673  21.767
 5667SOL    HW228630   4.738   2.765  21.887
 5668SOL     OW28631   1.013   0.001  22.656
 5668SOL    HW128632   0.981   4.720  22.722
 5668SOL    HW228633   1.016   4.730  22.575
 5669SOL     OW28634   1.275   4.474  27.656
 5669SOL    HW128635   1.241   4.560  27.633
 5669SOL    HW228636   1.355   4.492  27.705
 5670SOL     OW28637   2.234   0.011   9.003
 5670SOL    HW128638   2.287   0.086   8.977
 5670SOL    HW228639   2.282   4.716   8.970
 5671SOL     OW28640   4.374   3.187  17.182
 5671SOL    HW128641   4.371   3.282  17.189
 5671SOL    HW228642   4.416   3.170  17.098
 5672SOL     OW28643   3.756   2.066  21.785
 5672SOL    HW128644   3.678   2.047  21.733
 5672SOL    HW228645   3.812   1.989  21.773
 5673SOL     OW28646   1.216   2.232  25.637
 5673SOL    HW128647   1.250   2.150  25.600
 5673SOL    HW228648   1.215   2.293  25.563
 5674SOL     OW28649   2.537   0.397  25.912
 5674SOL    HW128650   2.580   0.477  25.942
 5674SOL    HW228651   2.608   0.342  25.880
 5675SOL     OW28652   0.434   3.418  11.105
 5675SOL    HW128653   0.520   3.428  11.145
 5675SOL    HW228654   0.452   3.389  11.016
 5676SOL     OW28655   3.375   1.181  28.222
 5676SOL    HW128656   3.339   1.267  28.201
 5676SOL    HW228657   3.443   1.166  28.156
 5677SOL     OW28658   4.717   3.302  23.243
 5677SOL    HW128659   4.769   3.233  23.202
 5677SOL    HW228660   4.638   3.258  23.274
 5678SOL     OW28661   2.278   1.674  10.484
 5678SOL    HW128662   2.183   1.676  10.473
 5678SOL    HW228663   2.299   1.581  10.489
 5679SOL     OW28664   4.492   3.969  21.613
 5679SOL    HW128665   4.434   3.901  21.578
 5679SOL    HW228666   4.470   3.973  21.706
 5680SOL     OW28667   4.412   3.167  17.987
 5680SOL    HW128668   4.380   3.254  17.965
 5680SOL    HW228669   4.333   3.114  17.998
 5681SOL     OW28670   3.477   3.542   0.081
 5681SOL    HW128671   3.466   3.543  28.505
 5681SOL    HW228672   3.434   3.622   0.111
 5682SOL     OW28673   2.136   1.279   8.431
 5682SOL    HW128674   2.155   1.193   8.394
 5682SOL    HW228675   2.218   1.306   8.472
 5683SOL     OW28676   3.183   4.361  22.222
 5683SOL    HW128677   3.192   4.300  22.295
 5683SOL    HW228678   3.177   4.305  22.145
 5684SOL     OW28679   3.322   1.595  25.656
 5684SOL    HW128680   3.297   1.600  25.564
 5684SOL    HW228681   3.284   1.512  25.686
 5685SOL     OW28682   1.839   1.291  20.768
 5685SOL    HW128683   1.886   1.374  20.762
 5685SOL    HW228684   1.889   1.231  20.713
 5686SOL     OW28685   2.844   0.978  21.852
 5686SOL    HW128686   2.891   0.978  21.769
 5686SOL    HW228687   2.847   0.887  21.881
 5687SOL     OW28688   3.047   0.890  26.062
 5687SOL    HW128689   3.083   0.850  26.141
 5687SOL    HW228690   3.122   0.933  26.021
 5688SOL     OW28691   4.507   3.404   4.146
 5688SOL    HW128692   4.476   3.397   4.236
 5688SOL    HW228693   4.543   3.318   4.127
 5689SOL     OW28694   0.780   3.868   0.563
 5689SOL    HW128695   0.685   3.861   0.566
 5689SOL    HW228696   0.809   3.791   0.514
 5690SOL     OW28697   1.798   4.504  10.031
 5690SOL    HW128698   1.893   4.508  10.045
 5690SOL    HW228699   1.762   4.494  10.119
 5691SOL     OW28700   2.659   4.764  27.671
 5691SOL    HW128701   2.663   0.017  27.581
 5691SOL    HW228702   2.620   4.677  27.662
 5692SOL     OW28703   1.964   0.061   5.650
 5692SOL    HW128704   2.011   0.075   5.732
 5692SOL    HW228705   1.937   4.750   5.653
 5693SOL     OW28706   0.459   4.520  21.812
 5693SOL    HW128707   0.431   4.539  21.722
 5693SOL    HW228708   0.522   4.589  21.833
 5694SOL     OW28709   3.090   2.139  10.022
 5694SOL    HW128710   3.136   2.119   9.941
 5694SOL    HW228711   3.047   2.057  10.046
 5695SOL     OW28712   3.966   0.235  21.015
 5695SOL    HW128713   4.033   0.245  21.083
 5695SOL    HW228714   3.902   0.304  21.034
 5696SOL     OW28715   2.549   1.865  21.353
 5696SOL    HW128716   2.501   1.847  21.434
 5696SOL    HW228717   2.489   1.839  21.283
 5697SOL     OW28718   0.579   2.998  18.121
 5697SOL    HW128719   0.646   2.988  18.189
 5697SOL    HW228720   0.616   3.063  18.061
 5698SOL     OW28721   3.874   4.541  18.472
 5698SOL    HW128722   3.940   4.502  18.529
 5698SOL    HW228723   3.857   4.475  18.405
 5699SOL     OW28724   0.653   1.242  24.850
 5699SOL    HW128725   0.636   1.334  24.872
 5699SOL    HW228726   0.644   1.238  24.755
 5700SOL     OW28727   0.839   1.198  21.548
 5700SOL    HW128728   0.802   1.285  21.561
 5700SOL    HW228729   0.829   1.155  21.633
 5701SOL     OW28730   3.687   2.873   3.795
 5701SOL    HW128731   3.776   2.875   3.761
 5701SOL    HW228732   3.686   2.798   3.855
 5702SOL     OW28733   4.345   1.326  20.298
 5702SOL    HW128734   4.281   1.257  20.312
 5702SOL    HW228735   4.360   1.326  20.203
 5703SOL     OW28736   3.615   4.337   6.852
 5703SOL    HW128737   3.603   4.364   6.943
 5703SOL    HW228738   3.537   4.369   6.807
 5704SOL     OW28739   4.373   0.814  27.265
 5704SOL    HW128740   4.288   0.849  27.294
 5704SOL    HW228741   4.437   0.877  27.299
 5705SOL     OW28742   0.309   3.905   8.282
 5705SOL    HW128743   0.385   3.927   8.336
 5705SOL    HW228744   0.332   3.822   8.240
 5706SOL     OW28745   3.927   0.899  17.566
 5706SOL    HW128746   3.943   0.978  17.515
 5706SOL    HW228747   3.924   0.829  17.501
 5707SOL     OW28748   2.938   4.178  24.370
 5707SOL    HW128749   2.846   4.153  24.382
 5707SOL    HW228750   2.982   4.096  24.348
 5708SOL     OW28751   1.243   0.194   6.488
 5708SOL    HW128752   1.310   0.128   6.503
 5708SOL    HW228753   1.215   0.221   6.576
 5709SOL     OW28754   4.087   3.336  22.449
 5709SOL    HW128755   4.093   3.366  22.540
 5709SOL    HW228756   4.129   3.250  22.449
 5710SOL     OW28757   3.442   3.764  28.068
 5710SOL    HW128758   3.456   3.678  28.029
 5710SOL    HW228759   3.524   3.785  28.112
 5711SOL     OW28760   4.385   3.009   5.742
 5711SOL    HW128761   4.419   3.046   5.823
 5711SOL    HW228762   4.331   3.079   5.704
 5712SOL     OW28763   3.769   4.520   6.015
 5712SOL    HW128764   3.767   4.440   6.068
 5712SOL    HW228765   3.862   4.541   6.006
 5713SOL     OW28766   4.065   4.705  19.029
 5713SOL    HW128767   4.131   4.637  19.019
 5713SOL    HW228768   4.108   0.004  18.998
 5714SOL     OW28769   3.952   4.273   4.478
 5714SOL    HW128770   3.950   4.202   4.543
 5714SOL    HW228771   3.924   4.351   4.527
 5715SOL     OW28772   1.505   1.069  18.438
 5715SOL    HW128773   1.562   1.053  18.363
 5715SOL    HW228774   1.524   0.998  18.499
 5716SOL     OW28775   2.090   1.382   1.798
 5716SOL    HW128776   2.106   1.454   1.738
 5716SOL    HW228777   2.134   1.408   1.879
 5717SOL     OW28778   3.791   1.683   6.468
 5717SOL    HW128779   3.759   1.768   6.497
 5717SOL    HW228780   3.831   1.700   6.383
 5718SOL     OW28781   4.082   4.413   3.923
 5718SOL    HW128782   4.039   4.328   3.921
 5718SOL    HW228783   4.124   4.417   4.009
 5719SOL     OW28784   0.793   3.821  10.228
 5719SOL    HW128785   0.754   3.876  10.296
 5719SOL    HW228786   0.885   3.848  10.224
 5720SOL     OW28787   0.697   4.376   7.959
 5720SOL    HW128788   0.602   4.379   7.967
 5720SOL    HW228789   0.721   4.288   7.988
 5721SOL     OW28790   1.658   0.066   4.373
 5721SOL    HW128791   1.613   4.770   4.409
 5721SOL    HW228792   1.666   0.126   4.447
 5722SOL     OW28793   0.302   2.391  10.474
 5722SOL    HW128794   0.266   2.480  10.471
 5722SOL    HW228795   0.397   2.404  10.480
 5723SOL     OW28796   1.184   0.551  16.463
 5723SOL    HW128797   1.129   0.628  16.451
 5723SOL    HW228798   1.257   0.581  16.517
 5724SOL     OW28799   3.409   0.536  10.989
 5724SOL    HW128800   3.425   0.499  10.902
 5724SOL    HW228801   3.493   0.531  11.034
 5725SOL     OW28802   0.529   3.216  23.150
 5725SOL    HW128803   0.594   3.151  23.175
 5725SOL    HW228804   0.492   3.247  23.233
 5726SOL     OW28805   1.913   3.488  27.269
 5726SOL    HW128806   1.842   3.430  27.297
 5726SOL    HW228807   1.877   3.576  27.276
 5727SOL     OW28808   2.997   2.200  27.171
 5727SOL    HW128809   2.967   2.115  27.140
 5727SOL    HW228810   2.982   2.259  27.097
 5728SOL     OW28811   0.112   1.559   0.732
 5728SOL    HW128812   0.084   1.631   0.675
 5728SOL    HW228813   0.204   1.545   0.710
 5729SOL     OW28814   2.390   2.238   0.626
 5729SOL    HW128815   2.367   2.271   0.539
 5729SOL    HW228816   2.306   2.214   0.666
 5730SOL     OW28817   3.424   0.230   4.861
 5730SOL    HW128818   3.438   0.214   4.768
 5730SOL    HW228819   3.362   0.162   4.888
 5731SOL     OW28820   1.679   0.093   0.533
 5731SOL    HW128821   1.598   0.127   0.570
 5731SOL    HW228822   1.729   0.062   0.608
 5732SOL     OW28823   1.297   0.350  21.336
 5732SOL    HW128824   1.373   0.352  21.277
 5732SOL    HW228825   1.223   0.330  21.279
 5733SOL     OW28826   3.545   0.563  22.693
 5733SOL    HW128827   3.534   0.528  22.605
 5733SOL    HW228828   3.456   0.574  22.725
 5734SOL     OW28829   2.238   3.592   6.938
 5734SOL    HW128830   2.311   3.531   6.945
 5734SOL    HW228831   2.267   3.670   6.986
 5735SOL     OW28832   0.731   1.459  18.152
 5735SOL    HW128833   0.638   1.455  18.132
 5735SOL    HW228834   0.745   1.392  18.219
 5736SOL     OW28835   0.301   3.674   3.766
 5736SOL    HW128836   0.306   3.723   3.684
 5736SOL    HW228837   0.247   3.598   3.745
 5737SOL     OW28838   3.070   3.268  17.001
 5737SOL    HW128839   3.024   3.203  16.947
 5737SOL    HW228840   3.151   3.286  16.953
 5738SOL     OW28841   4.367   3.390  21.513
 5738SOL    HW128842   4.377   3.389  21.608
 5738SOL    HW228843   4.273   3.402  21.499
 5739SOL     OW28844   4.086   3.160   5.689
 5739SOL    HW128845   4.020   3.223   5.719
 5739SOL    HW228846   4.158   3.214   5.658
 5740SOL     OW28847   1.114   4.095  11.941
 5740SOL    HW128848   1.162   4.144  12.008
 5740SOL    HW228849   1.089   4.161  11.876
 5741SOL     OW28850   2.347   1.806  26.681
 5741SOL    HW128851   2.386   1.745  26.743
 5741SOL    HW228852   2.422   1.843  26.633
 5742SOL     OW28853   1.567   0.268   3.129
 5742SOL    HW128854   1.657   0.299   3.123
 5742SOL    HW228855   1.514   0.346   3.112
 5743SOL     OW28856   3.484   2.797   7.235
 5743SOL    HW128857   3.415   2.786   7.170
 5743SOL    HW228858   3.484   2.714   7.283
 5744SOL     OW28859   2.072   3.481  24.611
 5744SOL    HW128860   2.091   3.435  24.693
 5744SOL    HW228861   2.157   3.513  24.581
 5745SOL     OW28862   3.825   1.430   3.966
 5745SOL    HW128863   3.824   1.488   3.890
 5745SOL    HW228864   3.740   1.443   4.007
 5746SOL     OW28865   3.494   4.101  22.709
 5746SOL    HW128866   3.412   4.054  22.693
 5746SOL    HW228867   3.467   4.181  22.754
 5747SOL     OW28868   3.689   1.732  23.797
 5747SOL    HW128869   3.626   1.774  23.855
 5747SOL    HW228870   3.636   1.685  23.733
 5748SOL     OW28871   4.163   3.033   4.899
 5748SOL    HW128872   4.077   3.010   4.935
 5748SOL    HW228873   4.223   2.968   4.936
 5749SOL     OW28874   1.547   0.981   4.656
 5749SOL    HW128875   1.556   0.886   4.656
 5749SOL    HW228876   1.587   1.009   4.574
 5750SOL     OW28877   1.564   3.691   7.709
 5750SOL    HW128878   1.469   3.697   7.720
 5750SOL    HW228879   1.592   3.628   7.775
 5751SOL     OW28880   2.257   2.592  26.215
 5751SOL    HW128881   2.300   2.650  26.277
 5751SOL    HW228882   2.201   2.650  26.163
 5752SOL     OW28883   2.218   3.558   6.431
 5752SOL    HW128884   2.185   3.468   6.437
 5752SOL    HW228885   2.193   3.598   6.514
 5753SOL     OW28886   0.857   4.689   9.475
 5753SOL    HW128887   0.813   4.666   9.393
 5753SOL    HW228888   0.795   4.746   9.520
 5754SOL     OW28889   1.123   0.537  17.819
 5754SOL    HW128890   1.087   0.626  17.815
 5754SOL    HW228891   1.131   0.510  17.727
 5755SOL     OW28892   0.891   0.157  25.334
 5755SOL    HW128893   0.839   0.208  25.396
 5755SOL    HW228894   0.916   0.220  25.266
 5756SOL     OW28895   0.338   0.761  21.867
 5756SOL    HW128896   0.255   0.808  21.859
 5756SOL    HW228897   0.348   0.745  21.961
 5757SOL     OW28898   2.724   4.443  28.365
 5757SOL    HW128899   2.788   4.413  28.301
 5757SOL    HW228900   2.639   4.425  28.325
 5758SOL     OW28901   0.836   0.035   9.063
 5758SOL    HW128902   0.774   0.099   9.098
 5758SOL    HW228903   0.791   4.777   8.988
 5759SOL     OW28904   4.647   3.573   6.903
 5759SOL    HW128905   4.600   3.655   6.886
 5759SOL    HW228906   4.739   3.596   6.893
 5760SOL     OW28907   3.765   1.752   1.352
 5760SOL    HW128908   3.707   1.799   1.412
 5760SOL    HW228909   3.726   1.766   1.266
 5761SOL     OW28910   1.951   3.640  18.952
 5761SOL    HW128911   1.891   3.567  18.967
 5761SOL    HW228912   1.895   3.711  18.921
 5762SOL     OW28913   1.193   1.002   2.251
 5762SOL    HW128914   1.130   1.021   2.181
 5762SOL    HW228915   1.141   1.004   2.331
 5763SOL     OW28916   1.922   2.164   8.496
 5763SOL    HW128917   1.919   2.075   8.460
 5763SOL    HW228918   2.015   2.186   8.499
 5764SOL     OW28919   1.824   2.444   9.301
 5764SOL    HW128920   1.876   2.519   9.272
 5764SOL    HW228921   1.748   2.483   9.344
 5765SOL     OW28922   3.499   0.347   8.963
 5765SOL    HW128923   3.561   0.368   9.033
 5765SOL    HW228924   3.458   0.265   8.991
 5766SOL     OW28925   2.291   3.106  21.990
 5766SOL    HW128926   2.211   3.109  22.043
 5766SOL    HW228927   2.261   3.082  21.902
 5767SOL     OW28928   3.430   3.552  25.917
 5767SOL    HW128929   3.437   3.526  26.009
 5767SOL    HW228930   3.345   3.595  25.910
 5768SOL     OW28931   2.582   0.045   7.828
 5768SOL    HW128932   2.657   0.019   7.775
 5768SOL    HW228933   2.601   0.009   7.915
 5769SOL     OW28934   0.764   0.079  24.676
 5769SOL    HW128935   0.798   0.040  24.756
 5769SOL    HW228936   0.669   0.078  24.687
 5770SOL     OW28937   1.348   0.784   2.251
 5770SOL    HW128938   1.289   0.859   2.254
 5770SOL    HW228939   1.432   0.818   2.282
 5771SOL     OW28940   2.084   0.658   6.181
 5771SOL    HW128941   2.023   0.609   6.126
 5771SOL    HW228942   2.096   0.741   6.136
 5772SOL     OW28943   0.128   4.778   0.566
 5772SOL    HW128944   0.038   0.010   0.595
 5772SOL    HW228945   0.164   0.086   0.561
 5773SOL     OW28946   0.606   3.686  28.008
 5773SOL    HW128947   0.552   3.727  28.075
 5773SOL    HW228948   0.593   3.740  27.930
 5774SOL     OW28949   2.008   2.987   1.427
 5774SOL    HW128950   1.998   3.080   1.447
 5774SOL    HW228951   2.055   2.985   1.344
 5775SOL     OW28952   3.403   3.268   1.463
 5775SOL    HW128953   3.408   3.195   1.401
 5775SOL    HW228954   3.478   3.323   1.440
 5776SOL     OW28955   1.385   3.283   5.830
 5776SOL    HW128956   1.399   3.306   5.738
 5776SOL    HW228957   1.294   3.307   5.847
 5777SOL     OW28958   4.441   1.484  24.678
 5777SOL    HW128959   4.496   1.453  24.605
 5777SOL    HW228960   4.462   1.425  24.750
 5778SOL     OW28961   3.082   1.566   1.820
 5778SOL    HW128962   3.046   1.641   1.867
 5778SOL    HW228963   3.035   1.565   1.736
 5779SOL     OW28964   1.644   1.982   3.602
 5779SOL    HW128965   1.654   1.897   3.645
 5779SOL    HW228966   1.733   2.009   3.582
 5780SOL     OW28967   1.856   4.421  22.145
 5780SOL    HW128968   1.947   4.422  22.175
 5780SOL    HW228969   1.845   4.506  22.102
 5781SOL     OW28970   2.934   0.114   7.019
 5781SOL    HW128971   2.933   0.059   6.940
 5781SOL    HW228972   2.856   0.086   7.068
 5782SOL     OW28973   0.575   2.807  28.155
 5782SOL    HW128974   0.665   2.836  28.170
 5782SOL    HW228975   0.554   2.753  28.231
 5783SOL     OW28976   1.297   1.968   8.048
 5783SOL    HW128977   1.325   1.900   8.109
 5783SOL    HW228978   1.232   2.019   8.096
 5784SOL     OW28979   0.655   1.651   4.388
 5784SOL    HW128980   0.737   1.622   4.428
 5784SOL    HW228981   0.670   1.744   4.369
 5785SOL     OW28982   0.486   2.699   0.960
 5785SOL    HW128983   0.444   2.692   0.874
 5785SOL    HW228984   0.514   2.790   0.966
 5786SOL     OW28985   3.978   1.983  28.151
 5786SOL    HW128986   3.963   2.014  28.062
 5786SOL    HW228987   4.072   1.966  28.155
 5787SOL     OW28988   0.085   2.015   5.676
 5787SOL    HW128989   0.172   2.016   5.637
 5787SOL    HW228990   0.027   2.043   5.605
 5788SOL     OW28991   2.508   2.182  19.394
 5788SOL    HW128992   2.504   2.102  19.341
 5788SOL    HW228993   2.463   2.248  19.341
 5789SOL     OW28994   3.258   2.716   6.042
 5789SOL    HW128995   3.331   2.713   6.104
 5789SOL    HW228996   3.180   2.717   6.098
 5790SOL     OW28997   2.777   2.019  17.525
 5790SOL    HW128998   2.723   2.028  17.604
 5790SOL    HW228999   2.796   1.925  17.520
 5791SOL     OW29000   2.834   1.351   0.691
 5791SOL    HW129001   2.927   1.330   0.690
 5791SOL    HW229002   2.831   1.446   0.699
 5792SOL     OW29003   0.312   1.789  26.165
 5792SOL    HW129004   0.322   1.710  26.218
 5792SOL    HW229005   0.396   1.834  26.174
 5793SOL     OW29006   4.244   3.343  25.598
 5793SOL    HW129007   4.215   3.339  25.689
 5793SOL    HW229008   4.334   3.311  25.600
 5794SOL     OW29009   3.500   1.720  25.103
 5794SOL    HW129010   3.595   1.736  25.102
 5794SOL    HW229011   3.462   1.807  25.116
 5795SOL     OW29012   1.285   0.546  18.021
 5795SOL    HW129013   1.282   0.636  18.052
 5795SOL    HW229014   1.221   0.543  17.950
 5796SOL     OW29015   3.889   1.675  11.776
 5796SOL    HW129016   3.895   1.690  11.870
 5796SOL    HW229017   3.842   1.592  11.767
 5797SOL     OW29018   2.065   3.601   1.708
 5797SOL    HW129019   2.089   3.528   1.765
 5797SOL    HW229020   2.013   3.561   1.639
 5798SOL     OW29021   2.849   4.140   7.022
 5798SOL    HW129022   2.837   4.195   7.099
 5798SOL    HW229023   2.781   4.169   6.961
 5799SOL     OW29024   3.664   2.953  21.576
 5799SOL    HW129025   3.702   3.039  21.558
 5799SOL    HW229026   3.662   2.946  21.671
 5800SOL     OW29027   2.580   0.334  20.527
 5800SOL    HW129028   2.520   0.289  20.587
 5800SOL    HW229029   2.555   0.426  20.532
 5801SOL     OW29030   2.366   3.565  22.604
 5801SOL    HW129031   2.295   3.600  22.657
 5801SOL    HW229032   2.386   3.635  22.541
 5802SOL     OW29033   1.406   3.880   6.780
 5802SOL    HW129034   1.474   3.828   6.737
 5802SOL    HW229035   1.374   3.825   6.851
 5803SOL     OW29036   4.774   1.261  18.540
 5803SOL    HW129037   0.070   1.310  18.570
 5803SOL    HW229038   0.012   1.241  18.448
 5804SOL     OW29039   0.808   0.438   5.923
 5804SOL    HW129040   0.753   0.362   5.905
 5804SOL    HW229041   0.895   0.412   5.893
 5805SOL     OW29042   0.460   1.278  23.663
 5805SOL    HW129043   0.443   1.372  23.654
 5805SOL    HW229044   0.543   1.273  23.711
 5806SOL     OW29045   0.545   0.579   3.023
 5806SOL    HW129046   0.479   0.649   3.028
 5806SOL    HW229047   0.563   0.556   3.114
 5807SOL     OW29048   3.824   0.653  27.080
 5807SOL    HW129049   3.829   0.583  27.015
 5807SOL    HW229050   3.875   0.725  27.042
 5808SOL     OW29051   3.057   2.227   5.658
 5808SOL    HW129052   3.084   2.187   5.741
 5808SOL    HW229053   3.107   2.180   5.591
 5809SOL     OW29054   3.949   1.943   1.473
 5809SOL    HW129055   4.023   1.904   1.519
 5809SOL    HW229056   3.888   1.870   1.460
 5810SOL     OW29057   4.339   1.045  23.067
 5810SOL    HW129058   4.378   1.022  22.983
 5810SOL    HW229059   4.252   1.005  23.065
 5811SOL     OW29060   2.523   3.411   5.027
 5811SOL    HW129061   2.508   3.504   5.012
 5811SOL    HW229062   2.526   3.402   5.122
 5812SOL     OW29063   3.084   2.815  23.126
 5812SOL    HW129064   3.018   2.881  23.108
 5812SOL    HW229065   3.050   2.735  23.085
 5813SOL     OW29066   2.445   3.287   6.245
 5813SOL    HW129067   2.514   3.337   6.287
 5813SOL    HW229068   2.370   3.295   6.304
 5814SOL     OW29069   3.361   2.848   2.277
 5814SOL    HW129070   3.399   2.929   2.311
 5814SOL    HW229071   3.377   2.784   2.346
 5815SOL     OW29072   1.120   2.630   5.762
 5815SOL    HW129073   1.168   2.684   5.825
 5815SOL    HW229074   1.125   2.541   5.798
 5816SOL     OW29075   2.542   3.421  19.581
 5816SOL    HW129076   2.466   3.465  19.619
 5816SOL    HW229077   2.616   3.476  19.607
 5817SOL     OW29078   2.093   4.035  21.319
 5817SOL    HW129079   2.175   3.995  21.290
 5817SOL    HW229080   2.109   4.129  21.311
 5818SOL     OW29081   3.806   1.061   4.314
 5818SOL    HW129082   3.813   1.081   4.221
 5818SOL    HW229083   3.770   0.972   4.317
 5819SOL     OW29084   4.184   3.249   5.240
 5819SOL    HW129085   4.141   3.317   5.291
 5819SOL    HW229086   4.174   3.277   5.149
 5820SOL     OW29087   0.720   3.031  21.209
 5820SOL    HW129088   0.676   3.116  21.204
 5820SOL    HW229089   0.803   3.044  21.163
 5821SOL     OW29090   3.171   4.078   8.842
 5821SOL    HW129091   3.149   4.083   8.935
 5821SOL    HW229092   3.261   4.045   8.840
 5822SOL     OW29093   3.041   1.003  19.620
 5822SOL    HW129094   3.058   0.924  19.671
 5822SOL    HW229095   2.968   1.045  19.665
 5823SOL     OW29096   0.716   1.790   2.252
 5823SOL    HW129097   0.810   1.785   2.271
 5823SOL    HW229098   0.674   1.755   2.330
 5824SOL     OW29099   1.434   0.337  24.299
 5824SOL    HW129100   1.492   0.413  24.311
 5824SOL    HW229101   1.373   0.341  24.373
 5825SOL     OW29102   4.756   0.821   3.286
 5825SOL    HW129103   4.743   0.754   3.219
 5825SOL    HW229104   0.011   0.774   3.361
 5826SOL     OW29105   1.856   0.396   9.917
 5826SOL    HW129106   1.780   0.438   9.877
 5826SOL    HW229107   1.829   0.306   9.933
 5827SOL     OW29108   3.902   3.759   0.625
 5827SOL    HW129109   3.887   3.784   0.716
 5827SOL    HW229110   3.816   3.767   0.584
 5828SOL     OW29111   3.253   1.824   0.063
 5828SOL    HW129112   3.320   1.789   0.121
 5828SOL    HW229113   3.172   1.817   0.113
 5829SOL     OW29114   3.345   0.326   2.767
 5829SOL    HW129115   3.280   0.321   2.837
 5829SOL    HW229116   3.309   0.272   2.697
 5830SOL     OW29117   1.256   1.783  19.681
 5830SOL    HW129118   1.239   1.801  19.589
 5830SOL    HW229119   1.304   1.700  19.681
 5831SOL     OW29120   0.164   3.363   0.254
 5831SOL    HW129121   0.102   3.429   0.284
 5831SOL    HW229122   0.197   3.323   0.334
 5832SOL     OW29123   4.106   3.098  28.341
 5832SOL    HW129124   4.140   3.025  28.393
 5832SOL    HW229125   4.126   3.075  28.250
 5833SOL     OW29126   2.458   3.067   9.081
 5833SOL    HW129127   2.368   3.054   9.052
 5833SOL    HW229128   2.450   3.116   9.163
 5834SOL     OW29129   0.860   4.210   9.994
 5834SOL    HW129130   0.845   4.268  10.069
 5834SOL    HW229131   0.820   4.256   9.920
 5835SOL     OW29132   4.018   3.848  21.606
 5835SOL    HW129133   4.055   3.873  21.521
 5835SOL    HW229134   4.022   3.752  21.607
 5836SOL     OW29135   2.344   1.653  19.753
 5836SOL    HW129136   2.337   1.661  19.658
 5836SOL    HW229137   2.262   1.689  19.786
 5837SOL     OW29138   0.101   3.601  23.980
 5837SOL    HW129139   0.088   3.532  23.915
 5837SOL    HW229140   0.109   3.681  23.928
 5838SOL     OW29141   2.049   0.980   2.417
 5838SOL    HW129142   2.039   1.063   2.371
 5838SOL    HW229143   2.133   0.945   2.386
 5839SOL     OW29144   4.274   1.341  27.641
 5839SOL    HW129145   4.247   1.378  27.557
 5839SOL    HW229146   4.262   1.413  27.703
 5840SOL     OW29147   2.660   2.599  26.477
 5840SOL    HW129148   2.642   2.531  26.412
 5840SOL    HW229149   2.575   2.617  26.517
 5841SOL     OW29150   3.475   4.354   2.618
 5841SOL    HW129151   3.403   4.305   2.658
 5841SOL    HW229152   3.508   4.410   2.688
 5842SOL     OW29153   0.377   1.511  24.705
 5842SOL    HW129154   0.318   1.437  24.693
 5842SOL    HW229155   0.441   1.502  24.634
 5843SOL     OW29156   3.709   2.331  24.392
 5843SOL    HW129157   3.652   2.254  24.393
 5843SOL    HW229158   3.753   2.326  24.307
 5844SOL     OW29159   0.740   2.438  26.102
 5844SOL    HW129160   0.772   2.395  26.022
 5844SOL    HW229161   0.819   2.465  26.148
 5845SOL     OW29162   0.152   2.424   5.808
 5845SOL    HW129163   0.179   2.372   5.884
 5845SOL    HW229164   0.163   2.365   5.734
 5846SOL     OW29165   1.813   1.835   3.957
 5846SOL    HW129166   1.779   1.821   3.869
 5846SOL    HW229167   1.735   1.840   4.012
 5847SOL     OW29168   0.362   3.588   2.802
 5847SOL    HW129169   0.361   3.500   2.765
 5847SOL    HW229170   0.440   3.591   2.857
 5848SOL     OW29171   2.824   1.269  18.338
 5848SOL    HW129172   2.795   1.178  18.338
 5848SOL    HW229173   2.770   1.312  18.404
 5849SOL     OW29174   4.451   2.275   1.032
 5849SOL    HW129175   4.406   2.348   1.073
 5849SOL    HW229176   4.404   2.197   1.062
 5850SOL     OW29177   2.267   1.484   8.908
 5850SOL    HW129178   2.249   1.391   8.920
 5850SOL    HW229179   2.197   1.528   8.956
 5851SOL     OW29180   4.138   2.386  17.745
 5851SOL    HW129181   4.098   2.428  17.821
 5851SOL    HW229182   4.163   2.299  17.776
 5852SOL     OW29183   2.931   3.754   2.622
 5852SOL    HW129184   2.877   3.680   2.594
 5852SOL    HW229185   2.869   3.826   2.634
 5853SOL     OW29186   1.528   1.982  23.431
 5853SOL    HW129187   1.466   2.021  23.369
 5853SOL    HW229188   1.614   2.006  23.397
 5854SOL     OW29189   0.545   2.325  28.500
 5854SOL    HW129190   0.635   2.343   0.009
 5854SOL    HW229191   0.548   2.330  28.405
 5855SOL     OW29192   0.728   1.886  25.217
 5855SOL    HW129193   0.709   1.829  25.292
 5855SOL    HW229194   0.650   1.879  25.162
 5856SOL     OW29195   1.153   1.211  20.817
 5856SOL    HW129196   1.075   1.258  20.847
 5856SOL    HW229197   1.224   1.250  20.868
 5857SOL     OW29198   4.599   0.429   1.608
 5857SOL    HW129199   4.620   0.459   1.519
 5857SOL    HW229200   4.506   0.409   1.605
 5858SOL     OW29201   1.341   4.160  26.299
 5858SOL    HW129202   1.434   4.182  26.298
 5858SOL    HW229203   1.307   4.201  26.378
 5859SOL     OW29204   0.067   3.619   9.028
 5859SOL    HW129205   0.055   3.535   9.072
 5859SOL    HW229206   0.103   3.597   8.942
 5860SOL     OW29207   3.240   0.043   3.616
 5860SOL    HW129208   3.262   0.064   3.525
 5860SOL    HW229209   3.320   0.061   3.665
 5861SOL     OW29210   3.989   0.754   3.386
 5861SOL    HW129211   3.968   0.847   3.383
 5861SOL    HW229212   4.078   0.748   3.351
 5862SOL     OW29213   2.673   0.552  21.488
 5862SOL    HW129214   2.687   0.632  21.437
 5862SOL    HW229215   2.582   0.558  21.517
 5863SOL     OW29216   2.841   3.445   2.304
 5863SOL    HW129217   2.932   3.421   2.322
 5863SOL    HW229218   2.800   3.452   2.390
 5864SOL     OW29219   3.782   2.197  17.585
 5864SOL    HW129220   3.756   2.285  17.611
 5864SOL    HW229221   3.867   2.208  17.543
 5865SOL     OW29222   1.215   1.947   5.065
 5865SOL    HW129223   1.291   1.989   5.106
 5865SOL    HW229224   1.191   1.877   5.125
 5866SOL     OW29225   0.948   1.853   6.239
 5866SOL    HW129226   0.940   1.811   6.154
 5866SOL    HW229227   0.864   1.897   6.252
 5867SOL     OW29228   1.011   2.301  21.074
 5867SOL    HW129229   0.920   2.273  21.063
 5867SOL    HW229230   1.030   2.353  20.996
 5868SOL     OW29231   0.610   0.236   2.730
 5868SOL    HW129232   0.693   0.229   2.777
 5868SOL    HW229233   0.596   0.149   2.693
 5869SOL     OW29234   2.192   3.194  27.355
 5869SOL    HW129235   2.223   3.125  27.297
 5869SOL    HW229236   2.197   3.274  27.303
 5870SOL     OW29237   0.610   1.354   1.901
 5870SOL    HW129238   0.660   1.351   1.819
 5870SOL    HW229239   0.640   1.433   1.945
 5871SOL     OW29240   0.239   2.157   1.260
 5871SOL    HW129241   0.160   2.121   1.301
 5871SOL    HW229242   0.253   2.103   1.183
 5872SOL     OW29243   1.523   4.666   1.061
 5872SOL    HW129244   1.476   4.746   1.082
 5872SOL    HW229245   1.455   4.605   1.033
 5873SOL     OW29246   2.197   3.019   2.273
 5873SOL    HW129247   2.253   3.031   2.196
 5873SOL    HW229248   2.258   3.024   2.347
 5874SOL     OW29249   1.535   3.254  18.337
 5874SOL    HW129250   1.470   3.254  18.407
 5874SOL    HW229251   1.517   3.175  18.287
 5875SOL     OW29252   4.202   4.020   8.376
 5875SOL    HW129253   4.255   4.094   8.405
 5875SOL    HW229254   4.262   3.945   8.380
 5876SOL     OW29255   1.037   2.349  24.865
 5876SOL    HW129256   0.942   2.343  24.855
 5876SOL    HW229257   1.072   2.302  24.789
 5877SOL     OW29258   0.827   4.157   7.996
 5877SOL    HW129259   0.889   4.097   8.037
 5877SOL    HW229260   0.800   4.112   7.916
 5878SOL     OW29261   3.231   1.519   4.632
 5878SOL    HW129262   3.143   1.507   4.597
 5878SOL    HW229263   3.267   1.431   4.639
 5879SOL     OW29264   1.245   1.209   1.641
 5879SOL    HW129265   1.225   1.119   1.666
 5879SOL    HW229266   1.341   1.212   1.636
 5880SOL     OW29267   0.612   4.239   5.665
 5880SOL    HW129268   0.707   4.248   5.662
 5880SOL    HW229269   0.579   4.329   5.665
 5881SOL     OW29270   0.369   2.227   9.046
 5881SOL    HW129271   0.350   2.252   8.956
 5881SOL    HW229272   0.428   2.295   9.079
 5882SOL     OW29273   2.638   1.334  18.745
 5882SOL    HW129274   2.731   1.354  18.759
 5882SOL    HW229275   2.625   1.342  18.651
 5883SOL     OW29276   0.315   0.491  27.819
 5883SOL    HW129277   0.258   0.435  27.766
 5883SOL    HW229278   0.353   0.432  27.884
 5884SOL     OW29279   1.992   2.012  22.718
 5884SOL    HW129280   2.049   1.948  22.760
 5884SOL    HW229281   1.999   1.993  22.625
 5885SOL     OW29282   1.355   1.004   1.305
 5885SOL    HW129283   1.407   0.937   1.260
 5885SOL    HW229284   1.415   1.042   1.369
 5886SOL     OW29285   0.021   1.183  11.903
 5886SOL    HW129286   0.063   1.113  11.953
 5886SOL    HW229287   0.034   1.262  11.956
 5887SOL     OW29288   1.975   2.658  22.054
 5887SOL    HW129289   1.952   2.706  21.975
 5887SOL    HW229290   1.917   2.694  22.122
 5888SOL     OW29291   2.396   3.856   6.887
 5888SOL    HW129292   2.440   3.874   6.970
 5888SOL    HW229293   2.464   3.818   6.831
 5889SOL     OW29294   3.138   0.691  21.589
 5889SOL    HW129295   3.226   0.653  21.590
 5889SOL    HW229296   3.083   0.621  21.553
 5890SOL     OW29297   2.419   3.101  23.674
 5890SOL    HW129298   2.380   3.059  23.751
 5890SOL    HW229299   2.369   3.182  23.663
 5891SOL     OW29300   3.102   1.779  27.263
 5891SOL    HW129301   3.146   1.698  27.238
 5891SOL    HW229302   3.150   1.809  27.340
 5892SOL     OW29303   1.119   2.325  20.758
 5892SOL    HW129304   1.143   2.234  20.777
 5892SOL    HW229305   1.183   2.354  20.693
 5893SOL     OW29306   1.215   4.350  19.614
 5893SOL    HW129307   1.202   4.305  19.697
 5893SOL    HW229308   1.145   4.416  19.611
 5894SOL     OW29309   3.961   0.585   1.105
 5894SOL    HW129310   3.885   0.582   1.163
 5894SOL    HW229311   4.000   0.671   1.121
 5895SOL     OW29312   1.577   1.608  23.163
 5895SOL    HW129313   1.543   1.611  23.253
 5895SOL    HW229314   1.502   1.581  23.110
 5896SOL     OW29315   2.900   3.194  21.562
 5896SOL    HW129316   2.957   3.213  21.487
 5896SOL    HW229317   2.959   3.190  21.637
 5897SOL     OW29318   2.587   0.830  27.112
 5897SOL    HW129319   2.675   0.862  27.131
 5897SOL    HW229320   2.595   0.735  27.115
 5898SOL     OW29321   1.483   2.064  26.299
 5898SOL    HW129322   1.523   2.091  26.216
 5898SOL    HW229323   1.398   2.109  26.301
 5899SOL     OW29324   0.762   0.800  24.989
 5899SOL    HW129325   0.699   0.728  24.997
 5899SOL    HW229326   0.734   0.863  25.056
 5900SOL     OW29327   4.039   4.081  24.442
 5900SOL    HW129328   4.024   4.120  24.356
 5900SOL    HW229329   3.971   4.014  24.450
 5901SOL     OW29330   3.554   0.370   2.081
 5901SOL    HW129331   3.460   0.375   2.062
 5901SOL    HW229332   3.577   0.279   2.064
 5902SOL     OW29333   2.613   0.452  26.990
 5902SOL    HW129334   2.529   0.436  27.033
 5902SOL    HW229335   2.590   0.498  26.909
 5903SOL     OW29336   3.565   1.645  18.451
 5903SOL    HW129337   3.597   1.729  18.485
 5903SOL    HW229338   3.474   1.663  18.426
 5904SOL     OW29339   3.809   1.184   6.254
 5904SOL    HW129340   3.812   1.163   6.161
 5904SOL    HW229341   3.889   1.145   6.290
 5905SOL     OW29342   4.661   4.769   0.415
 5905SOL    HW129343   4.677   0.082   0.404
 5905SOL    HW229344   4.748   4.729   0.417
 5906SOL     OW29345   0.517   0.538   3.362
 5906SOL    HW129346   0.556   0.624   3.378
 5906SOL    HW229347   0.581   0.493   3.307
 5907SOL     OW29348   3.416   2.780  24.772
 5907SOL    HW129349   3.357   2.846  24.809
 5907SOL    HW229350   3.499   2.794  24.817
 5908SOL     OW29351   3.572   4.238   3.639
 5908SOL    HW129352   3.635   4.197   3.580
 5908SOL    HW229353   3.544   4.317   3.592
 5909SOL     OW29354   1.259   1.424   7.132
 5909SOL    HW129355   1.175   1.471   7.137
 5909SOL    HW229356   1.310   1.459   7.205
 5910SOL     OW29357   3.993   3.501  28.185
 5910SOL    HW129358   4.001   3.546  28.101
 5910SOL    HW229359   4.063   3.537  28.239
 5911SOL     OW29360   3.690   0.548  19.109
 5911SOL    HW129361   3.750   0.614  19.075
 5911SOL    HW229362   3.604   0.574  19.074
 5912SOL     OW29363   4.523   0.614   7.052
 5912SOL    HW129364   4.555   0.576   7.134
 5912SOL    HW229365   4.538   0.708   7.061
 5913SOL     OW29366   1.602   1.430  26.446
 5913SOL    HW129367   1.587   1.517  26.410
 5913SOL    HW229368   1.661   1.445  26.520
 5914SOL     OW29369   2.993   3.945  22.055
 5914SOL    HW129370   2.982   3.885  21.982
 5914SOL    HW229371   3.057   4.009  22.024
 5915SOL     OW29372   1.192   4.291  20.196
 5915SOL    HW129373   1.247   4.232  20.248
 5915SOL    HW229374   1.106   4.250  20.196
 5916SOL     OW29375   1.489   4.571   0.350
 5916SOL    HW129376   1.527   4.607   0.430
 5916SOL    HW229377   1.540   4.492   0.333
 5917SOL     OW29378   1.457   2.954  24.138
 5917SOL    HW129379   1.410   2.890  24.191
 5917SOL    HW229380   1.546   2.920  24.132
 5918SOL     OW29381   2.430   4.651  22.959
 5918SOL    HW129382   2.474   4.572  22.990
 5918SOL    HW229383   2.471   4.669  22.874
 5919SOL     OW29384   0.594   0.126  23.460
 5919SOL    HW129385   0.616   0.034  23.448
 5919SOL    HW229386   0.623   0.147  23.549
 5920SOL     OW29387   3.561   1.629   1.071
 5920SOL    HW129388   3.643   1.670   1.044
 5920SOL    HW229389   3.525   1.688   1.137
 5921SOL     OW29390   3.043   3.385   8.502
 5921SOL    HW129391   2.994   3.406   8.423
 5921SOL    HW229392   2.996   3.429   8.573
 5922SOL     OW29393   3.508   2.449   0.006
 5922SOL    HW129394   3.513   2.396   0.085
 5922SOL    HW229395   3.425   2.497   0.014
 5923SOL     OW29396   2.787   3.749  18.298
 5923SOL    HW129397   2.883   3.750  18.299
 5923SOL    HW229398   2.762   3.820  18.357
 5924SOL     OW29399   4.021   3.335  23.096
 5924SOL    HW129400   3.972   3.334  23.178
 5924SOL    HW229401   4.112   3.325  23.123
 5925SOL     OW29402   2.981   3.964  28.094
 5925SOL    HW129403   3.050   3.909  28.057
 5925SOL    HW229404   3.025   4.014  28.163
 5926SOL     OW29405   1.862   2.903  25.124
 5926SOL    HW129406   1.879   2.809  25.129
 5926SOL    HW229407   1.948   2.943  25.133
 5927SOL     OW29408   1.722   3.577  22.567
 5927SOL    HW129409   1.745   3.650  22.624
 5927SOL    HW229410   1.805   3.533  22.549
 5928SOL     OW29411   4.415   2.537   2.431
 5928SOL    HW129412   4.336   2.538   2.485
 5928SOL    HW229413   4.433   2.444   2.417
 5929SOL     OW29414   3.862   3.417  24.351
 5929SOL    HW129415   3.784   3.469  24.332
 5929SOL    HW229416   3.931   3.482  24.366
 5930SOL     OW29417   4.334   1.190  27.043
 5930SOL    HW129418   4.365   1.257  27.104
 5930SOL    HW229419   4.399   1.120  27.050
 5931SOL     OW29420   0.379   2.428  25.582
 5931SOL    HW129421   0.413   2.372  25.512
 5931SOL    HW229422   0.453   2.440  25.642
 5932SOL     OW29423   0.528   1.309   0.353
 5932SOL    HW129424   0.615   1.297   0.315
 5932SOL    HW229425   0.521   1.403   0.368
 5933SOL     OW29426   3.962   3.283   6.276
 5933SOL    HW129427   3.920   3.367   6.295
 5933SOL    HW229428   3.932   3.224   6.345
 5934SOL     OW29429   0.458   1.186   8.099
 5934SOL    HW129430   0.514   1.260   8.075
 5934SOL    HW229431   0.397   1.222   8.163
 5935SOL     OW29432   0.177   3.373   1.489
 5935SOL    HW129433   0.178   3.321   1.409
 5935SOL    HW229434   0.154   3.461   1.460
 5936SOL     OW29435   4.045   0.783  10.249
 5936SOL    HW129436   4.029   0.800  10.156
 5936SOL    HW229437   3.970   0.731  10.277
 5937SOL     OW29438   1.835   1.426   2.898
 5937SOL    HW129439   1.759   1.481   2.880
 5937SOL    HW229440   1.847   1.432   2.993
 5938SOL     OW29441   4.423   2.755   5.859
 5938SOL    HW129442   4.452   2.697   5.788
 5938SOL    HW229443   4.422   2.842   5.820
 5939SOL     OW29444   3.611   4.263   3.261
 5939SOL    HW129445   3.613   4.350   3.222
 5939SOL    HW229446   3.699   4.252   3.297
 5940SOL     OW29447   3.147   0.170  21.811
 5940SOL    HW129448   3.187   0.109  21.749
 5940SOL    HW229449   3.171   0.136  21.897
 5941SOL     OW29450   4.126   4.371   4.890
 5941SOL    HW129451   4.202   4.401   4.840
 5941SOL    HW229452   4.082   4.309   4.832
 5942SOL     OW29453   0.412   1.934  23.779
 5942SOL    HW129454   0.457   1.992  23.840
 5942SOL    HW229455   0.372   1.868  23.835
 5943SOL     OW29456   2.023   0.936  19.727
 5943SOL    HW129457   2.037   1.022  19.767
 5943SOL    HW229458   1.990   0.956  19.639
 5944SOL     OW29459   1.669   0.025   1.539
 5944SOL    HW129460   1.639   0.010   1.629
 5944SOL    HW229461   1.764   0.021   1.545
 5945SOL     OW29462   3.245   2.062  24.233
 5945SOL    HW129463   3.220   1.970  24.229
 5945SOL    HW229464   3.164   2.108  24.253
 5946SOL     OW29465   2.287   4.023  20.304
 5946SOL    HW129466   2.305   3.937  20.342
 5946SOL    HW229467   2.268   4.005  20.212
 5947SOL     OW29468   2.053   1.888  20.336
 5947SOL    HW129469   2.015   1.863  20.420
 5947SOL    HW229470   2.115   1.958  20.358
 5948SOL     OW29471   4.362   1.862   1.308
 5948SOL    HW129472   4.362   1.931   1.242
 5948SOL    HW229473   4.276   1.867   1.349
 5949SOL     OW29474   0.459   2.692   7.256
 5949SOL    HW129475   0.406   2.621   7.220
 5949SOL    HW229476   0.414   2.772   7.228
 5950SOL     OW29477   2.402   3.714  21.559
 5950SOL    HW129478   2.467   3.659  21.603
 5950SOL    HW229479   2.354   3.756  21.630
 5951SOL     OW29480   0.373   4.701  24.397
 5951SOL    HW129481   0.367   4.623  24.452
 5951SOL    HW229482   0.451   4.747  24.429
 5952SOL     OW29483   2.235   3.817  17.144
 5952SOL    HW129484   2.237   3.803  17.049
 5952SOL    HW229485   2.299   3.754  17.178
 5953SOL     OW29486   0.437   3.283  26.659
 5953SOL    HW129487   0.414   3.208  26.604
 5953SOL    HW229488   0.379   3.353  26.629
 5954SOL     OW29489   2.607   3.016   7.590
 5954SOL    HW129490   2.658   3.051   7.517
 5954SOL    HW229491   2.668   2.958   7.636
 5955SOL     OW29492   3.148   3.095   4.850
 5955SOL    HW129493   3.190   3.023   4.897
 5955SOL    HW229494   3.117   3.154   4.919
 5956SOL     OW29495   2.789   0.670   7.819
 5956SOL    HW129496   2.737   0.662   7.739
 5956SOL    HW229497   2.803   0.764   7.830
 5957SOL     OW29498   1.986   4.063  23.653
 5957SOL    HW129499   1.917   4.130  23.656
 5957SOL    HW229500   1.946   3.986  23.692
 5958SOL     OW29501   0.293   4.699   5.754
 5958SOL    HW129502   0.331   0.006   5.745
 5958SOL    HW229503   0.221   4.710   5.815
 5959SOL     OW29504   0.136   2.002  22.626
 5959SOL    HW129505   0.145   1.926  22.684
 5959SOL    HW229506   0.142   1.965  22.538
 5960SOL     OW29507   1.950   2.138   4.336
 5960SOL    HW129508   1.911   2.225   4.337
 5960SOL    HW229509   1.993   2.132   4.251
 5961SOL     OW29510   0.555   3.749  22.437
 5961SOL    HW129511   0.522   3.835  22.410
 5961SOL    HW229512   0.649   3.753  22.422
 5962SOL     OW29513   0.791   3.425   4.414
 5962SOL    HW129514   0.701   3.417   4.445
 5962SOL    HW229515   0.845   3.388   4.484
 5963SOL     OW29516   2.519   4.170   7.142
 5963SOL    HW129517   2.542   4.251   7.188
 5963SOL    HW229518   2.464   4.198   7.069
 5964SOL     OW29519   3.519   4.361   1.953
 5964SOL    HW129520   3.591   4.317   1.908
 5964SOL    HW229521   3.443   4.304   1.939
 5965SOL     OW29522   1.300   0.327  27.875
 5965SOL    HW129523   1.334   0.336  27.964
 5965SOL    HW229524   1.285   0.417  27.846
 5966SOL     OW29525   0.115   4.450  20.812
 5966SOL    HW129526   0.093   4.525  20.867
 5966SOL    HW229527   0.084   4.474  20.725
 5967SOL     OW29528   1.993   1.790  26.941
 5967SOL    HW129529   2.088   1.802  26.933
 5967SOL    HW229530   1.958   1.878  26.955
 5968SOL     OW29531   3.147   4.720   8.578
 5968SOL    HW129532   3.105   4.748   8.660
 5968SOL    HW229533   3.222   4.668   8.606
 5969SOL     OW29534   0.124   4.450  22.511
 5969SOL    HW129535   0.208   4.481  22.545
 5969SOL    HW229536   0.127   4.471  22.418
 5970SOL     OW29537   1.787   3.532   5.592
 5970SOL    HW129538   1.693   3.544   5.582
 5970SOL    HW229539   1.805   3.559   5.682
 5971SOL     OW29540   2.617   1.495  27.913
 5971SOL    HW129541   2.621   1.539  27.998
 5971SOL    HW229542   2.587   1.563  27.852
 5972SOL     OW29543   0.272   1.278  10.082
 5972SOL    HW129544   0.368   1.278  10.085
 5972SOL    HW229545   0.250   1.231  10.002
 5973SOL     OW29546   3.141   0.764   3.149
 5973SOL    HW129547   3.191   0.683   3.151
 5973SOL    HW229548   3.187   0.822   3.210
 5974SOL     OW29549   1.798   0.712  22.373
 5974SOL    HW129550   1.821   0.680  22.286
 5974SOL    HW229551   1.703   0.722  22.371
 5975SOL     OW29552   3.636   2.133   2.451
 5975SOL    HW129553   3.553   2.178   2.436
 5975SOL    HW229554   3.637   2.116   2.545
 5976SOL     OW29555   0.600   4.048   1.070
 5976SOL    HW129556   0.647   4.092   0.999
 5976SOL    HW229557   0.508   4.069   1.054
 5977SOL     OW29558   1.605   0.335  23.227
 5977SOL    HW129559   1.536   0.326  23.162
 5977SOL    HW229560   1.610   0.249  23.269
 5978SOL     OW29561   3.716   0.451  25.813
 5978SOL    HW129562   3.637   0.437  25.760
 5978SOL    HW229563   3.689   0.427  25.902
 5979SOL     OW29564   2.509   3.712  25.134
 5979SOL    HW129565   2.514   3.623  25.100
 5979SOL    HW229566   2.584   3.757  25.096
 5980SOL     OW29567   0.522   0.017   4.164
 5980SOL    HW129568   0.502   4.708   4.193
 5980SOL    HW229569   0.461   0.033   4.092
 5981SOL     OW29570   1.307   4.317   7.919
 5981SOL    HW129571   1.328   4.310   8.012
 5981SOL    HW229572   1.265   4.402   7.910
 5982SOL     OW29573   4.357   4.548   4.970
 5982SOL    HW129574   4.448   4.535   4.942
 5982SOL    HW229575   4.344   4.483   5.039
 5983SOL     OW29576   4.583   4.066   2.166
 5983SOL    HW129577   4.655   4.129   2.157
 5983SOL    HW229578   4.605   3.996   2.104
 5984SOL     OW29579   3.298   1.029  28.446
 5984SOL    HW129580   3.376   1.050  28.497
 5984SOL    HW229581   3.316   1.066  28.359
 5985SOL     OW29582   0.343   0.512   3.900
 5985SOL    HW129583   0.251   0.521   3.876
 5985SOL    HW229584   0.360   0.588   3.956
 5986SOL     OW29585   1.100   3.489  23.025
 5986SOL    HW129586   1.155   3.433  23.080
 5986SOL    HW229587   1.152   3.568  23.012
 5987SOL     OW29588   3.164   3.896  20.089
 5987SOL    HW129589   3.159   3.963  20.158
 5987SOL    HW229590   3.082   3.906  20.040
 5988SOL     OW29591   0.037   3.902  26.910
 5988SOL    HW129592   4.756   3.929  26.979
 5988SOL    HW229593   4.775   3.826  26.869
 5989SOL     OW29594   3.372   0.304   1.035
 5989SOL    HW129595   3.451   0.352   1.059
 5989SOL    HW229596   3.301   0.366   1.050
 5990SOL     OW29597   0.121   0.999   2.056
 5990SOL    HW129598   0.095   1.025   2.144
 5990SOL    HW229599   0.101   1.075   2.002
 5991SOL     OW29600   2.191   3.794  24.625
 5991SOL    HW129601   2.279   3.794  24.589
 5991SOL    HW229602   2.152   3.876  24.595
 5992SOL     OW29603   0.914   0.244  23.878
 5992SOL    HW129604   0.886   0.261  23.968
 5992SOL    HW229605   0.919   0.149  23.872
 5993SOL     OW29606   2.983   1.630  24.666
 5993SOL    HW129607   2.930   1.552  24.681
 5993SOL    HW229608   2.970   1.650  24.573
 5994SOL     OW29609   1.626   3.422  19.741
 5994SOL    HW129610   1.678   3.497  19.769
 5994SOL    HW229611   1.582   3.452  19.661
 5995SOL     OW29612   1.468   3.317  19.230
 5995SOL    HW129613   1.379   3.343  19.255
 5995SOL    HW229614   1.466   3.316  19.134
 5996SOL     OW29615   0.474   4.604  26.149
 5996SOL    HW129616   0.391   4.584  26.106
 5996SOL    HW229617   0.540   4.562  26.095
 5997SOL     OW29618   2.598   1.178  28.217
 5997SOL    HW129619   2.598   1.156  28.310
 5997SOL    HW229620   2.677   1.231  28.205
 5998SOL     OW29621   2.961   4.076   9.036
 5998SOL    HW129622   2.929   4.085   9.126
 5998SOL    HW229623   2.965   3.981   9.021
 5999SOL     OW29624   0.018   2.032   3.636
 5999SOL    HW129625   0.036   2.114   3.683
 5999SOL    HW229626   4.756   2.060   3.555
 6000SOL     OW29627   4.658   3.149   1.443
 6000SOL    HW129628   4.604   3.196   1.506
 6000SOL    HW229629   4.603   3.143   1.365
 6001SOL     OW29630   1.274   4.266  27.984
 6001SOL    HW129631   1.283   4.241  27.892
 6001SOL    HW229632   1.278   4.183  28.032
 6002SOL     OW29633   1.402   2.696  24.814
 6002SOL    HW129634   1.460   2.767  24.787
 6002SOL    HW229635   1.458   2.619  24.816
 6003SOL     OW29636   3.602   1.387   6.275
 6003SOL    HW129637   3.657   1.310   6.260
 6003SOL    HW229638   3.656   1.461   6.247
 6004SOL     OW29639   3.427   2.674  20.774
 6004SOL    HW129640   3.405   2.637  20.859
 6004SOL    HW229641   3.491   2.742  20.794
 6005SOL     OW29642   3.644   2.363   3.133
 6005SOL    HW129643   3.594   2.319   3.064
 6005SOL    HW229644   3.644   2.301   3.206
 6006SOL     OW29645   1.635   1.292   2.335
 6006SOL    HW129646   1.610   1.202   2.314
 6006SOL    HW229647   1.684   1.322   2.258
 6007SOL     OW29648   3.216   1.715  19.541
 6007SOL    HW129649   3.184   1.640  19.491
 6007SOL    HW229650   3.146   1.780  19.534
 6008SOL     OW29651   3.975   0.776   0.090
 6008SOL    HW129652   3.899   0.835   0.094
 6008SOL    HW229653   4.019   0.789   0.174
 6009SOL     OW29654   2.882   0.624   4.306
 6009SOL    HW129655   2.923   0.678   4.373
 6009SOL    HW229656   2.788   0.633   4.323
 6010SOL     OW29657   0.245   3.297   3.157
 6010SOL    HW129658   0.240   3.248   3.239
 6010SOL    HW229659   0.172   3.359   3.162
 6011SOL     OW29660   2.496   2.760   1.916
 6011SOL    HW129661   2.449   2.699   1.859
 6011SOL    HW229662   2.427   2.815   1.954
 6012SOL     OW29663   0.321   0.797  24.842
 6012SOL    HW129664   0.255   0.825  24.778
 6012SOL    HW229665   0.351   0.878  24.883
 6013SOL     OW29666   4.363   2.508   8.234
 6013SOL    HW129667   4.453   2.531   8.213
 6013SOL    HW229668   4.364   2.413   8.245
 6014SOL     OW29669   0.039   2.526  27.850
 6014SOL    HW129670   0.059   2.615  27.880
 6014SOL    HW229671   4.746   2.498  27.905
 6015SOL     OW29672   2.097   0.844   8.492
 6015SOL    HW129673   2.180   0.852   8.444
 6015SOL    HW229674   2.094   0.923   8.546
 6016SOL     OW29675   4.746   3.197   2.526
 6016SOL    HW129676   4.754   3.292   2.519
 6016SOL    HW229677   0.030   3.173   2.592
 6017SOL     OW29678   0.878   2.812  26.114
 6017SOL    HW129679   0.812   2.859  26.165
 6017SOL    HW229680   0.961   2.830  26.159
 6018SOL     OW29681   3.164   2.221  22.654
 6018SOL    HW129682   3.098   2.184  22.712
 6018SOL    HW229683   3.238   2.161  22.660
 6019SOL     OW29684   0.269   2.869   2.816
 6019SOL    HW129685   0.183   2.828   2.827
 6019SOL    HW229686   0.329   2.814   2.866
 6020SOL     OW29687   4.070   0.671   9.924
 6020SOL    HW129688   4.052   0.714   9.840
 6020SOL    HW229689   3.990   0.622   9.943
 6021SOL     OW29690   0.876   2.787   3.723
 6021SOL    HW129691   0.865   2.773   3.629
 6021SOL    HW229692   0.921   2.871   3.729
 6022SOL     OW29693   1.863   3.191  24.745
 6022SOL    HW129694   1.912   3.120  24.704
 6022SOL    HW229695   1.929   3.240  24.793
 6023SOL     OW29696   3.771   2.261  23.757
 6023SOL    HW129697   3.741   2.350  23.739
 6023SOL    HW229698   3.706   2.225  23.817
 6024SOL     OW29699   2.286   1.300   3.861
 6024SOL    HW129700   2.267   1.242   3.935
 6024SOL    HW229701   2.271   1.246   3.783
 6025SOL     OW29702   4.763   2.847  23.653
 6025SOL    HW129703   0.050   2.900  23.611
 6025SOL    HW229704   4.778   2.859  23.747
 6026SOL     OW29705   1.568   3.079  22.796
 6026SOL    HW129706   1.576   3.085  22.891
 6026SOL    HW229707   1.658   3.074  22.764
 6027SOL     OW29708   4.293   4.062  10.937
 6027SOL    HW129709   4.286   3.977  10.894
 6027SOL    HW229710   4.203   4.083  10.963
 6028SOL     OW29711   2.872   3.958   3.480
 6028SOL    HW129712   2.961   3.958   3.515
 6028SOL    HW229713   2.882   3.923   3.391
 6029SOL     OW29714   2.891   1.766  17.496
 6029SOL    HW129715   2.974   1.813  17.507
 6029SOL    HW229716   2.896   1.694  17.558
 6030SOL     OW29717   3.195   1.548  24.992
 6030SOL    HW129718   3.218   1.516  24.905
 6030SOL    HW229719   3.266   1.517  25.048
 6031SOL     OW29720   2.413   3.868  18.528
 6031SOL    HW129721   2.404   3.799  18.462
 6031SOL    HW229722   2.487   3.921  18.497
 6032SOL     OW29723   0.323   2.404  23.791
 6032SOL    HW129724   0.291   2.427  23.878
 6032SOL    HW229725   0.264   2.335  23.761
 6033SOL     OW29726   4.017   2.089  23.539
 6033SOL    HW129727   4.030   2.175  23.498
 6033SOL    HW229728   4.106   2.056  23.553
 6034SOL     OW29729   2.001   0.185  20.090
 6034SOL    HW129730   1.967   0.239  20.019
 6034SOL    HW229731   1.964   0.098  20.074
 6035SOL     OW29732   0.557   3.802  23.424
 6035SOL    HW129733   0.633   3.784  23.480
 6035SOL    HW229734   0.537   3.718  23.383
 6036SOL     OW29735   2.147   0.151  27.085
 6036SOL    HW129736   2.082   0.209  27.125
 6036SOL    HW229737   2.229   0.200  27.090
 6037SOL     OW29738   0.195   0.813   7.942
 6037SOL    HW129739   0.167   0.801   8.033
 6037SOL    HW229740   0.115   0.836   7.895
 6038SOL     OW29741   2.006   1.327  25.249
 6038SOL    HW129742   1.977   1.405  25.203
 6038SOL    HW229743   1.927   1.273  25.257
 6039SOL     OW29744   1.885   0.301   7.534
 6039SOL    HW129745   1.969   0.346   7.528
 6039SOL    HW229746   1.832   0.340   7.464
 6040SOL     OW29747   4.396   3.582   4.646
 6040SOL    HW129748   4.417   3.566   4.554
 6040SOL    HW229749   4.480   3.575   4.691
 6041SOL     OW29750   1.532   1.354   5.375
 6041SOL    HW129751   1.621   1.367   5.343
 6041SOL    HW229752   1.541   1.344   5.470
 6042SOL     OW29753   1.541   1.553   4.022
 6042SOL    HW129754   1.461   1.504   4.043
 6042SOL    HW229755   1.553   1.541   3.928
 6043SOL     OW29756   4.165   2.712   5.199
 6043SOL    HW129757   4.214   2.794   5.201
 6043SOL    HW229758   4.134   2.701   5.289
 6044SOL     OW29759   1.531   1.545  24.254
 6044SOL    HW129760   1.444   1.582  24.238
 6044SOL    HW229761   1.542   1.480  24.184
 6045SOL     OW29762   3.543   0.812   7.117
 6045SOL    HW129763   3.603   0.833   7.045
 6045SOL    HW229764   3.580   0.733   7.157
 6046SOL     OW29765   0.886   0.066  26.723
 6046SOL    HW129766   0.791   0.075  26.716
 6046SOL    HW229767   0.910   0.010  26.649
 6047SOL     OW29768   0.207   4.740  19.875
 6047SOL    HW129769   0.140   0.018  19.912
 6047SOL    HW229770   0.290   4.776  19.906
 6048SOL     OW29771   0.105   3.302   6.501
 6048SOL    HW129772   0.055   3.337   6.575
 6048SOL    HW229773   0.196   3.319   6.523
 6049SOL     OW29774   0.868   2.847  24.411
 6049SOL    HW129775   0.950   2.849  24.362
 6049SOL    HW229776   0.802   2.821  24.346
 6050SOL     OW29777   4.478   1.691   2.068
 6050SOL    HW129778   4.511   1.688   2.158
 6050SOL    HW229779   4.393   1.646   2.073
 6051SOL     OW29780   4.149   1.058  28.359
 6051SOL    HW129781   4.169   1.152  28.363
 6051SOL    HW229782   4.229   1.018  28.325
 6052SOL     OW29783   2.518   2.213   8.268
 6052SOL    HW129784   2.534   2.149   8.338
 6052SOL    HW229785   2.542   2.167   8.188
 6053SOL     OW29786   4.652   2.216  27.666
 6053SOL    HW129787   4.685   2.297  27.706
 6053SOL    HW229788   4.603   2.245  27.589
 6054SOL     OW29789   3.528   2.492  22.954
 6054SOL    HW129790   3.480   2.541  23.021
 6054SOL    HW229791   3.491   2.522  22.871
 6055SOL     OW29792   1.030   3.752  21.420
 6055SOL    HW129793   0.980   3.788  21.347
 6055SOL    HW229794   0.985   3.785  21.498
 6056SOL     OW29795   4.697   1.726   4.235
 6056SOL    HW129796   4.717   1.815   4.206
 6056SOL    HW229797   0.001   1.681   4.235
 6057SOL     OW29798   3.704   1.806  20.995
 6057SOL    HW129799   3.711   1.892  21.037
 6057SOL    HW229800   3.630   1.763  21.039
 6058SOL     OW29801   1.507   3.937  24.016
 6058SOL    HW129802   1.533   3.975  23.932
 6058SOL    HW229803   1.413   3.919  24.006
 6059SOL     OW29804   3.275   3.073   3.904
 6059SOL    HW129805   3.251   3.163   3.927
 6059SOL    HW229806   3.279   3.027   3.988
 6060SOL     OW29807   1.200   2.754  27.708
 6060SOL    HW129808   1.203   2.660  27.691
 6060SOL    HW229809   1.130   2.786  27.651
 6061SOL     OW29810   3.415   3.354  11.189
 6061SOL    HW129811   3.427   3.282  11.128
 6061SOL    HW229812   3.335   3.332  11.237
 6062SOL     OW29813   2.139   4.504  23.241
 6062SOL    HW129814   2.155   4.410  23.228
 6062SOL    HW229815   2.076   4.508  23.312
 6063SOL     OW29816   4.494   1.302  24.912
 6063SOL    HW129817   4.411   1.297  24.864
 6063SOL    HW229818   4.516   1.211  24.932
 6064SOL     OW29819   3.636   4.049   4.525
 6064SOL    HW129820   3.711   4.007   4.567
 6064SOL    HW229821   3.630   4.135   4.568
 6065SOL     OW29822   4.457   3.184  23.247
 6065SOL    HW129823   4.390   3.208  23.183
 6065SOL    HW229824   4.409   3.168  23.328
 6066SOL     OW29825   0.199   2.837   0.602
 6066SOL    HW129826   0.192   2.891   0.523
 6066SOL    HW229827   0.154   2.888   0.670
 6067SOL     OW29828   0.140   2.538  22.721
 6067SOL    HW129829   0.170   2.450  22.697
 6067SOL    HW229830   0.174   2.595  22.652
 6068SOL     OW29831   4.624   1.017   0.406
 6068SOL    HW129832   4.715   0.992   0.393
 6068SOL    HW229833   4.601   1.066   0.327
 6069SOL     OW29834   2.981   2.154  17.724
 6069SOL    HW129835   2.943   2.232  17.764
 6069SOL    HW229836   3.075   2.172  17.721
 6070SOL     OW29837   0.056   4.759  28.408
 6070SOL    HW129838   4.766   4.752  28.473
 6070SOL    HW229839   0.137   4.761  28.460
 6071SOL     OW29840   3.382   1.424   9.008
 6071SOL    HW129841   3.388   1.337   8.969
 6071SOL    HW229842   3.392   1.409   9.102
 6072SOL     OW29843   0.190   0.024   7.443
 6072SOL    HW129844   0.264   0.023   7.382
 6072SOL    HW229845   0.230   0.041   7.528
 6073SOL     OW29846   3.246   4.708   3.321
 6073SOL    HW129847   3.259   0.022   3.323
 6073SOL    HW229848   3.333   4.672   3.301
 6074SOL     OW29849   0.643   2.590   7.810
 6074SOL    HW129850   0.711   2.570   7.874
 6074SOL    HW229851   0.616   2.505   7.776
 6075SOL     OW29852   4.768   2.900   7.784
 6075SOL    HW129853   0.021   2.984   7.754
 6075SOL    HW229854   4.696   2.922   7.843
 6076SOL     OW29855   1.765   3.242   2.208
 6076SOL    HW129856   1.742   3.149   2.216
 6076SOL    HW229857   1.841   3.252   2.266
 6077SOL     OW29858   4.378   0.523  22.430
 6077SOL    HW129859   4.379   0.619  22.424
 6077SOL    HW229860   4.416   0.493  22.347
 6078SOL     OW29861   0.660   4.044  23.235
 6078SOL    HW129862   0.699   3.981  23.295
 6078SOL    HW229863   0.635   3.992  23.158
 6079SOL     OW29864   3.482   0.284  25.842
 6079SOL    HW129865   3.466   0.370  25.803
 6079SOL    HW229866   3.500   0.227  25.767
 6080SOL     OW29867   3.449   0.407   7.303
 6080SOL    HW129868   3.540   0.390   7.280
 6080SOL    HW229869   3.450   0.492   7.346
 6081SOL     OW29870   0.766   2.086  22.167
 6081SOL    HW129871   0.817   2.167  22.169
 6081SOL    HW229872   0.773   2.056  22.076
 6082SOL     OW29873   4.584   1.540   8.303
 6082SOL    HW129874   4.640   1.610   8.270
 6082SOL    HW229875   4.552   1.573   8.387
 6083SOL     OW29876   1.968   4.449  21.061
 6083SOL    HW129877   1.999   4.393  21.132
 6083SOL    HW229878   2.046   4.495  21.030
 6084SOL     OW29879   1.244   1.501  21.716
 6084SOL    HW129880   1.182   1.508  21.643
 6084SOL    HW229881   1.326   1.535  21.680
 6085SOL     OW29882   2.274   1.369   1.243
 6085SOL    HW129883   2.287   1.464   1.250
 6085SOL    HW229884   2.313   1.346   1.159
 6086SOL     OW29885   3.238   0.316  26.621
 6086SOL    HW129886   3.170   0.299  26.556
 6086SOL    HW229887   3.316   0.273  26.586
 6087SOL     OW29888   3.747   2.218   6.677
 6087SOL    HW129889   3.809   2.182   6.741
 6087SOL    HW229890   3.701   2.287   6.725
 6088SOL     OW29891   0.049   0.555  26.833
 6088SOL    HW129892   0.099   0.619  26.783
 6088SOL    HW229893   0.114   0.491  26.862
 6089SOL     OW29894   3.951   0.422   4.345
 6089SOL    HW129895   4.032   0.471   4.360
 6089SOL    HW229896   3.976   0.350   4.288
 6090SOL     OW29897   1.899   4.004  27.144
 6090SOL    HW129898   1.982   3.964  27.169
 6090SOL    HW229899   1.888   4.077  27.205
 6091SOL     OW29900   1.692   0.395   8.820
 6091SOL    HW129901   1.763   0.391   8.756
 6091SOL    HW229902   1.624   0.339   8.783
 6092SOL     OW29903   4.053   2.688  28.341
 6092SOL    HW129904   4.094   2.750  28.281
 6092SOL    HW229905   4.040   2.609  28.289
 6093SOL     OW29906   2.229   1.642  24.559
 6093SOL    HW129907   2.286   1.706  24.516
 6093SOL    HW229908   2.152   1.637  24.503
 6094SOL     OW29909   0.673   2.613  22.443
 6094SOL    HW129910   0.585   2.583  22.420
 6094SOL    HW229911   0.696   2.562  22.520
 6095SOL     OW29912   0.455   3.366   8.256
 6095SOL    HW129913   0.513   3.332   8.324
 6095SOL    HW229914   0.370   3.374   8.298
 6096SOL     OW29915   4.417   0.784  23.699
 6096SOL    HW129916   4.411   0.700  23.745
 6096SOL    HW229917   4.483   0.834  23.747
 6097SOL     OW29918   0.008   1.675  22.162
 6097SOL    HW129919   4.707   1.722  22.181
 6097SOL    HW229920   0.068   1.743  22.133
 6098SOL     OW29921   2.588   0.528  26.438
 6098SOL    HW129922   2.583   0.555  26.346
 6098SOL    HW229923   2.501   0.495  26.458
 6099SOL     OW29924   4.071   3.898   3.771
 6099SOL    HW129925   4.044   3.990   3.765
 6099SOL    HW229926   4.166   3.901   3.781
 6100SOL     OW29927   0.212   4.652   6.264
 6100SOL    HW129928   0.290   4.657   6.319
 6100SOL    HW229929   0.203   4.559   6.244
 6101SOL     OW29930   2.258   3.669   9.054
 6101SOL    HW129931   2.303   3.723   9.119
 6101SOL    HW229932   2.324   3.606   9.025
 6102SOL     OW29933   1.530   3.673   0.769
 6102SOL    HW129934   1.465   3.743   0.762
 6102SOL    HW229935   1.575   3.674   0.684
 6103SOL     OW29936   0.493   2.330   2.894
 6103SOL    HW129937   0.408   2.352   2.857
 6103SOL    HW229938   0.475   2.257   2.953
 6104SOL     OW29939   1.631   3.682   6.149
 6104SOL    HW129940   1.553   3.628   6.161
 6104SOL    HW229941   1.615   3.730   6.068
 6105SOL     OW29942   0.330   3.451   3.455
 6105SOL    HW129943   0.306   3.529   3.405
 6105SOL    HW229944   0.407   3.416   3.410
 6106SOL     OW29945   4.495   2.293  20.475
 6106SOL    HW129946   4.414   2.303  20.424
 6106SOL    HW229947   4.553   2.360  20.440
 6107SOL     OW29948   3.380   3.832   6.667
 6107SOL    HW129949   3.406   3.750   6.626
 6107SOL    HW229950   3.306   3.862   6.615
 6108SOL     OW29951   1.230   4.276   2.739
 6108SOL    HW129952   1.162   4.225   2.783
 6108SOL    HW229953   1.235   4.357   2.790
 6109SOL     OW29954   3.335   3.771   8.103
 6109SOL    HW129955   3.416   3.769   8.153
 6109SOL    HW229956   3.327   3.862   8.074
 6110SOL     OW29957   4.549   3.747  21.830
 6110SOL    HW129958   4.586   3.818  21.883
 6110SOL    HW229959   4.584   3.762  21.742
 6111SOL     OW29960   0.843   0.933  25.847
 6111SOL    HW129961   0.809   0.924  25.936
 6111SOL    HW229962   0.937   0.916  25.855
 6112SOL     OW29963   0.094   4.556  25.549
 6112SOL    HW129964   0.103   4.651  25.539
 6112SOL    HW229965   0.100   4.521  25.460
 6113SOL     OW29966   4.411   4.449  21.577
 6113SOL    HW129967   4.484   4.478  21.522
 6113SOL    HW229968   4.451   4.427  21.661
 6114SOL     OW29969   1.053   0.881   3.303
 6114SOL    HW129970   0.989   0.894   3.373
 6114SOL    HW229971   1.010   0.823   3.241
 6115SOL     OW29972   0.176   2.032  11.023
 6115SOL    HW129973   0.238   2.104  11.032
 6115SOL    HW229974   0.115   2.044  11.095
 6116SOL     OW29975   0.476   0.771  25.764
 6116SOL    HW129976   0.382   0.783  25.777
 6116SOL    HW229977   0.503   0.848  25.713
 6117SOL     OW29978   1.040   1.568   4.318
 6117SOL    HW129979   1.030   1.645   4.262
 6117SOL    HW229980   0.983   1.586   4.393
 6118SOL     OW29981   3.389   1.727  27.109
 6118SOL    HW129982   3.395   1.818  27.079
 6118SOL    HW229983   3.480   1.699  27.117
 6119SOL     OW29984   1.592   2.930   3.458
 6119SOL    HW129985   1.504   2.944   3.492
 6119SOL    HW229986   1.599   2.992   3.386
 6120SOL     OW29987   3.468   3.572  22.826
 6120SOL    HW129988   3.521   3.548  22.902
 6120SOL    HW229989   3.378   3.556  22.854
 6121SOL     OW29990   3.011   0.825   1.279
 6121SOL    HW129991   2.925   0.854   1.247
 6121SOL    HW229992   2.991   0.762   1.348
 6122SOL     OW29993   4.258   1.702   7.576
 6122SOL    HW129994   4.249   1.726   7.484
 6122SOL    HW229995   4.323   1.631   7.576
 6123SOL     OW29996   0.214   0.048   7.704
 6123SOL    HW129997   0.137   0.100   7.727
 6123SOL    HW229998   0.286   0.089   7.752
 6124SOL     OW29999   0.396   2.825  25.344
 6124SOL    HW130000   0.353   2.845  25.427
 6124SOL    HW230001   0.431   2.909  25.314
 6125SOL     OW30002   3.115   1.932  17.603
 6125SOL    HW130003   3.177   1.965  17.538
 6125SOL    HW230004   3.067   2.010  17.631
 6126SOL     OW30005   2.142   3.139   3.024
 6126SOL    HW130006   2.171   3.144   3.115
 6126SOL    HW230007   2.196   3.070   2.985
 6127SOL     OW30008   4.256   0.611   7.387
 6127SOL    HW130009   4.284   0.542   7.446
 6127SOL    HW230010   4.181   0.651   7.431
 6128SOL     OW30011   2.748   2.659   1.971
 6128SOL    HW130012   2.823   2.711   1.941
 6128SOL    HW230013   2.672   2.716   1.957
 6129SOL     OW30014   2.454   4.010   4.275
 6129SOL    HW130015   2.385   4.056   4.227
 6129SOL    HW230016   2.529   4.009   4.215
 6130SOL     OW30017   0.959   4.501  21.337
 6130SOL    HW130018   0.890   4.492  21.271
 6130SOL    HW230019   1.040   4.481  21.290
 6131SOL     OW30020   0.112   1.055  26.622
 6131SOL    HW130021   0.200   1.031  26.593
 6131SOL    HW230022   0.084   0.983  26.679
 6132SOL     OW30023   3.507   4.515   9.248
 6132SOL    HW130024   3.477   4.431   9.283
 6132SOL    HW230025   3.431   4.550   9.202
 6133SOL     OW30026   2.079   1.792  23.606
 6133SOL    HW130027   2.034   1.714  23.637
 6133SOL    HW230028   2.013   1.861  23.610
 6134SOL     OW30029   3.156   4.643  23.966
 6134SOL    HW130030   3.204   4.726  23.960
 6134SOL    HW230031   3.200   4.595  24.036
 6135SOL     OW30032   4.719   0.319   6.901
 6135SOL    HW130033   4.625   0.311   6.918
 6135SOL    HW230034   4.733   0.413   6.892
 6136SOL     OW30035   0.793   2.882  25.256
 6136SOL    HW130036   0.704   2.871  25.223
 6136SOL    HW230037   0.839   2.929  25.187
 6137SOL     OW30038   2.711   2.936  22.743
 6137SOL    HW130039   2.699   3.023  22.704
 6137SOL    HW230040   2.732   2.879  22.669
 6138SOL     OW30041   0.233   2.788  25.925
 6138SOL    HW130042   0.270   2.722  25.867
 6138SOL    HW230043   0.161   2.826  25.875
 6139SOL     OW30044   0.620   2.207   7.986
 6139SOL    HW130045   0.707   2.243   7.968
 6139SOL    HW230046   0.579   2.198   7.900
 6140SOL     OW30047   3.116   4.209   6.651
 6140SOL    HW130048   3.093   4.116   6.655
 6140SOL    HW230049   3.126   4.228   6.558
 6141SOL     OW30050   1.625   0.794   4.939
 6141SOL    HW130051   1.586   0.866   4.989
 6141SOL    HW230052   1.636   0.829   4.851
 6142SOL     OW30053   4.018   2.561   4.138
 6142SOL    HW130054   4.054   2.640   4.179
 6142SOL    HW230055   4.053   2.489   4.190
 6143SOL     OW30056   0.360   2.039   1.007
 6143SOL    HW130057   0.346   1.973   0.939
 6143SOL    HW230058   0.443   2.081   0.983
 6144SOL     OW30059   2.791   1.863  25.849
 6144SOL    HW130060   2.835   1.875  25.765
 6144SOL    HW230061   2.712   1.813  25.827
 6145SOL     OW30062   2.895   2.452   1.100
 6145SOL    HW130063   2.954   2.451   1.175
 6145SOL    HW230064   2.953   2.448   1.024
 6146SOL     OW30065   1.191   1.560  19.393
 6146SOL    HW130066   1.103   1.563  19.430
 6146SOL    HW230067   1.232   1.485  19.436
 6147SOL     OW30068   1.826   1.308  25.821
 6147SOL    HW130069   1.883   1.257  25.764
 6147SOL    HW230070   1.823   1.259  25.903
 6148SOL     OW30071   0.645   3.285   8.541
 6148SOL    HW130072   0.570   3.273   8.599
 6148SOL    HW230073   0.654   3.201   8.496
 6149SOL     OW30074   2.621   3.501   9.920
 6149SOL    HW130075   2.589   3.412   9.931
 6149SOL    HW230076   2.552   3.556   9.958
 6150SOL     OW30077   2.651   2.391   0.322
 6150SOL    HW130078   2.558   2.372   0.312
 6150SOL    HW230079   2.674   2.354   0.407
 6151SOL     OW30080   0.294   0.589   5.127
 6151SOL    HW130081   0.380   0.547   5.136
 6151SOL    HW230082   0.307   0.656   5.060
 6152SOL     OW30083   4.202   1.578  18.796
 6152SOL    HW130084   4.248   1.651  18.755
 6152SOL    HW230085   4.228   1.502  18.744
 6153SOL     OW30086   1.253   1.921  24.376
 6153SOL    HW130087   1.255   1.863  24.300
 6153SOL    HW230088   1.162   1.920  24.405
 6154SOL     OW30089   1.703   3.468  23.692
 6154SOL    HW130090   1.693   3.519  23.772
 6154SOL    HW230091   1.781   3.415  23.707
 6155SOL     OW30092   3.259   0.674   2.421
 6155SOL    HW130093   3.216   0.759   2.420
 6155SOL    HW230094   3.347   0.692   2.389
 6156SOL     OW30095   4.635   0.675   3.642
 6156SOL    HW130096   4.577   0.675   3.566
 6156SOL    HW230097   4.578   0.693   3.716
 6157SOL     OW30098   0.425   1.951  22.302
 6157SOL    HW130099   0.450   1.943  22.210
 6157SOL    HW230100   0.330   1.960  22.301
 6158SOL     OW30101   4.753   2.949  25.336
 6158SOL    HW130102   4.724   2.980  25.250
 6158SOL    HW230103   4.674   2.953  25.391
 6159SOL     OW30104   4.432   1.632  27.731
 6159SOL    HW130105   4.491   1.588  27.792
 6159SOL    HW230106   4.478   1.631  27.647
 6160SOL     OW30107   4.157   1.486  11.984
 6160SOL    HW130108   4.233   1.488  12.042
 6160SOL    HW230109   4.143   1.393  11.965
 6161SOL     OW30110   2.909   4.677  25.481
 6161SOL    HW130111   2.949   4.641  25.560
 6161SOL    HW230112   2.823   4.635  25.476
 6162SOL     OW30113   2.890   2.345  26.071
 6162SOL    HW130114   2.970   2.353  26.019
 6162SOL    HW230115   2.819   2.351  26.007
 6163SOL     OW30116   0.370   4.376  10.035
 6163SOL    HW130117   0.317   4.455  10.045
 6163SOL    HW230118   0.363   4.331  10.119
 6164SOL     OW30119   2.311   0.592   3.072
 6164SOL    HW130120   2.363   0.516   3.047
 6164SOL    HW230121   2.317   0.651   2.997
 6165SOL     OW30122   3.700   0.645  23.792
 6165SOL    HW130123   3.775   0.601  23.753
 6165SOL    HW230124   3.628   0.631  23.730
 6166SOL     OW30125   2.401   4.351  22.616
 6166SOL    HW130126   2.412   4.420  22.551
 6166SOL    HW230127   2.312   4.319  22.602
 6167SOL     OW30128   4.684   1.088  25.908
 6167SOL    HW130129   4.660   1.180  25.918
 6167SOL    HW230130   4.602   1.044  25.884
 6168SOL     OW30131   3.640   1.955  20.178
 6168SOL    HW130132   3.576   1.978  20.110
 6168SOL    HW230133   3.652   2.036  20.227
 6169SOL     OW30134   2.035   1.692  21.804
 6169SOL    HW130135   1.954   1.702  21.853
 6169SOL    HW230136   2.007   1.660  21.718
 6170SOL     OW30137   3.744   1.864   8.389
 6170SOL    HW130138   3.800   1.894   8.461
 6170SOL    HW230139   3.714   1.945   8.347
 6171SOL     OW30140   1.352   4.555   5.319
 6171SOL    HW130141   1.288   4.503   5.368
 6171SOL    HW230142   1.375   4.626   5.378
 6172SOL     OW30143   3.800   2.449  20.314
 6172SOL    HW130144   3.774   2.460  20.223
 6172SOL    HW230145   3.887   2.409  20.309
 6173SOL     OW30146   3.234   2.721  20.069
 6173SOL    HW130147   3.275   2.805  20.047
 6173SOL    HW230148   3.250   2.711  20.163
 6174SOL     OW30149   3.576   2.112   7.601
 6174SOL    HW130150   3.653   2.141   7.650
 6174SOL    HW230151   3.549   2.031   7.644
 6175SOL     OW30152   1.460   2.535  20.110
 6175SOL    HW130153   1.553   2.530  20.086
 6175SOL    HW230154   1.431   2.444  20.112
 6176SOL     OW30155   0.905   0.374   7.340
 6176SOL    HW130156   0.985   0.415   7.307
 6176SOL    HW230157   0.935   0.293   7.381
 6177SOL     OW30158   2.665   1.026  24.873
 6177SOL    HW130159   2.591   1.085  24.864
 6177SOL    HW230160   2.633   0.942  24.840
 6178SOL     OW30161   1.187   4.162   5.685
 6178SOL    HW130162   1.268   4.112   5.674
 6178SOL    HW230163   1.145   4.123   5.762
 6179SOL     OW30164   0.662   2.920   8.073
 6179SOL    HW130165   0.649   2.903   7.980
 6179SOL    HW230166   0.755   2.902   8.089
 6180SOL     OW30167   2.604   1.528   5.319
 6180SOL    HW130168   2.677   1.577   5.357
 6180SOL    HW230169   2.612   1.541   5.225
 6181SOL     OW30170   3.944   2.276  20.900
 6181SOL    HW130171   3.961   2.263  20.993
 6181SOL    HW230172   3.905   2.194  20.871
 6182SOL     OW30173   2.817   1.618   0.753
 6182SOL    HW130174   2.767   1.625   0.834
 6182SOL    HW230175   2.818   1.707   0.718
 6183SOL     OW30176   2.822   0.448  11.999
 6183SOL    HW130177   2.742   0.409  12.034
 6183SOL    HW230178   2.794   0.491  11.918
 6184SOL     OW30179   0.687   0.861   1.920
 6184SOL    HW130180   0.629   0.806   1.867
 6184SOL    HW230181   0.725   0.923   1.858
 6185SOL     OW30182   4.483   2.258   2.038
 6185SOL    HW130183   4.421   2.214   1.980
 6185SOL    HW230184   4.525   2.324   1.983
 6186SOL     OW30185   3.662   3.177  23.564
 6186SOL    HW130186   3.668   3.202  23.656
 6186SOL    HW230187   3.608   3.098  23.564
 6187SOL     OW30188   1.777   0.035   2.341
 6187SOL    HW130189   1.771   0.028   2.436
 6187SOL    HW230190   1.860   4.774   2.319
 6188SOL     OW30191   0.741   2.672  21.404
 6188SOL    HW130192   0.777   2.669  21.315
 6188SOL    HW230193   0.799   2.617  21.456
 6189SOL     OW30194   3.866   2.726   0.027
 6189SOL    HW130195   3.937   2.763  28.494
 6189SOL    HW230196   3.882   2.632   0.025
 6190SOL     OW30197   3.867   1.418   4.496
 6190SOL    HW130198   3.859   1.513   4.500
 6190SOL    HW230199   3.899   1.400   4.407
 6191SOL     OW30200   2.799   3.756   3.962
 6191SOL    HW130201   2.801   3.813   4.039
 6191SOL    HW230202   2.875   3.783   3.911
 6192SOL     OW30203   3.380   0.655   0.887
 6192SOL    HW130204   3.446   0.602   0.931
 6192SOL    HW230205   3.394   0.639   0.794
 6193SOL     OW30206   0.044   0.339  19.545
 6193SOL    HW130207   0.037   0.427  19.508
 6193SOL    HW230208   0.109   0.347  19.615
 6194SOL     OW30209   4.011   3.345  24.636
 6194SOL    HW130210   4.052   3.268  24.597
 6194SOL    HW230211   3.970   3.390  24.562
 6195SOL     OW30212   2.919   4.427   6.106
 6195SOL    HW130213   2.907   4.402   6.198
 6195SOL    HW230214   2.877   4.357   6.056
 6196SOL     OW30215   3.883   1.124   4.061
 6196SOL    HW130216   3.814   1.169   4.012
 6196SOL    HW230217   3.906   1.185   4.131
 6197SOL     OW30218   1.463   4.332  25.818
 6197SOL    HW130219   1.403   4.258  25.806
 6197SOL    HW230220   1.534   4.316  25.756
 6198SOL     OW30221   2.286   3.784  20.413
 6198SOL    HW130222   2.240   3.726  20.353
 6198SOL    HW230223   2.228   3.791  20.489
 6199SOL     OW30224   3.749   2.850  27.797
 6199SOL    HW130225   3.730   2.793  27.722
 6199SOL    HW230226   3.713   2.935  27.772
 6200SOL     OW30227   3.318   0.022  18.827
 6200SOL    HW130228   3.347   0.081  18.758
 6200SOL    HW230229   3.254   0.072  18.877
 6201SOL     OW30230   0.089   4.421   4.721
 6201SOL    HW130231   0.118   4.509   4.745
 6201SOL    HW230232   0.110   4.367   4.797
 6202SOL     OW30233   1.471   1.351  27.051
 6202SOL    HW130234   1.378   1.327  27.053
 6202SOL    HW230235   1.501   1.340  27.141
 6203SOL     OW30236   4.528   3.875   3.697
 6203SOL    HW130237   4.560   3.824   3.623
 6203SOL    HW230238   4.586   3.951   3.702
 6204SOL     OW30239   4.601   3.689  18.938
 6204SOL    HW130240   4.641   3.743  18.870
 6204SOL    HW230241   4.593   3.602  18.898
 6205SOL     OW30242   2.065   2.495   3.221
 6205SOL    HW130243   2.085   2.554   3.294
 6205SOL    HW230244   2.131   2.426   3.227
 6206SOL     OW30245   4.401   0.624   9.464
 6206SOL    HW130246   4.413   0.673   9.383
 6206SOL    HW230247   4.466   0.660   9.524
 6207SOL     OW30248   0.460   4.480   5.701
 6207SOL    HW130249   0.405   4.558   5.707
 6207SOL    HW230250   0.523   4.500   5.632
 6208SOL     OW30251   4.505   4.407   7.830
 6208SOL    HW130252   4.458   4.326   7.848
 6208SOL    HW230253   4.558   4.388   7.752
 6209SOL     OW30254   0.925   2.231   1.736
 6209SOL    HW130255   0.918   2.170   1.810
 6209SOL    HW230256   0.865   2.196   1.670
 6210SOL     OW30257   4.332   4.684   5.336
 6210SOL    HW130258   4.237   4.694   5.331
 6210SOL    HW230259   4.365   4.774   5.330
 6211SOL     OW30260   4.122   0.392   6.322
 6211SOL    HW130261   4.137   0.445   6.244
 6211SOL    HW230262   4.141   0.451   6.395
 6212SOL     OW30263   2.728   3.320   5.477
 6212SOL    HW130264   2.707   3.379   5.550
 6212SOL    HW230265   2.823   3.313   5.479
 6213SOL     OW30266   3.421   2.254  21.054
 6213SOL    HW130267   3.494   2.301  21.015
 6213SOL    HW230268   3.367   2.227  20.980
 6214SOL     OW30269   4.342   0.821   6.702
 6214SOL    HW130270   4.351   0.880   6.627
 6214SOL    HW230271   4.298   0.874   6.769
 6215SOL     OW30272   4.302   2.213   7.566
 6215SOL    HW130273   4.370   2.278   7.546
 6215SOL    HW230274   4.252   2.252   7.638
 6216SOL     OW30275   0.440   4.453   4.575
 6216SOL    HW130276   0.379   4.446   4.649
 6216SOL    HW230277   0.416   4.381   4.517
 6217SOL     OW30278   2.937   3.959   3.164
 6217SOL    HW130279   3.028   3.990   3.165
 6217SOL    HW230280   2.902   3.990   3.081
 6218SOL     OW30281   4.586   3.606  21.396
 6218SOL    HW130282   4.647   3.665  21.441
 6218SOL    HW230283   4.619   3.518  21.416
 6219SOL     OW30284   4.660   4.039   6.975
 6219SOL    HW130285   4.596   3.968   6.968
 6219SOL    HW230286   4.713   4.016   7.052
 6220SOL     OW30287   1.617   3.241  24.093
 6220SOL    HW130288   1.545   3.184  24.118
 6220SOL    HW230289   1.624   3.304  24.165
 6221SOL     OW30290   1.168   3.761   7.289
 6221SOL    HW130291   1.176   3.671   7.321
 6221SOL    HW230292   1.105   3.755   7.217
 6222SOL     OW30293   4.602   3.345   8.159
 6222SOL    HW130294   4.659   3.323   8.085
 6222SOL    HW230295   4.655   3.404   8.213
 6223SOL     OW30296   0.132   1.048   0.367
 6223SOL    HW130297   0.181   1.130   0.367
 6223SOL    HW230298   0.135   1.018   0.458
 6224SOL     OW30299   2.380   2.093  28.202
 6224SOL    HW130300   2.437   2.145  28.146
 6224SOL    HW230301   2.307   2.067  28.145
 6225SOL     OW30302   0.244   3.068  23.729
 6225SOL    HW130303   0.248   2.980  23.692
 6225SOL    HW230304   0.181   3.061  23.801
 6226SOL     OW30305   2.543   0.400   3.996
 6226SOL    HW130306   2.532   0.330   4.060
 6226SOL    HW230307   2.600   0.362   3.929
 6227SOL     OW30308   1.977   2.574   2.590
 6227SOL    HW130309   1.966   2.623   2.509
 6227SOL    HW230310   2.033   2.500   2.566
 6228SOL     OW30311   4.298   3.618  20.659
 6228SOL    HW130312   4.242   3.541  20.663
 6228SOL    HW230313   4.241   3.687  20.624
 6229SOL     OW30314   0.996   4.728  12.533
 6229SOL    HW130315   1.075   4.681  12.504
 6229SOL    HW230316   0.936   4.659  12.560
 6230SOL     OW30317   2.345   2.920   6.477
 6230SOL    HW130318   2.312   2.877   6.398
 6230SOL    HW230319   2.382   2.849   6.530
 6231SOL     OW30320   2.098   0.624  27.621
 6231SOL    HW130321   2.141   0.543  27.648
 6231SOL    HW230322   2.108   0.626  27.526
 6232SOL     OW30323   4.612   4.445  20.163
 6232SOL    HW130324   4.600   4.496  20.083
 6232SOL    HW230325   4.686   4.486  20.207
 6233SOL     OW30326   3.977   2.596  11.253
 6233SOL    HW130327   3.921   2.530  11.293
 6233SOL    HW230328   4.013   2.645  11.327
 6234SOL     OW30329   4.193   1.591   3.491
 6234SOL    HW130330   4.245   1.652   3.543
 6234SOL    HW230331   4.161   1.527   3.554
 6235SOL     OW30332   0.358   0.822   4.984
 6235SOL    HW130333   0.278   0.874   4.978
 6235SOL    HW230334   0.417   0.876   5.037
 6236SOL     OW30335   3.908   4.591  20.859
 6236SOL    HW130336   3.838   4.582  20.795
 6236SOL    HW230337   3.983   4.623  20.809
 6237SOL     OW30338   2.977   1.356   3.751
 6237SOL    HW130339   2.929   1.394   3.824
 6237SOL    HW230340   3.069   1.378   3.768
 6238SOL     OW30341   0.013   3.519  20.680
 6238SOL    HW130342   0.101   3.554  20.666
 6238SOL    HW230343   0.002   3.452  20.612
 6239SOL     OW30344   4.631   4.126  22.423
 6239SOL    HW130345   4.565   4.175  22.472
 6239SOL    HW230346   4.707   4.184  22.421
 6240SOL     OW30347   0.678   2.660   9.046
 6240SOL    HW130348   0.743   2.730   9.040
 6240SOL    HW230349   0.729   2.580   9.057
 6241SOL     OW30350   2.576   3.702  24.786
 6241SOL    HW130351   2.573   3.795  24.763
 6241SOL    HW230352   2.500   3.689  24.842
 6242SOL     OW30353   1.134   3.869   1.684
 6242SOL    HW130354   1.102   3.907   1.602
 6242SOL    HW230355   1.088   3.786   1.692
 6243SOL     OW30356   3.029   3.260   5.515
 6243SOL    HW130357   3.116   3.254   5.555
 6243SOL    HW230358   3.040   3.322   5.443
 6244SOL     OW30359   0.769   3.573  24.994
 6244SOL    HW130360   0.741   3.600  24.907
 6244SOL    HW230361   0.864   3.563  24.987
 6245SOL     OW30362   1.794   3.647   6.904
 6245SOL    HW130363   1.831   3.576   6.956
 6245SOL    HW230364   1.868   3.706   6.889
 6246SOL     OW30365   4.531   3.514   3.436
 6246SOL    HW130366   4.498   3.509   3.526
 6246SOL    HW230367   4.452   3.524   3.382
 6247SOL     OW30368   4.395   2.948   1.861
 6247SOL    HW130369   4.370   2.924   1.772
 6247SOL    HW230370   4.490   2.934   1.864
 6248SOL     OW30371   1.313   2.444   8.138
 6248SOL    HW130372   1.345   2.440   8.048
 6248SOL    HW230373   1.338   2.360   8.176
 6249SOL     OW30374   4.498   3.442   2.177
 6249SOL    HW130375   4.413   3.485   2.186
 6249SOL    HW230376   4.507   3.389   2.256
 6250SOL     OW30377   3.349   3.233   6.849
 6250SOL    HW130378   3.281   3.223   6.916
 6250SOL    HW230379   3.402   3.154   6.858
 6251SOL     OW30380   2.175   4.312   4.758
 6251SOL    HW130381   2.230   4.242   4.722
 6251SOL    HW230382   2.103   4.266   4.801
 6252SOL     OW30383   0.102   1.373  19.525
 6252SOL    HW130384   0.137   1.431  19.592
 6252SOL    HW230385   0.134   1.286  19.549
 6253SOL     OW30386   3.769   2.870   0.253
 6253SOL    HW130387   3.812   2.846   0.171
 6253SOL    HW230388   3.687   2.911   0.226
 6254SOL     OW30389   1.448   3.904  28.050
 6254SOL    HW130390   1.407   3.977  28.096
 6254SOL    HW230391   1.375   3.850  28.020
 6255SOL     OW30392   0.184   4.678   7.011
 6255SOL    HW130393   0.147   4.724   6.936
 6255SOL    HW230394   0.191   4.745   7.079
 6256SOL     OW30395   2.057   0.786   0.492
 6256SOL    HW130396   2.001   0.826   0.425
 6256SOL    HW230397   2.048   0.692   0.478
 6257SOL     OW30398   0.272   1.715   3.217
 6257SOL    HW130399   0.279   1.648   3.285
 6257SOL    HW230400   0.299   1.670   3.137
 6258SOL     OW30401   2.568   2.875   6.996
 6258SOL    HW130402   2.649   2.826   7.013
 6258SOL    HW230403   2.557   2.930   7.073
 6259SOL     OW30404   2.550   0.886  10.598
 6259SOL    HW130405   2.526   0.854  10.685
 6259SOL    HW230406   2.468   0.919  10.561
 6260SOL     OW30407   1.099   0.098  16.649
 6260SOL    HW130408   1.182   0.106  16.602
 6260SOL    HW230409   1.106   0.014  16.695
 6261SOL     OW30410   3.194   4.112   3.232
 6261SOL    HW130411   3.229   4.059   3.303
 6261SOL    HW230412   3.253   4.096   3.158
 6262SOL     OW30413   3.584   1.872   8.744
 6262SOL    HW130414   3.585   1.859   8.649
 6262SOL    HW230415   3.560   1.787   8.780
 6263SOL     OW30416   3.793   4.148  22.072
 6263SOL    HW130417   3.888   4.152  22.081
 6263SOL    HW230418   3.767   4.072  22.124
 6264SOL     OW30419   2.665   1.612   7.581
 6264SOL    HW130420   2.663   1.700   7.543
 6264SOL    HW230421   2.711   1.622   7.664
 6265SOL     OW30422   1.037   3.901  18.761
 6265SOL    HW130423   1.117   3.925  18.809
 6265SOL    HW230424   1.037   3.958  18.684
 6266SOL     OW30425   3.894   2.468   6.937
 6266SOL    HW130426   3.874   2.541   6.996
 6266SOL    HW230427   3.943   2.508   6.865
 6267SOL     OW30428   3.865   0.576   3.516
 6267SOL    HW130429   3.934   0.512   3.499
 6267SOL    HW230430   3.902   0.659   3.486
 6268SOL     OW30431   2.820   1.339   8.963
 6268SOL    HW130432   2.800   1.378   8.878
 6268SOL    HW230433   2.832   1.246   8.944
 6269SOL     OW30434   4.160   1.043   7.733
 6269SOL    HW130435   4.199   1.037   7.646
 6269SOL    HW230436   4.066   1.049   7.716
 6270SOL     OW30437   4.276   3.519  25.027
 6270SOL    HW130438   4.201   3.470  25.060
 6270SOL    HW230439   4.267   3.605  25.067
 6271SOL     OW30440   4.588   2.557  27.638
 6271SOL    HW130441   4.554   2.637  27.679
 6271SOL    HW230442   4.682   2.572  27.629
 6272SOL     OW30443   1.876   1.249  21.714
 6272SOL    HW130444   1.815   1.317  21.684
 6272SOL    HW230445   1.846   1.227  21.802
 6273SOL     OW30446   4.577   1.117  24.471
 6273SOL    HW130447   4.587   1.064  24.550
 6273SOL    HW230448   4.592   1.056  24.399
 6274SOL     OW30449   1.796   1.418  23.146
 6274SOL    HW130450   1.756   1.331  23.140
 6274SOL    HW230451   1.723   1.477  23.164
 6275SOL     OW30452   2.896   4.580   7.372
 6275SOL    HW130453   2.989   4.579   7.351
 6275SOL    HW230454   2.879   4.670   7.401
 6276SOL     OW30455   0.493   3.419   5.356
 6276SOL    HW130456   0.482   3.325   5.341
 6276SOL    HW230457   0.405   3.450   5.375
 6277SOL     OW30458   0.095   1.671   0.107
 6277SOL    HW130459   0.146   1.746   0.075
 6277SOL    HW230460   0.109   1.603   0.042
 6278SOL     OW30461   4.569   2.518   0.165
 6278SOL    HW130462   4.616   2.501   0.247
 6278SOL    HW230463   4.637   2.518   0.098
 6279SOL     OW30464   2.715   1.100  20.132
 6279SOL    HW130465   2.671   1.015  20.136
 6279SOL    HW230466   2.676   1.144  20.056
 6280SOL     OW30467   2.022   1.526   6.639
 6280SOL    HW130468   2.082   1.484   6.700
 6280SOL    HW230469   1.980   1.454   6.592
 6281SOL     OW30470   3.261   1.937  25.196
 6281SOL    HW130471   3.221   2.000  25.135
 6281SOL    HW230472   3.328   1.987  25.242
 6282SOL     OW30473   1.099   3.855   8.782
 6282SOL    HW130474   1.079   3.948   8.775
 6282SOL    HW230475   1.194   3.852   8.797
 6283SOL     OW30476   0.921   3.792   6.648
 6283SOL    HW130477   1.006   3.827   6.620
 6283SOL    HW230478   0.857   3.849   6.605
 6284SOL     OW30479   3.092   0.342  21.600
 6284SOL    HW130480   3.154   0.415  21.606
 6284SOL    HW230481   3.114   0.286  21.674
 6285SOL     OW30482   3.661   2.427  22.354
 6285SOL    HW130483   3.630   2.507  22.396
 6285SOL    HW230484   3.666   2.449  22.261
 6286SOL     OW30485   2.845   0.651  24.431
 6286SOL    HW130486   2.822   0.643  24.338
 6286SOL    HW230487   2.912   0.584  24.445
 6287SOL     OW30488   2.212   2.405  22.209
 6287SOL    HW130489   2.297   2.401  22.165
 6287SOL    HW230490   2.231   2.448  22.292
 6288SOL     OW30491   3.816   0.148  25.085
 6288SOL    HW130492   3.725   0.169  25.066
 6288SOL    HW230493   3.840   0.082  25.020
 6289SOL     OW30494   4.466   1.600   1.357
 6289SOL    HW130495   4.401   1.670   1.362
 6289SOL    HW230496   4.419   1.527   1.316
 6290SOL     OW30497   2.825   0.292  27.662
 6290SOL    HW130498   2.854   0.383  27.651
 6290SOL    HW230499   2.879   0.242  27.600
 6291SOL     OW30500   2.119   2.487  21.884
 6291SOL    HW130501   2.140   2.564  21.831
 6291SOL    HW230502   2.064   2.521  21.955
 6292SOL     OW30503   3.499   0.754   3.854
 6292SOL    HW130504   3.564   0.693   3.890
 6292SOL    HW230505   3.430   0.758   3.921
 6293SOL     OW30506   0.279   3.183   4.633
 6293SOL    HW130507   0.256   3.270   4.667
 6293SOL    HW230508   0.279   3.127   4.710
 6294SOL     OW30509   2.829   4.555  26.371
 6294SOL    HW130510   2.820   4.537  26.277
 6294SOL    HW230511   2.749   4.602  26.394
 6295SOL     OW30512   1.647   4.643  21.248
 6295SOL    HW130513   1.559   4.680  21.246
 6295SOL    HW230514   1.635   4.551  21.226
 6296SOL     OW30515   2.472   0.206   4.394
 6296SOL    HW130516   2.397   0.199   4.336
 6296SOL    HW230517   2.494   0.299   4.394
 6297SOL     OW30518   2.378   2.459  21.326
 6297SOL    HW130519   2.370   2.469  21.421
 6297SOL    HW230520   2.290   2.435  21.297
 6298SOL     OW30521   1.127   2.486  11.334
 6298SOL    HW130522   1.048   2.538  11.351
 6298SOL    HW230523   1.118   2.459  11.243
 6299SOL     OW30524   0.702   3.962   2.786
 6299SOL    HW130525   0.724   3.918   2.868
 6299SOL    HW230526   0.608   3.980   2.792
 6300SOL     OW30527   1.925   4.022   8.455
 6300SOL    HW130528   1.856   3.961   8.482
 6300SOL    HW230529   1.968   3.978   8.382
 6301SOL     OW30530   1.234   0.628   8.560
 6301SOL    HW130531   1.220   0.703   8.502
 6301SOL    HW230532   1.168   0.638   8.628
 6302SOL     OW30533   1.730   0.563  23.227
 6302SOL    HW130534   1.709   0.608  23.309
 6302SOL    HW230535   1.679   0.482  23.230
 6303SOL     OW30536   0.337   3.426  24.783
 6303SOL    HW130537   0.378   3.348  24.820
 6303SOL    HW230538   0.344   3.415  24.688
 6304SOL     OW30539   4.780   2.020   1.016
 6304SOL    HW130540   4.695   2.014   0.972
 6304SOL    HW230541   0.056   1.962   0.965
 6305SOL     OW30542   1.712   1.857   1.856
 6305SOL    HW130543   1.674   1.818   1.777
 6305SOL    HW230544   1.802   1.824   1.859
 6306SOL     OW30545   0.092   0.112   2.245
 6306SOL    HW130546   0.068   0.024   2.273
 6306SOL    HW230547   0.027   0.134   2.178
 6307SOL     OW30548   4.339   0.652  12.442
 6307SOL    HW130549   4.371   0.600  12.516
 6307SOL    HW230550   4.265   0.702  12.478
 6308SOL     OW30551   3.639   0.538   4.146
 6308SOL    HW130552   3.729   0.507   4.153
 6308SOL    HW230553   3.595   0.470   4.096
 6309SOL     OW30554   3.800   1.538   6.877
 6309SOL    HW130555   3.753   1.586   6.945
 6309SOL    HW230556   3.732   1.488   6.832
 6310SOL     OW30557   1.499   4.562  11.960
 6310SOL    HW130558   1.495   4.656  11.980
 6310SOL    HW230559   1.546   4.524  12.034
 6311SOL     OW30560   1.404   1.543  26.662
 6311SOL    HW130561   1.454   1.464  26.683
 6311SOL    HW230562   1.312   1.516  26.667
 6312SOL     OW30563   1.321   2.690  11.360
 6312SOL    HW130564   1.298   2.599  11.341
 6312SOL    HW230565   1.279   2.741  11.290
 6313SOL     OW30566   2.394   1.932   3.817
 6313SOL    HW130567   2.423   1.854   3.864
 6313SOL    HW230568   2.412   2.005   3.876
 6314SOL     OW30569   2.789   2.035   1.123
 6314SOL    HW130570   2.720   2.078   1.174
 6314SOL    HW230571   2.800   2.091   1.046
 6315SOL     OW30572   4.102   0.277  26.033
 6315SOL    HW130573   4.188   0.239  26.050
 6315SOL    HW230574   4.093   0.274  25.938
 6316SOL     OW30575   0.019   3.377  26.306
 6316SOL    HW130576   0.071   3.315  26.357
 6316SOL    HW230577   4.719   3.329  26.284
 6317SOL     OW30578   4.521   0.691   3.970
 6317SOL    HW130579   4.545   0.604   3.939
 6317SOL    HW230580   4.538   0.689   4.064
 6318SOL     OW30581   1.287   3.168  10.786
 6318SOL    HW130582   1.209   3.208  10.824
 6318SOL    HW230583   1.255   3.124  10.707
 6319SOL     OW30584   0.176   1.915  11.453
 6319SOL    HW130585   0.229   1.994  11.461
 6319SOL    HW230586   0.156   1.890  11.543
 6320SOL     OW30587   4.424   0.807  20.774
 6320SOL    HW130588   4.462   0.859  20.845
 6320SOL    HW230589   4.349   0.859  20.744
 6321SOL     OW30590   2.786   0.726  21.937
 6321SOL    HW130591   2.772   0.743  22.030
 6321SOL    HW230592   2.700   0.699  21.905
 6322SOL     OW30593   1.806   0.063   7.375
 6322SOL    HW130594   1.832   0.120   7.448
 6322SOL    HW230595   1.881   0.064   7.316
 6323SOL     OW30596   1.066   1.149   5.914
 6323SOL    HW130597   1.089   1.105   5.996
 6323SOL    HW230598   1.020   1.082   5.863
 6324SOL     OW30599   4.251   1.137  26.007
 6324SOL    HW130600   4.159   1.113  26.013
 6324SOL    HW230601   4.265   1.155  25.914
 6325SOL     OW30602   3.774   1.795  25.028
 6325SOL    HW130603   3.791   1.792  25.122
 6325SOL    HW230604   3.831   1.727  24.991
 6326SOL     OW30605   1.171   1.361  24.293
 6326SOL    HW130606   1.195   1.351  24.201
 6326SOL    HW230607   1.184   1.454  24.311
 6327SOL     OW30608   3.003   4.380   1.488
 6327SOL    HW130609   3.019   4.385   1.394
 6327SOL    HW230610   2.935   4.313   1.497
 6328SOL     OW30611   3.476   0.141  24.322
 6328SOL    HW130612   3.476   0.062  24.268
 6328SOL    HW230613   3.516   0.208  24.267
 6329SOL     OW30614   3.630   4.726  23.927
 6329SOL    HW130615   3.577   4.667  23.874
 6329SOL    HW230616   3.655   0.016  23.867
 6330SOL     OW30617   2.652   0.135   9.240
 6330SOL    HW130618   2.642   0.106   9.149
 6330SOL    HW230619   2.662   0.230   9.234
 6331SOL     OW30620   4.357   4.157  19.994
 6331SOL    HW130621   4.389   4.161  19.904
 6331SOL    HW230622   4.263   4.139  19.985
 6332SOL     OW30623   4.622   2.217  21.174
 6332SOL    HW130624   4.622   2.134  21.221
 6332SOL    HW230625   4.529   2.240  21.167
 6333SOL     OW30626   0.259   4.140  23.516
 6333SOL    HW130627   0.248   4.235  23.512
 6333SOL    HW230628   0.334   4.127  23.575
 6334SOL     OW30629   2.170   4.203  26.969
 6334SOL    HW130630   2.075   4.211  26.959
 6334SOL    HW230631   2.198   4.287  27.005
 6335SOL     OW30632   1.527   3.950  18.784
 6335SOL    HW130633   1.434   3.954  18.804
 6335SOL    HW230634   1.542   4.023  18.724
 6336SOL     OW30635   3.136   2.963   5.142
 6336SOL    HW130636   3.195   2.992   5.211
 6336SOL    HW230637   3.155   2.870   5.131
 6337SOL     OW30638   1.391   0.653  25.419
 6337SOL    HW130639   1.450   0.652  25.344
 6337SOL    HW230640   1.306   0.627  25.383
 6338SOL     OW30641   2.560   3.720   3.061
 6338SOL    HW130642   2.587   3.680   3.143
 6338SOL    HW230643   2.467   3.700   3.054
 6339SOL     OW30644   1.448   2.274  25.314
 6339SOL    HW130645   1.440   2.203  25.250
 6339SOL    HW230646   1.360   2.285  25.349
 6340SOL     OW30647   2.617   0.755   4.324
 6340SOL    HW130648   2.565   0.776   4.402
 6340SOL    HW230649   2.607   0.832   4.267
 6341SOL     OW30650   2.429   1.509  18.798
 6341SOL    HW130651   2.440   1.414  18.806
 6341SOL    HW230652   2.508   1.539  18.754
 6342SOL     OW30653   0.535   1.979   2.073
 6342SOL    HW130654   0.561   1.961   1.983
 6342SOL    HW230655   0.617   1.994   2.119
 6343SOL     OW30656   1.130   4.182   0.082
 6343SOL    HW130657   1.214   4.224   0.099
 6343SOL    HW230658   1.109   4.205  28.511
 6344SOL     OW30659   0.961   3.415  27.908
 6344SOL    HW130660   0.985   3.502  27.941
 6344SOL    HW230661   0.894   3.433  27.841
 6345SOL     OW30662   2.246   4.563  20.583
 6345SOL    HW130663   2.244   4.504  20.507
 6345SOL    HW230664   2.236   4.651  20.546
 6346SOL     OW30665   0.440   3.082   2.259
 6346SOL    HW130666   0.393   3.016   2.208
 6346SOL    HW230667   0.397   3.082   2.344
 6347SOL     OW30668   4.248   4.387  26.971
 6347SOL    HW130669   4.157   4.370  26.997
 6347SOL    HW230670   4.249   4.479  26.945
 6348SOL     OW30671   2.338   2.596  22.850
 6348SOL    HW130672   2.351   2.531  22.919
 6348SOL    HW230673   2.418   2.649  22.852
 6349SOL     OW30674   1.801   2.125  24.856
 6349SOL    HW130675   1.821   2.133  24.949
 6349SOL    HW230676   1.758   2.208  24.833
 6350SOL     OW30677   0.468   3.243  22.769
 6350SOL    HW130678   0.545   3.204  22.810
 6350SOL    HW230679   0.495   3.258  22.678
 6351SOL     OW30680   3.142   4.150   5.165
 6351SOL    HW130681   3.169   4.137   5.074
 6351SOL    HW230682   3.186   4.080   5.213
 6352SOL     OW30683   0.032   4.206  26.363
 6352SOL    HW130684   0.124   4.179  26.362
 6352SOL    HW230685   0.018   4.239  26.452
 6353SOL     OW30686   2.584   2.694  22.184
 6353SOL    HW130687   2.605   2.723  22.273
 6353SOL    HW230688   2.627   2.759  22.128
 6354SOL     OW30689   1.865   4.445  20.279
 6354SOL    HW130690   1.777   4.414  20.299
 6354SOL    HW230691   1.914   4.366  20.258
 6355SOL     OW30692   0.627   0.782  18.494
 6355SOL    HW130693   0.617   0.822  18.580
 6355SOL    HW230694   0.542   0.795  18.451
 6356SOL     OW30695   3.812   1.785  19.048
 6356SOL    HW130696   3.726   1.828  19.046
 6356SOL    HW230697   3.869   1.843  18.998
 6357SOL     OW30698   3.221   2.037  19.682
 6357SOL    HW130699   3.296   2.096  19.694
 6357SOL    HW230700   3.168   2.080  19.615
 6358SOL     OW30701   2.324   2.410  25.401
 6358SOL    HW130702   2.259   2.370  25.343
 6358SOL    HW230703   2.288   2.399  25.489
 6359SOL     OW30704   0.271   0.559  24.300
 6359SOL    HW130705   0.235   0.549  24.212
 6359SOL    HW230706   0.215   0.504  24.355
 6360SOL     OW30707   2.503   2.802  24.810
 6360SOL    HW130708   2.481   2.785  24.901
 6360SOL    HW230709   2.565   2.875  24.814
 6361SOL     OW30710   2.195   2.902   2.890
 6361SOL    HW130711   2.112   2.871   2.854
 6361SOL    HW230712   2.211   2.845   2.966
 6362SOL     OW30713   3.455   3.511   3.613
 6362SOL    HW130714   3.459   3.421   3.581
 6362SOL    HW230715   3.460   3.565   3.534
 6363SOL     OW30716   4.487   0.183  26.662
 6363SOL    HW130717   4.507   0.213  26.573
 6363SOL    HW230718   4.404   0.226  26.684
 6364SOL     OW30719   2.808   2.080   5.406
 6364SOL    HW130720   2.758   2.057   5.484
 6364SOL    HW230721   2.856   2.159   5.431
 6365SOL     OW30722   4.774   2.879  25.785
 6365SOL    HW130723   4.710   2.862  25.854
 6365SOL    HW230724   4.760   2.971  25.761
 6366SOL     OW30725   0.485   1.386   6.471
 6366SOL    HW130726   0.431   1.459   6.503
 6366SOL    HW230727   0.463   1.313   6.529
 6367SOL     OW30728   1.857   0.600  22.142
 6367SOL    HW130729   1.828   0.636  22.058
 6367SOL    HW230730   1.937   0.552  22.121
 6368SOL     OW30731   3.029   0.393  17.945
 6368SOL    HW130732   3.018   0.487  17.961
 6368SOL    HW230733   3.002   0.381  17.854
 6369SOL     OW30734   4.064   2.414  19.205
 6369SOL    HW130735   3.987   2.359  19.221
 6369SOL    HW230736   4.103   2.427  19.291
 6370SOL     OW30737   0.174   3.537   9.403
 6370SOL    HW130738   0.244   3.593   9.368
 6370SOL    HW230739   0.134   3.498   9.325
 6371SOL     OW30740   3.724   0.139  23.750
 6371SOL    HW130741   3.726   0.149  23.655
 6371SOL    HW230742   3.813   0.112  23.773
 6372SOL     OW30743   0.918   4.279  18.989
 6372SOL    HW130744   0.914   4.371  18.964
 6372SOL    HW230745   0.942   4.280  19.082
 6373SOL     OW30746   2.285   1.413  23.068
 6373SOL    HW130747   2.194   1.437  23.051
 6373SOL    HW230748   2.295   1.327  23.026
 6374SOL     OW30749   1.313   1.318  22.509
 6374SOL    HW130750   1.345   1.314  22.599
 6374SOL    HW230751   1.387   1.352  22.459
 6375SOL     OW30752   3.591   3.615  20.860
 6375SOL    HW130753   3.678   3.589  20.830
 6375SOL    HW230754   3.531   3.562  20.808
 6376SOL     OW30755   3.803   2.472   1.585
 6376SOL    HW130756   3.828   2.564   1.593
 6376SOL    HW230757   3.886   2.425   1.582
 6377SOL     OW30758   2.395   3.434   8.504
 6377SOL    HW130759   2.405   3.482   8.422
 6377SOL    HW230760   2.484   3.408   8.527
 6378SOL     OW30761   2.195   3.950   0.810
 6378SOL    HW130762   2.170   3.979   0.722
 6378SOL    HW230763   2.129   3.885   0.834
 6379SOL     OW30764   0.154   4.356   6.436
 6379SOL    HW130765   0.183   4.270   6.465
 6379SOL    HW230766   0.144   4.348   6.341
 6380SOL     OW30767   0.678   0.182   5.824
 6380SOL    HW130768   0.705   0.099   5.862
 6380SOL    HW230769   0.591   0.165   5.788
 6381SOL     OW30770   3.952   4.167   3.883
 6381SOL    HW130771   3.860   4.191   3.869
 6381SOL    HW230772   3.956   4.144   3.976
 6382SOL     OW30773   0.623   0.701   2.734
 6382SOL    HW130774   0.573   0.713   2.653
 6382SOL    HW230775   0.566   0.649   2.790
 6383SOL     OW30776   3.362   1.885  22.978
 6383SOL    HW130777   3.382   1.971  22.940
 6383SOL    HW230778   3.299   1.904  23.048
 6384SOL     OW30779   1.946   3.855   3.203
 6384SOL    HW130780   1.911   3.944   3.209
 6384SOL    HW230781   1.926   3.827   3.114
 6385SOL     OW30782   0.284   3.556   9.652
 6385SOL    HW130783   0.233   3.539   9.573
 6385SOL    HW230784   0.374   3.531   9.629
 6386SOL     OW30785   2.637   4.323  11.828
 6386SOL    HW130786   2.625   4.228  11.819
 6386SOL    HW230787   2.573   4.361  11.768
 6387SOL     OW30788   2.655   0.278  11.090
 6387SOL    HW130789   2.731   0.336  11.088
 6387SOL    HW230790   2.636   0.267  11.183
 6388SOL     OW30791   3.922   1.711  28.315
 6388SOL    HW130792   4.008   1.678  28.342
 6388SOL    HW230793   3.901   1.662  28.236
 6389SOL     OW30794   0.125   1.174  18.266
 6389SOL    HW130795   0.149   1.122  18.190
 6389SOL    HW230796   0.207   1.215  18.293
 6390SOL     OW30797   4.052   0.754  28.328
 6390SOL    HW130798   4.000   0.719  28.400
 6390SOL    HW230799   4.043   0.849  28.336
 6391SOL     OW30800   2.076   4.036   0.043
 6391SOL    HW130801   2.035   4.027   0.129
 6391SOL    HW230802   2.010   4.080  28.509
 6392SOL     OW30803   0.461   1.239  25.519
 6392SOL    HW130804   0.367   1.222  25.516
 6392SOL    HW230805   0.493   1.181  25.588
 6393SOL     OW30806   4.379   3.020  26.743
 6393SOL    HW130807   4.328   2.956  26.694
 6393SOL    HW230808   4.435   2.967  26.800
 6394SOL     OW30809   4.493   3.475   4.966
 6394SOL    HW130810   4.501   3.569   4.948
 6394SOL    HW230811   4.498   3.468   5.061
 6395SOL     OW30812   0.912   3.673   8.827
 6395SOL    HW130813   0.950   3.608   8.886
 6395SOL    HW230814   0.986   3.726   8.798
 6396SOL     OW30815   2.463   0.362   6.685
 6396SOL    HW130816   2.377   0.370   6.644
 6396SOL    HW230817   2.447   0.309   6.763
 6397SOL     OW30818   0.140   3.344  19.084
 6397SOL    HW130819   0.120   3.362  18.992
 6397SOL    HW230820   0.137   3.430  19.126
 6398SOL     OW30821   2.588   0.896  25.558
 6398SOL    HW130822   2.587   0.893  25.462
 6398SOL    HW230823   2.616   0.808  25.584
 6399SOL     OW30824   1.447   3.559  23.755
 6399SOL    HW130825   1.507   3.505  23.704
 6399SOL    HW230826   1.449   3.521  23.843
 6400SOL     OW30827   2.388   0.690  26.948
 6400SOL    HW130828   2.365   0.762  27.006
 6400SOL    HW230829   2.451   0.728  26.887
 6401SOL     OW30830   0.856   1.423  12.621
 6401SOL    HW130831   0.764   1.443  12.637
 6401SOL    HW230832   0.903   1.471  12.689
 6402SOL     OW30833   3.507   3.389   7.914
 6402SOL    HW130834   3.460   3.420   7.991
 6402SOL    HW230835   3.444   3.397   7.842
 6403SOL     OW30836   3.971   0.433  19.939
 6403SOL    HW130837   3.940   0.447  19.850
 6403SOL    HW230838   3.974   0.521  19.977
 6404SOL     OW30839   2.854   0.883  26.512
 6404SOL    HW130840   2.802   0.878  26.432
 6404SOL    HW230841   2.789   0.889  26.582
 6405SOL     OW30842   4.471   3.324   1.022
 6405SOL    HW130843   4.504   3.247   0.976
 6405SOL    HW230844   4.536   3.392   1.004
 6406SOL     OW30845   2.776   1.753  21.475
 6406SOL    HW130846   2.726   1.785  21.400
 6406SOL    HW230847   2.726   1.678  21.507
 6407SOL     OW30848   1.818   1.501  20.448
 6407SOL    HW130849   1.911   1.494  20.428
 6407SOL    HW230850   1.775   1.502  20.363
 6408SOL     OW30851   2.048   0.179  24.537
 6408SOL    HW130852   1.959   0.174  24.502
 6408SOL    HW230853   2.036   0.192  24.631
 6409SOL     OW30854   3.923   4.497  24.238
 6409SOL    HW130855   3.963   4.410  24.239
 6409SOL    HW230856   3.875   4.500  24.155
 6410SOL     OW30857   3.002   4.527   6.585
 6410SOL    HW130858   3.076   4.483   6.626
 6410SOL    HW230859   3.021   4.620   6.595
 6411SOL     OW30860   1.587   3.649   1.465
 6411SOL    HW130861   1.537   3.713   1.515
 6411SOL    HW230862   1.520   3.596   1.421
 6412SOL     OW30863   1.375   3.966  24.749
 6412SOL    HW130864   1.428   4.039  24.716
 6412SOL    HW230865   1.285   3.996  24.738
 6413SOL     OW30866   3.215   2.061  11.319
 6413SOL    HW130867   3.233   2.154  11.304
 6413SOL    HW230868   3.179   2.030  11.236
 6414SOL     OW30869   4.306   1.469   3.193
 6414SOL    HW130870   4.256   1.401   3.238
 6414SOL    HW230871   4.393   1.465   3.232
 6415SOL     OW30872   1.177   4.538   7.823
 6415SOL    HW130873   1.099   4.483   7.815
 6415SOL    HW230874   1.158   4.597   7.896
 6416SOL     OW30875   4.595   3.509  23.439
 6416SOL    HW130876   4.576   3.592  23.482
 6416SOL    HW230877   4.566   3.442  23.501
 6417SOL     OW30878   0.343   1.335  22.908
 6417SOL    HW130879   0.431   1.297  22.908
 6417SOL    HW230880   0.357   1.427  22.886
 6418SOL     OW30881   3.124   3.936  10.363
 6418SOL    HW130882   3.084   3.882  10.431
 6418SOL    HW230883   3.210   3.897  10.349
 6419SOL     OW30884   3.755   2.056   4.413
 6419SOL    HW130885   3.663   2.042   4.389
 6419SOL    HW230886   3.795   1.970   4.404
 6420SOL     OW30887   2.593   3.122  20.296
 6420SOL    HW130888   2.566   3.033  20.317
 6420SOL    HW230889   2.594   3.125  20.200
 6421SOL     OW30890   3.711   0.401   9.196
 6421SOL    HW130891   3.650   0.338   9.234
 6421SOL    HW230892   3.790   0.392   9.249
 6422SOL     OW30893   1.871   2.500   6.417
 6422SOL    HW130894   1.896   2.447   6.341
 6422SOL    HW230895   1.952   2.509   6.467
 6423SOL     OW30896   0.660   3.477  26.575
 6423SOL    HW130897   0.590   3.431  26.621
 6423SOL    HW230898   0.620   3.507  26.493
 6424SOL     OW30899   0.709   1.135  26.209
 6424SOL    HW130900   0.771   1.063  26.197
 6424SOL    HW230901   0.761   1.205  26.248
 6425SOL     OW30902   2.012   1.549  24.757
 6425SOL    HW130903   1.989   1.604  24.682
 6425SOL    HW230904   2.107   1.558  24.764
 6426SOL     OW30905   2.964   3.764  23.330
 6426SOL    HW130906   2.915   3.844  23.347
 6426SOL    HW230907   2.897   3.698  23.312
 6427SOL     OW30908   4.307   3.546   5.534
 6427SOL    HW130909   4.339   3.614   5.593
 6427SOL    HW230910   4.216   3.532   5.560
 6428SOL     OW30911   3.512   4.003   0.896
 6428SOL    HW130912   3.469   3.949   0.829
 6428SOL    HW230913   3.441   4.028   0.955
 6429SOL     OW30914   1.886   1.680  10.686
 6429SOL    HW130915   1.812   1.632  10.724
 6429SOL    HW230916   1.946   1.693  10.759
 6430SOL     OW30917   2.209   3.471   7.886
 6430SOL    HW130918   2.184   3.378   7.885
 6430SOL    HW230919   2.129   3.517   7.911
 6431SOL     OW30920   2.153   3.042  21.097
 6431SOL    HW130921   2.148   3.053  21.192
 6431SOL    HW230922   2.145   2.948  21.084
 6432SOL     OW30923   3.260   0.159  22.837
 6432SOL    HW130924   3.331   0.184  22.778
 6432SOL    HW230925   3.300   0.095  22.896
 6433SOL     OW30926   1.275   2.335   0.922
 6433SOL    HW130927   1.255   2.324   0.829
 6433SOL    HW230928   1.219   2.407   0.951
 6434SOL     OW30929   3.906   2.461  10.377
 6434SOL    HW130930   3.855   2.542  10.383
 6434SOL    HW230931   3.972   2.479  10.309
 6435SOL     OW30932   0.578   0.071   4.407
 6435SOL    HW130933   0.563   0.064   4.313
 6435SOL    HW230934   0.509   0.017   4.447
 6436SOL     OW30935   1.637   4.209   1.389
 6436SOL    HW130936   1.578   4.221   1.315
 6436SOL    HW230937   1.691   4.134   1.364
 6437SOL     OW30938   0.326   1.028   2.385
 6437SOL    HW130939   0.284   0.951   2.347
 6437SOL    HW230940   0.400   0.993   2.435
 6438SOL     OW30941   1.236   0.983  22.178
 6438SOL    HW130942   1.222   0.988  22.083
 6438SOL    HW230943   1.176   1.049  22.214
 6439SOL     OW30944   4.548   4.622  20.750
 6439SOL    HW130945   4.513   4.538  20.780
 6439SOL    HW230946   4.478   4.685  20.767
 6440SOL     OW30947   2.566   4.175  23.543
 6440SOL    HW130948   2.479   4.175  23.582
 6440SOL    HW230949   2.626   4.182  23.617
 6441SOL     OW30950   0.595   3.863   6.629
 6441SOL    HW130951   0.592   3.769   6.645
 6441SOL    HW230952   0.583   3.871   6.534
 6442SOL     OW30953   0.173   3.943  20.260
 6442SOL    HW130954   0.101   3.917  20.203
 6442SOL    HW230955   0.142   3.922  20.348
 6443SOL     OW30956   1.044   3.650  20.987
 6443SOL    HW130957   1.054   3.612  21.074
 6443SOL    HW230958   1.091   3.733  20.991
 6444SOL     OW30959   2.136   1.399  23.312
 6444SOL    HW130960   2.140   1.494  23.321
 6444SOL    HW230961   2.221   1.374  23.275
 6445SOL     OW30962   3.029   1.444   9.162
 6445SOL    HW130963   3.090   1.373   9.141
 6445SOL    HW230964   2.947   1.417   9.121
 6446SOL     OW30965   1.397   2.435   3.517
 6446SOL    HW130966   1.345   2.417   3.439
 6446SOL    HW230967   1.343   2.493   3.570
 6447SOL     OW30968   4.503   1.286   4.442
 6447SOL    HW130969   4.489   1.208   4.496
 6447SOL    HW230970   4.415   1.316   4.421
 6448SOL     OW30971   0.831   3.306   4.164
 6448SOL    HW130972   0.882   3.236   4.204
 6448SOL    HW230973   0.779   3.341   4.236
 6449SOL     OW30974   3.118   2.038   8.323
 6449SOL    HW130975   3.038   2.000   8.287
 6449SOL    HW230976   3.123   2.126   8.285
 6450SOL     OW30977   2.669   3.029  25.027
 6450SOL    HW130978   2.764   3.036  25.039
 6450SOL    HW230979   2.643   2.956  25.083
 6451SOL     OW30980   0.105   0.152   7.162
 6451SOL    HW130981   0.038   0.127   7.099
 6451SOL    HW230982   0.059   0.158   7.246
 6452SOL     OW30983   1.341   2.273  24.043
 6452SOL    HW130984   1.435   2.255  24.037
 6452SOL    HW230985   1.316   2.241  24.130
 6453SOL     OW30986   0.357   4.421   4.880
 6453SOL    HW130987   0.316   4.337   4.861
 6453SOL    HW230988   0.304   4.459   4.950
 6454SOL     OW30989   3.354   2.344  17.507
 6454SOL    HW130990   3.412   2.413  17.475
 6454SOL    HW230991   3.276   2.350  17.451
 6455SOL     OW30992   3.496   3.279  27.184
 6455SOL    HW130993   3.402   3.267  27.168
 6455SOL    HW230994   3.531   3.307  27.100
 6456SOL     OW30995   4.338   3.055   6.327
 6456SOL    HW130996   4.336   3.073   6.421
 6456SOL    HW230997   4.367   2.964   6.320
 6457SOL     OW30998   2.791   0.142   4.064
 6457SOL    HW130999   2.776   0.177   3.976
 6457SOL    HW231000   2.886   0.135   4.071
 6458SOL     OW31001   3.407   3.520  28.328
 6458SOL    HW131002   3.353   3.578  28.274
 6458SOL    HW231003   3.465   3.476  28.266
 6459SOL     OW31004   0.097   3.132  26.047
 6459SOL    HW131005   0.111   3.218  26.008
 6459SOL    HW231006   0.024   3.095  25.998
 6460SOL     OW31007   0.692   4.009  25.696
 6460SOL    HW131008   0.657   3.976  25.613
 6460SOL    HW231009   0.616   4.045  25.742
 6461SOL     OW31010   2.651   3.976   8.491
 6461SOL    HW131011   2.722   3.988   8.428
 6461SOL    HW231012   2.691   3.926   8.562
 6462SOL     OW31013   3.379   0.036   1.829
 6462SOL    HW131014   3.395   0.096   1.756
 6462SOL    HW231015   3.289   0.007   1.816
 6463SOL     OW31016   2.002   0.332   8.440
 6463SOL    HW131017   2.004   0.339   8.535
 6463SOL    HW231018   1.944   0.258   8.422
 6464SOL     OW31019   4.668   3.059  22.343
 6464SOL    HW131020   4.622   2.988  22.298
 6464SOL    HW231021   4.705   3.112  22.272
 6465SOL     OW31022   4.345   2.172   3.864
 6465SOL    HW131023   4.296   2.251   3.841
 6465SOL    HW231024   4.407   2.159   3.792
 6466SOL     OW31025   3.700   2.086  25.033
 6466SOL    HW131026   3.660   2.103  24.948
 6466SOL    HW231027   3.749   2.004  25.021
 6467SOL     OW31028   3.663   0.812   8.443
 6467SOL    HW131029   3.737   0.860   8.406
 6467SOL    HW231030   3.700   0.766   8.519
 6468SOL     OW31031   0.289   2.324   8.497
 6468SOL    HW131032   0.202   2.361   8.511
 6468SOL    HW231033   0.326   2.375   8.425
 6469SOL     OW31034   3.121   1.679   7.098
 6469SOL    HW131035   3.123   1.705   7.190
 6469SOL    HW231036   3.194   1.726   7.058
 6470SOL     OW31037   3.921   4.637  27.751
 6470SOL    HW131038   3.882   4.708  27.700
 6470SOL    HW231039   3.913   4.666  27.842
 6471SOL     OW31040   2.379   2.416  23.938
 6471SOL    HW131041   2.377   2.349  24.007
 6471SOL    HW231042   2.299   2.401  23.887
 6472SOL     OW31043   4.572   0.822   4.515
 6472SOL    HW131044   4.562   0.782   4.601
 6472SOL    HW231045   4.560   0.916   4.530
 6473SOL     OW31046   2.298   1.833   9.458
 6473SOL    HW131047   2.316   1.752   9.410
 6473SOL    HW231048   2.384   1.862   9.489
 6474SOL     OW31049   1.858   2.484   7.845
 6474SOL    HW131050   1.843   2.505   7.937
 6474SOL    HW231051   1.848   2.389   7.840
 6475SOL     OW31052   3.894   3.024  23.949
 6475SOL    HW131053   3.835   2.991  23.881
 6475SOL    HW231054   3.916   3.113  23.921
 6476SOL     OW31055   1.879   2.847   4.977
 6476SOL    HW131056   1.892   2.938   4.950
 6476SOL    HW231057   1.935   2.836   5.053
 6477SOL     OW31058   3.265   4.253   2.097
 6477SOL    HW131059   3.281   4.310   2.172
 6477SOL    HW231060   3.293   4.166   2.127
 6478SOL     OW31061   1.906   1.975  23.684
 6478SOL    HW131062   1.817   1.944  23.701
 6478SOL    HW231063   1.908   2.064  23.720
 6479SOL     OW31064   1.526   3.848   2.878
 6479SOL    HW131065   1.509   3.900   2.799
 6479SOL    HW231066   1.537   3.913   2.947
 6480SOL     OW31067   3.563   0.232  25.013
 6480SOL    HW131068   3.467   0.231  25.013
 6480SOL    HW231069   3.586   0.312  24.966
 6481SOL     OW31070   0.198   4.336   9.330
 6481SOL    HW131071   0.183   4.277   9.404
 6481SOL    HW231072   0.134   4.407   9.342
 6482SOL     OW31073   2.618   2.234  19.662
 6482SOL    HW131074   2.550   2.200  19.604
 6482SOL    HW231075   2.582   2.225  19.750
 6483SOL     OW31076   2.765   2.322   6.415
 6483SOL    HW131077   2.824   2.368   6.355
 6483SOL    HW231078   2.818   2.307   6.493
 6484SOL     OW31079   2.995   4.470   8.171
 6484SOL    HW131080   3.015   4.563   8.174
 6484SOL    HW231081   2.988   4.444   8.263
 6485SOL     OW31082   2.389   0.581   3.475
 6485SOL    HW131083   2.457   0.542   3.420
 6485SOL    HW231084   2.379   0.670   3.441
 6486SOL     OW31085   1.800   2.109  22.384
 6486SOL    HW131086   1.746   2.179  22.347
 6486SOL    HW231087   1.890   2.137  22.368
 6487SOL     OW31088   0.274   0.770  24.492
 6487SOL    HW131089   0.274   0.688  24.443
 6487SOL    HW231090   0.212   0.755  24.563
 6488SOL     OW31091   4.570   0.772  10.276
 6488SOL    HW131092   4.538   0.836  10.212
 6488SOL    HW231093   4.615   0.824  10.342
 6489SOL     OW31094   2.608   3.966   7.516
 6489SOL    HW131095   2.578   3.942   7.428
 6489SOL    HW231096   2.669   3.896   7.540
 6490SOL     OW31097   4.245   0.495  27.590
 6490SOL    HW131098   4.186   0.557  27.632
 6490SOL    HW231099   4.312   0.477  27.656
 6491SOL     OW31100   0.772   0.597  25.534
 6491SOL    HW131101   0.783   0.631  25.445
 6491SOL    HW231102   0.694   0.641  25.566
 6492SOL     OW31103   4.322   1.534  19.257
 6492SOL    HW131104   4.403   1.493  19.226
 6492SOL    HW231105   4.351   1.605  19.314
 6493SOL     OW31106   1.683   4.309   2.004
 6493SOL    HW131107   1.627   4.251   1.953
 6493SOL    HW231108   1.770   4.298   1.965
 6494SOL     OW31109   4.180   3.218   7.014
 6494SOL    HW131110   4.170   3.150   7.081
 6494SOL    HW231111   4.168   3.172   6.931
 6495SOL     OW31112   4.434   4.366   0.828
 6495SOL    HW131113   4.420   4.278   0.793
 6495SOL    HW231114   4.518   4.393   0.791
 6496SOL     OW31115   2.862   3.399  10.594
 6496SOL    HW131116   2.768   3.412  10.605
 6496SOL    HW231117   2.899   3.487  10.597
 6497SOL     OW31118   2.385   1.914  10.275
 6497SOL    HW131119   2.351   1.890  10.362
 6497SOL    HW231120   2.329   1.866  10.214
 6498SOL     OW31121   0.446   0.597   4.817
 6498SOL    HW131122   0.429   0.513   4.859
 6498SOL    HW231123   0.390   0.659   4.864
 6499SOL     OW31124   0.414   0.768  27.213
 6499SOL    HW131125   0.350   0.718  27.265
 6499SOL    HW231126   0.441   0.708  27.144
 6500SOL     OW31127   3.971   3.201  10.485
 6500SOL    HW131128   3.900   3.176  10.426
 6500SOL    HW231129   3.949   3.160  10.568
 6501SOL     OW31130   0.136   0.387  24.524
 6501SOL    HW131131   0.201   0.319  24.507
 6501SOL    HW231132   0.121   0.383  24.618
 6502SOL     OW31133   3.784   1.074  25.620
 6502SOL    HW131134   3.878   1.062  25.610
 6502SOL    HW231135   3.765   1.039  25.707
 6503SOL     OW31136   1.178   1.949   1.363
 6503SOL    HW131137   1.126   1.896   1.423
 6503SOL    HW231138   1.202   2.027   1.413
 6504SOL     OW31139   2.487   0.409   1.692
 6504SOL    HW131140   2.413   0.357   1.723
 6504SOL    HW231141   2.449   0.494   1.671
 6505SOL     OW31142   2.414   3.176  27.854
 6505SOL    HW131143   2.428   3.268  27.830
 6505SOL    HW231144   2.406   3.130  27.770
 6506SOL     OW31145   2.005   1.571  16.857
 6506SOL    HW131146   1.972   1.495  16.810
 6506SOL    HW231147   2.036   1.630  16.789
 6507SOL     OW31148   0.734   0.037  26.108
 6507SOL    HW131149   0.793   0.051  26.182
 6507SOL    HW231150   0.652   0.080  26.133
 6508SOL     OW31151   3.512   0.570  26.468
 6508SOL    HW131152   3.513   0.503  26.536
 6508SOL    HW231153   3.598   0.563  26.426
 6509SOL     OW31154   0.305   4.491  24.586
 6509SOL    HW131155   0.295   4.397  24.569
 6509SOL    HW231156   0.291   4.499  24.680
 6510SOL     OW31157   2.756   4.486  21.622
 6510SOL    HW131158   2.815   4.559  21.606
 6510SOL    HW231159   2.683   4.500  21.561
 6511SOL     OW31160   2.139   0.378  26.865
 6511SOL    HW131161   2.130   0.410  26.955
 6511SOL    HW231162   2.061   0.410  26.820
 6512SOL     OW31163   0.428   3.877  19.527
 6512SOL    HW131164   0.426   3.927  19.609
 6512SOL    HW231165   0.337   3.877  19.496
 6513SOL     OW31166   0.905   2.486  23.845
 6513SOL    HW131167   0.820   2.495  23.888
 6513SOL    HW231168   0.969   2.488  23.917
 6514SOL     OW31169   4.441   3.899  28.102
 6514SOL    HW131170   4.436   3.809  28.071
 6514SOL    HW231171   4.463   3.891  28.195
 6515SOL     OW31172   1.176   1.579  19.127
 6515SOL    HW131173   1.216   1.493  19.114
 6515SOL    HW231174   1.175   1.590  19.222
 6516SOL     OW31175   4.299   0.733   4.163
 6516SOL    HW131176   4.253   0.672   4.105
 6516SOL    HW231177   4.388   0.697   4.169
 6517SOL     OW31178   4.470   1.161   8.878
 6517SOL    HW131179   4.488   1.151   8.785
 6517SOL    HW231180   4.388   1.210   8.881
 6518SOL     OW31181   0.895   1.585   4.558
 6518SOL    HW131182   0.873   1.513   4.618
 6518SOL    HW231183   0.921   1.657   4.615
 6519SOL     OW31184   2.592   2.255  21.083
 6519SOL    HW131185   2.677   2.258  21.039
 6519SOL    HW231186   2.593   2.173  21.132
 6520SOL     OW31187   4.729   2.137  20.491
 6520SOL    HW131188   4.735   2.167  20.582
 6520SOL    HW231189   4.647   2.176  20.459
 6521SOL     OW31190   2.403   4.206  10.707
 6521SOL    HW131191   2.309   4.201  10.690
 6521SOL    HW231192   2.436   4.268  10.642
 6522SOL     OW31193   0.812   4.508  26.600
 6522SOL    HW131194   0.726   4.494  26.561
 6522SOL    HW231195   0.853   4.574  26.545
 6523SOL     OW31196   2.987   3.125   4.367
 6523SOL    HW131197   2.943   3.056   4.318
 6523SOL    HW231198   2.988   3.200   4.307
 6524SOL     OW31199   0.126   2.272   0.933
 6524SOL    HW131200   0.095   2.199   0.986
 6524SOL    HW231201   0.215   2.289   0.964
 6525SOL     OW31202   3.207   0.894   0.510
 6525SOL    HW131203   3.235   0.827   0.573
 6525SOL    HW231204   3.124   0.862   0.475
 6526SOL     OW31205   0.869   2.002   8.129
 6526SOL    HW131206   0.925   2.078   8.114
 6526SOL    HW231207   0.831   2.017   8.215
 6527SOL     OW31208   2.430   0.493  22.899
 6527SOL    HW131209   2.453   0.546  22.975
 6527SOL    HW231210   2.360   0.435  22.930
 6528SOL     OW31211   4.267   4.163   5.248
 6528SOL    HW131212   4.243   4.253   5.224
 6528SOL    HW231213   4.191   4.110   5.223
 6529SOL     OW31214   1.675   4.577   9.514
 6529SOL    HW131215   1.599   4.585   9.456
 6529SOL    HW231216   1.685   4.664   9.552
 6530SOL     OW31217   0.071   0.412   5.508
 6530SOL    HW131218   0.163   0.390   5.525
 6530SOL    HW231219   0.023   0.333   5.533
 6531SOL     OW31220   2.226   3.710  12.217
 6531SOL    HW131221   2.190   3.676  12.135
 6531SOL    HW231222   2.149   3.728  12.271
 6532SOL     OW31223   3.833   1.446  25.910
 6532SOL    HW131224   3.822   1.492  25.993
 6532SOL    HW231225   3.767   1.377  25.912
 6533SOL     OW31226   3.230   1.920  19.912
 6533SOL    HW131227   3.177   1.840  19.908
 6533SOL    HW231228   3.222   1.958  19.825
 6534SOL     OW31229   3.581   2.553  27.111
 6534SOL    HW131230   3.548   2.476  27.157
 6534SOL    HW231231   3.668   2.527  27.080
 6535SOL     OW31232   4.339   0.029  11.943
 6535SOL    HW131233   4.348   0.042  12.037
 6535SOL    HW231234   4.290   0.106  11.913
 6536SOL     OW31235   1.757   2.808  26.031
 6536SOL    HW131236   1.689   2.749  26.063
 6536SOL    HW231237   1.763   2.789  25.937
 6537SOL     OW31238   2.880   4.152   0.341
 6537SOL    HW131239   2.802   4.207   0.330
 6537SOL    HW231240   2.861   4.100   0.419
 6538SOL     OW31241   2.782   1.152   9.214
 6538SOL    HW131242   2.863   1.171   9.261
 6538SOL    HW231243   2.747   1.238   9.191
 6539SOL     OW31244   2.602   0.201  27.845
 6539SOL    HW131245   2.589   0.112  27.813
 6539SOL    HW231246   2.681   0.231  27.799
 6540SOL     OW31247   3.179   1.980  10.827
 6540SOL    HW131248   3.239   2.055  10.823
 6540SOL    HW231249   3.159   1.969  10.920
 6541SOL     OW31250   3.137   4.047  25.879
 6541SOL    HW131251   3.145   3.987  25.953
 6541SOL    HW231252   3.090   4.123  25.915
 6542SOL     OW31253   0.003   2.910  24.649
 6542SOL    HW131254   4.747   2.966  24.718
 6542SOL    HW231255   4.708   2.885  24.596
 6543SOL     OW31256   1.899   2.886   9.009
 6543SOL    HW131257   1.857   2.896   8.923
 6543SOL    HW231258   1.953   2.965   9.019
 6544SOL     OW31259   0.428   0.730  27.686
 6544SOL    HW131260   0.394   0.644  27.711
 6544SOL    HW231261   0.381   0.791  27.743
 6545SOL     OW31262   1.995   2.560   0.108
 6545SOL    HW131263   1.992   2.655   0.122
 6545SOL    HW231264   1.925   2.542   0.046
 6546SOL     OW31265   4.719   4.670   5.057
 6546SOL    HW131266   4.670   4.637   4.981
 6546SOL    HW231267   4.661   4.735   5.097
 6547SOL     OW31268   4.336   0.721   2.227
 6547SOL    HW131269   4.265   0.680   2.276
 6547SOL    HW231270   4.350   0.805   2.272
 6548SOL     OW31271   1.326   2.237  10.742
 6548SOL    HW131272   1.231   2.228  10.733
 6548SOL    HW231273   1.345   2.324  10.707
 6549SOL     OW31274   3.287   1.091  12.185
 6549SOL    HW131275   3.262   1.008  12.144
 6549SOL    HW231276   3.275   1.077  12.279
 6550SOL     OW31277   1.633   2.328  22.605
 6550SOL    HW131278   1.720   2.302  22.636
 6550SOL    HW231279   1.633   2.423  22.613
 6551SOL     OW31280   1.206   1.767   5.320
 6551SOL    HW131281   1.257   1.774   5.401
 6551SOL    HW231282   1.137   1.832   5.330
 6552SOL     OW31283   3.329   2.791   4.362
 6552SOL    HW131284   3.380   2.737   4.302
 6552SOL    HW231285   3.319   2.738   4.441
 6553SOL     OW31286   3.867   3.769   6.966
 6553SOL    HW131287   3.866   3.747   7.059
 6553SOL    HW231288   3.788   3.822   6.953
 6554SOL     OW31289   0.573   3.332  20.859
 6554SOL    HW131290   0.508   3.312  20.791
 6554SOL    HW231291   0.654   3.291  20.827
 6555SOL     OW31292   2.780   1.749   1.029
 6555SOL    HW131293   2.759   1.838   1.058
 6555SOL    HW231294   2.853   1.722   1.085
 6556SOL     OW31295   1.436   4.084   9.372
 6556SOL    HW131296   1.461   4.021   9.305
 6556SOL    HW231297   1.474   4.050   9.453
 6557SOL     OW31298   1.728   4.224   4.994
 6557SOL    HW131299   1.727   4.176   5.077
 6557SOL    HW231300   1.654   4.284   5.000
 6558SOL     OW31301   0.236   1.494  15.439
 6558SOL    HW131302   0.238   1.524  15.348
 6558SOL    HW231303   0.219   1.400  15.432
 6559SOL     OW31304   3.234   3.170  11.042
 6559SOL    HW131305   3.314   3.127  11.071
 6559SOL    HW231306   3.169   3.146  11.108
 6560SOL     OW31307   3.291   4.579  10.250
 6560SOL    HW131308   3.268   4.493  10.285
 6560SOL    HW231309   3.357   4.612  10.311
 6561SOL     OW31310   1.374   2.709  28.216
 6561SOL    HW131311   1.291   2.709  28.169
 6561SOL    HW231312   1.361   2.647  28.288
 6562SOL     OW31313   4.497   2.147  20.799
 6562SOL    HW131314   4.406   2.142  20.828
 6562SOL    HW231315   4.492   2.179  20.709
 6563SOL     OW31316   1.387   3.763   4.814
 6563SOL    HW131317   1.423   3.849   4.790
 6563SOL    HW231318   1.356   3.726   4.731
 6564SOL     OW31319   2.118   2.125  18.729
 6564SOL    HW131320   2.116   2.031  18.746
 6564SOL    HW231321   2.162   2.133  18.645
 6565SOL     OW31322   1.750   4.554   8.199
 6565SOL    HW131323   1.716   4.577   8.113
 6565SOL    HW231324   1.840   4.587   8.199
 6566SOL     OW31325   2.674   3.576  20.340
 6566SOL    HW131326   2.648   3.615  20.423
 6566SOL    HW231327   2.671   3.482  20.355
 6567SOL     OW31328   2.910   1.639   6.715
 6567SOL    HW131329   2.981   1.575   6.719
 6567SOL    HW231330   2.842   1.604   6.772
 6568SOL     OW31331   3.371   0.222   8.650
 6568SOL    HW131332   3.356   0.158   8.580
 6568SOL    HW231333   3.466   0.235   8.650
 6569SOL     OW31334   2.977   4.660   1.344
 6569SOL    HW131335   2.934   4.745   1.341
 6569SOL    HW231336   2.970   4.632   1.435
 6570SOL     OW31337   3.662   0.424  10.199
 6570SOL    HW131338   3.609   0.373  10.260
 6570SOL    HW231339   3.637   0.391  10.113
 6571SOL     OW31340   1.744   3.775  21.468
 6571SOL    HW131341   1.824   3.751  21.422
 6571SOL    HW231342   1.684   3.703  21.450
 6572SOL     OW31343   3.322   1.321  11.629
 6572SOL    HW131344   3.338   1.232  11.661
 6572SOL    HW231345   3.247   1.313  11.570
 6573SOL     OW31346   2.723   2.947  11.731
 6573SOL    HW131347   2.802   2.931  11.679
 6573SOL    HW231348   2.751   3.009  11.798
 6574SOL     OW31349   2.791   0.980   7.317
 6574SOL    HW131350   2.808   0.953   7.227
 6574SOL    HW231351   2.699   1.007   7.317
 6575SOL     OW31352   4.765   0.455   4.516
 6575SOL    HW131353   4.762   0.445   4.421
 6575SOL    HW231354   0.058   0.514   4.532
 6576SOL     OW31355   4.049   2.393   1.691
 6576SOL    HW131356   4.064   2.325   1.757
 6576SOL    HW231357   4.038   2.473   1.742
 6577SOL     OW31358   3.863   1.621   8.857
 6577SOL    HW131359   3.783   1.572   8.837
 6577SOL    HW231360   3.836   1.713   8.859
 6578SOL     OW31361   2.984   0.125   2.802
 6578SOL    HW131362   2.983   0.035   2.769
 6578SOL    HW231363   3.043   0.172   2.743
 6579SOL     OW31364   1.876   0.972  21.587
 6579SOL    HW131365   1.877   1.061  21.622
 6579SOL    HW231366   1.923   0.920  21.653
 6580SOL     OW31367   4.764   1.437  27.648
 6580SOL    HW131368   4.759   1.351  27.690
 6580SOL    HW231369   4.718   1.426  27.565
 6581SOL     OW31370   3.394   4.363  20.473
 6581SOL    HW131371   3.459   4.304  20.436
 6581SOL    HW231372   3.341   4.390  20.398
 6582SOL     OW31373   1.675   0.045   9.650
 6582SOL    HW131374   1.754   0.051   9.703
 6582SOL    HW231375   1.677   0.122   9.593
 6583SOL     OW31376   1.791   2.489  11.929
 6583SOL    HW131377   1.798   2.443  11.846
 6583SOL    HW231378   1.877   2.529  11.942
 6584SOL     OW31379   4.028   2.399  12.015
 6584SOL    HW131380   4.093   2.368  12.078
 6584SOL    HW231381   4.001   2.484  12.049
 6585SOL     OW31382   2.764   1.194  22.379
 6585SOL    HW131383   2.774   1.285  22.351
 6585SOL    HW231384   2.836   1.148  22.335
 6586SOL     OW31385   4.385   3.570   5.976
 6586SOL    HW131386   4.396   3.503   6.043
 6586SOL    HW231387   4.470   3.574   5.932
 6587SOL     OW31388   3.622   3.066  11.331
 6587SOL    HW131389   3.702   3.016  11.349
 6587SOL    HW231390   3.552   3.015  11.373
 6588SOL     OW31391   2.285   1.831  11.259
 6588SOL    HW131392   2.310   1.904  11.202
 6588SOL    HW231393   2.293   1.866  11.348
 6589SOL     OW31394   2.338   2.321  11.907
 6589SOL    HW131395   2.266   2.281  11.956
 6589SOL    HW231396   2.394   2.360  11.974
 6590SOL     OW31397   3.280   1.785  12.674
 6590SOL    HW131398   3.188   1.766  12.692
 6590SOL    HW231399   3.308   1.840  12.748
 6591SOL     OW31400   2.713   2.718  11.550
 6591SOL    HW131401   2.681   2.645  11.496
 6591SOL    HW231402   2.784   2.757  11.498
 6592SOL     OW31403   3.538   3.910  12.221
 6592SOL    HW131404   3.571   3.989  12.264
 6592SOL    HW231405   3.533   3.845  12.291
 6593SOL     OW31406   2.926   4.243  21.827
 6593SOL    HW131407   2.875   4.207  21.754
 6593SOL    HW231408   2.970   4.320  21.790
 6594SOL     OW31409   3.640   1.759  12.208
 6594SOL    HW131410   3.716   1.712  12.243
 6594SOL    HW231411   3.615   1.820  12.278
 6595SOL     OW31412   2.143   2.230  11.172
 6595SOL    HW131413   2.110   2.313  11.138
 6595SOL    HW231414   2.097   2.218  11.255
 6596SOL     OW31415   3.350   1.943  12.891
 6596SOL    HW131416   3.277   1.978  12.942
 6596SOL    HW231417   3.399   2.020  12.862
 6597SOL     OW31418   3.418   3.008  26.587
 6597SOL    HW131419   3.331   3.009  26.547
 6597SOL    HW231420   3.478   3.022  26.514
 6598SOL     OW31421   3.287   0.654   4.008
 6598SOL    HW131422   3.205   0.642   4.055
 6598SOL    HW231423   3.335   0.572   4.021
 6599SOL     OW31424   2.681   1.931   3.046
 6599SOL    HW131425   2.594   1.940   3.086
 6599SOL    HW231426   2.669   1.958   2.955
 6600SOL     OW31427   1.178   3.525  12.238
 6600SOL    HW131428   1.247   3.465  12.210
 6600SOL    HW231429   1.101   3.469  12.248
 6601SOL     OW31430   2.609   1.922  11.253
 6601SOL    HW131431   2.650   1.935  11.338
 6601SOL    HW231432   2.642   1.994  11.199
 6602SOL     OW31433   2.262   3.217  13.399
 6602SOL    HW131434   2.262   3.294  13.456
 6602SOL    HW231435   2.172   3.185  13.403
 6603SOL     OW31436   1.895   2.422  11.333
 6603SOL    HW131437   1.975   2.462  11.368
 6603SOL    HW231438   1.872   2.355  11.397
 6604SOL     OW31439   1.646   2.850  21.294
 6604SOL    HW131440   1.668   2.767  21.336
 6604SOL    HW231441   1.582   2.890  21.353
 6605SOL     OW31442   4.709   2.430  12.504
 6605SOL    HW131443   4.759   2.432  12.585
 6605SOL    HW231444   4.666   2.344  12.505
 6606SOL     OW31445   0.775   2.617  23.512
 6606SOL    HW131446   0.706   2.677  23.485
 6606SOL    HW231447   0.840   2.621  23.442
 6607SOL     OW31448   0.902   1.785   7.844
 6607SOL    HW131449   0.812   1.781   7.810
 6607SOL    HW231450   0.895   1.833   7.926
 6608SOL     OW31451   1.132   1.448   2.537
 6608SOL    HW131452   1.203   1.512   2.542
 6608SOL    HW231453   1.155   1.383   2.603
 6609SOL     OW31454   2.773   3.306  14.284
 6609SOL    HW131455   2.752   3.227  14.333
 6609SOL    HW231456   2.837   3.278  14.218
 6610SOL     OW31457   4.033   3.324  12.652
 6610SOL    HW131458   4.001   3.266  12.721
 6610SOL    HW231459   4.104   3.373  12.694
 6611SOL     OW31460   2.784   4.275   5.388
 6611SOL    HW131461   2.745   4.341   5.330
 6611SOL    HW231462   2.713   4.250   5.447
 6612SOL     OW31463   3.856   4.130   5.703
 6612SOL    HW131464   3.865   4.089   5.617
 6612SOL    HW231465   3.939   4.176   5.716
 6613SOL     OW31466   3.409   1.312  12.059
 6613SOL    HW131467   3.464   1.345  12.130
 6613SOL    HW231468   3.369   1.233  12.094
 6614SOL     OW31469   4.180   1.638  12.661
 6614SOL    HW131470   4.121   1.582  12.712
 6614SOL    HW231471   4.165   1.726  12.694
 6615SOL     OW31472   2.226   3.488  12.851
 6615SOL    HW131473   2.304   3.535  12.880
 6615SOL    HW231474   2.198   3.438  12.928
 6616SOL     OW31475   3.273   1.919  11.976
 6616SOL    HW131476   3.341   1.880  12.031
 6616SOL    HW231477   3.196   1.925  12.033
 6617SOL     OW31478   3.495   4.414  26.160
 6617SOL    HW131479   3.462   4.324  26.156
 6617SOL    HW231480   3.572   4.409  26.217
 6618SOL     OW31481   2.179   3.629  12.607
 6618SOL    HW131482   2.158   3.563  12.674
 6618SOL    HW231483   2.275   3.634  12.608
 6619SOL     OW31484   3.250   3.582  14.162
 6619SOL    HW131485   3.286   3.670  14.158
 6619SOL    HW231486   3.260   3.556  14.254
 6620SOL     OW31487   3.040   1.093  12.825
 6620SOL    HW131488   3.087   1.147  12.889
 6620SOL    HW231489   3.042   1.005  12.862
 6621SOL     OW31490   1.352   3.330   3.777
 6621SOL    HW131491   1.408   3.283   3.839
 6621SOL    HW231492   1.373   3.291   3.692
 6622SOL     OW31493   2.744   4.532   2.883
 6622SOL    HW131494   2.799   4.455   2.899
 6622SOL    HW231495   2.803   4.594   2.840
 6623SOL     OW31496   1.379   1.560   2.574
 6623SOL    HW131497   1.394   1.639   2.626
 6623SOL    HW231498   1.414   1.582   2.488
 6624SOL     OW31499   2.227   2.478  12.656
 6624SOL    HW131500   2.204   2.393  12.619
 6624SOL    HW231501   2.317   2.494  12.626
 6625SOL     OW31502   1.969   2.037  12.607
 6625SOL    HW131503   1.994   1.989  12.686
 6625SOL    HW231504   1.981   1.974  12.536
 6626SOL     OW31505   2.287   2.183  12.590
 6626SOL    HW131506   2.250   2.099  12.618
 6626SOL    HW231507   2.348   2.206  12.660
 6627SOL     OW31508   2.504   2.775  11.316
 6627SOL    HW131509   2.593   2.759  11.284
 6627SOL    HW231510   2.503   2.867  11.341
 6628SOL     OW31511   3.412   2.443  13.565
 6628SOL    HW131512   3.490   2.389  13.573
 6628SOL    HW231513   3.341   2.387  13.595
 6629SOL     OW31514   1.255   2.982   4.773
 6629SOL    HW131515   1.299   3.044   4.831
 6629SOL    HW231516   1.217   3.036   4.704
 6630SOL     OW31517   3.523   2.444   1.015
 6630SOL    HW131518   3.510   2.538   1.000
 6630SOL    HW231519   3.617   2.431   1.002
 6631SOL     OW31520   3.655   2.104  12.622
 6631SOL    HW131521   3.676   2.197  12.613
 6631SOL    HW231522   3.586   2.102  12.688
 6632SOL     OW31523   0.415   1.565  12.918
 6632SOL    HW131524   0.373   1.499  12.863
 6632SOL    HW231525   0.347   1.631  12.933
 6633SOL     OW31526   2.418   1.784  22.617
 6633SOL    HW131527   2.489   1.733  22.656
 6633SOL    HW231528   2.422   1.763  22.524
 6634SOL     OW31529   2.193   2.531  11.784
 6634SOL    HW131530   2.147   2.572  11.857
 6634SOL    HW231531   2.245   2.461  11.824
 6635SOL     OW31532   2.861   2.648  15.296
 6635SOL    HW131533   2.918   2.683  15.228
 6635SOL    HW231534   2.921   2.611  15.361
 6636SOL     OW31535   1.983   2.061  14.639
 6636SOL    HW131536   2.031   2.015  14.708
 6636SOL    HW231537   2.035   2.139  14.621
 6637SOL     OW31538   3.384   2.063  13.764
 6637SOL    HW131539   3.404   1.970  13.775
 6637SOL    HW231540   3.459   2.109  13.803
 6638SOL     OW31541   2.443   2.993  14.132
 6638SOL    HW131542   2.447   3.083  14.165
 6638SOL    HW231543   2.457   3.002  14.038
 6639SOL     OW31544   4.727   2.624  13.230
 6639SOL    HW131545   4.780   2.665  13.298
 6639SOL    HW231546   4.637   2.629  13.263
 6640SOL     OW31547   1.822   1.909  13.842
 6640SOL    HW131548   1.770   1.878  13.768
 6640SOL    HW231549   1.766   1.974  13.885
 6641SOL     OW31550   1.721   3.055  13.972
 6641SOL    HW131551   1.793   3.118  13.964
 6641SOL    HW231552   1.735   2.994  13.899
 6642SOL     OW31553   2.295   2.235  13.223
 6642SOL    HW131554   2.335   2.176  13.158
 6642SOL    HW231555   2.369   2.278  13.265
 6643SOL     OW31556   1.900   1.562  14.382
 6643SOL    HW131557   1.954   1.639  14.400
 6643SOL    HW231558   1.938   1.523  14.304
 6644SOL     OW31559   1.657   2.954  13.599
 6644SOL    HW131560   1.612   2.907  13.669
 6644SOL    HW231561   1.745   2.969  13.633
 6645SOL     OW31562   2.361   1.930  13.499
 6645SOL    HW131563   2.374   1.859  13.435
 6645SOL    HW231564   2.448   1.969  13.509
 6646SOL     OW31565   2.441   3.153  13.197
 6646SOL    HW131566   2.395   3.151  13.281
 6646SOL    HW231567   2.514   3.092  13.208
 6647SOL     OW31568   1.858   2.511  14.528
 6647SOL    HW131569   1.936   2.495  14.475
 6647SOL    HW231570   1.850   2.606  14.531
 6648SOL     OW31571   2.153   3.338  14.055
 6648SOL    HW131572   2.102   3.404  14.101
 6648SOL    HW231573   2.090   3.295  13.997
 6649SOL     OW31574   1.618   1.900  14.311
 6649SOL    HW131575   1.644   1.969  14.372
 6649SOL    HW231576   1.550   1.851  14.358
 6650SOL     OW31577   2.690   0.944  14.759
 6650SOL    HW131578   2.701   0.879  14.689
 6650SOL    HW231579   2.612   0.916  14.807
 6651SOL     OW31580   3.173   4.684  12.944
 6651SOL    HW131581   3.178   4.633  13.025
 6651SOL    HW231582   3.103   4.747  12.960
 6652SOL     OW31583   2.858   1.977  14.378
 6652SOL    HW131584   2.806   2.037  14.431
 6652SOL    HW231585   2.805   1.961  14.300
 6653SOL     OW31586   2.472   2.407  15.163
 6653SOL    HW131587   2.566   2.405  15.181
 6653SOL    HW231588   2.455   2.497  15.134
 6654SOL     OW31589   3.014   2.375  14.783
 6654SOL    HW131590   3.072   2.451  14.776
 6654SOL    HW231591   3.071   2.300  14.770
 6655SOL     OW31592   2.030   2.388  15.395
 6655SOL    HW131593   2.003   2.439  15.319
 6655SOL    HW231594   2.123   2.407  15.405
 6656SOL     OW31595   2.065   1.426  14.573
 6656SOL    HW131596   2.125   1.364  14.532
 6656SOL    HW231597   2.007   1.454  14.502
 6657SOL     OW31598   1.776   2.228  12.607
 6657SOL    HW131599   1.853   2.180  12.638
 6657SOL    HW231600   1.741   2.271  12.685
 6658SOL     OW31601   3.668   4.595  13.835
 6658SOL    HW131602   3.681   4.674  13.782
 6658SOL    HW231603   3.608   4.622  13.904
 6659SOL     OW31604   2.347   3.638  13.260
 6659SOL    HW131605   2.384   3.561  13.217
 6659SOL    HW231606   2.296   3.681  13.192
 6660SOL     OW31607   2.420   2.918  14.610
 6660SOL    HW131608   2.429   2.996  14.554
 6660SOL    HW231609   2.497   2.865  14.589
 6661SOL     OW31610   3.242   2.286  13.709
 6661SOL    HW131611   3.150   2.263  13.718
 6661SOL    HW231612   3.289   2.204  13.727
 6662SOL     OW31613   1.670   2.927  15.348
 6662SOL    HW131614   1.742   2.864  15.348
 6662SOL    HW231615   1.668   2.961  15.259
 6663SOL     OW31616   2.128   2.097  15.319
 6663SOL    HW131617   2.144   2.184  15.281
 6663SOL    HW231618   2.144   2.108  15.413
 6664SOL     OW31619   3.620   2.302  13.565
 6664SOL    HW131620   3.648   2.230  13.508
 6664SOL    HW231621   3.632   2.268  13.654
 6665SOL     OW31622   2.731   2.362  15.176
 6665SOL    HW131623   2.787   2.431  15.139
 6665SOL    HW231624   2.765   2.348  15.264
 6666SOL     OW31625   2.259   1.539  14.726
 6666SOL    HW131626   2.214   1.467  14.682
 6666SOL    HW231627   2.292   1.501  14.807
 6667SOL     OW31628   0.233   1.015  15.757
 6667SOL    HW131629   0.320   1.055  15.758
 6667SOL    HW231630   0.241   0.938  15.813
 6668SOL     OW31631   3.059   2.372  15.449
 6668SOL    HW131632   3.073   2.431  15.375
 6668SOL    HW231633   3.145   2.335  15.467
 6669SOL     OW31634   1.696   2.087  14.542
 6669SOL    HW131635   1.791   2.084  14.552
 6669SOL    HW231636   1.662   2.081  14.631
 6670SOL     OW31637   0.993   2.266  14.059
 6670SOL    HW131638   1.037   2.293  13.978
 6670SOL    HW231639   0.961   2.178  14.040
 6671SOL     OW31640   1.813   2.212  15.372
 6671SOL    HW131641   1.873   2.282  15.397
 6671SOL    HW231642   1.870   2.137  15.354
 6672SOL     OW31643   2.128   1.683  14.973
 6672SOL    HW131644   2.094   1.691  15.062
 6672SOL    HW231645   2.219   1.656  14.985
 6673SOL     OW31646   2.325   2.493  14.314
 6673SOL    HW131647   2.319   2.571  14.258
 6673SOL    HW231648   2.380   2.432  14.264
 6674SOL     OW31649   2.910   2.490  15.022
 6674SOL    HW131650   2.970   2.564  15.029
 6674SOL    HW231651   2.957   2.426  14.969
 6675SOL     OW31652   3.081   2.996  15.327
 6675SOL    HW131653   3.103   2.952  15.245
 6675SOL    HW231654   3.159   3.047  15.349
 6676SOL     OW31655   2.335   2.427  15.428
 6676SOL    HW131656   2.387   2.383  15.361
 6676SOL    HW231657   2.361   2.519  15.422
 6677SOL     OW31658   2.404   2.708  15.334
 6677SOL    HW131659   2.484   2.663  15.361
 6677SOL    HW231660   2.405   2.702  15.238
 6678SOL     OW31661   3.561   2.557  17.084
 6678SOL    HW131662   3.489   2.551  17.146
 6678SOL    HW231663   3.535   2.500  17.012
 6679SOL     OW31664   2.403   3.282  14.190
 6679SOL    HW131665   2.464   3.331  14.135
 6679SOL    HW231666   2.319   3.290  14.145
 6680SOL     OW31667   3.021   2.037  16.183
 6680SOL    HW131668   3.006   2.121  16.140
 6680SOL    HW231669   3.090   2.055  16.247
 6681SOL     OW31670   2.155   2.280  14.589
 6681SOL    HW131671   2.214   2.243  14.523
 6681SOL    HW231672   2.096   2.336  14.540
 6682SOL     OW31673   3.132   2.560  15.275
 6682SOL    HW131674   3.105   2.625  15.210
 6682SOL    HW231675   3.226   2.551  15.261
 6683SOL     OW31676   3.578   2.147  15.222
 6683SOL    HW131677   3.547   2.226  15.266
 6683SOL    HW231678   3.574   2.079  15.289
 6684SOL     OW31679   3.313   1.750  15.466
 6684SOL    HW131680   3.338   1.670  15.512
 6684SOL    HW231681   3.233   1.727  15.419
 6685SOL     OW31682   3.483   2.810  16.031
 6685SOL    HW131683   3.483   2.721  15.995
 6685SOL    HW231684   3.430   2.861  15.970
 6686SOL     OW31685   2.633   2.544  15.398
 6686SOL    HW131686   2.706   2.598  15.369
 6686SOL    HW231687   2.674   2.473  15.448
 6687SOL     OW31688   1.891   2.743  15.351
 6687SOL    HW131689   1.985   2.751  15.364
 6687SOL    HW231690   1.881   2.672  15.287
 6688SOL     OW31691   3.702   2.561  16.297
 6688SOL    HW131692   3.621   2.523  16.330
 6688SOL    HW231693   3.770   2.529  16.356
 6689SOL     OW31694   2.145   2.793  15.352
 6689SOL    HW131695   2.168   2.877  15.312
 6689SOL    HW231696   2.227   2.760  15.389
 6690SOL     OW31697   1.453   2.808  15.487
 6690SOL    HW131698   1.500   2.799  15.570
 6690SOL    HW231699   1.520   2.834  15.424
 6691SOL     OW31700   1.454   2.301  22.366
 6691SOL    HW131701   1.503   2.317  22.446
 6691SOL    HW231702   1.519   2.310  22.296
 6692SOL     OW31703   2.718   3.569  17.132
 6692SOL    HW131704   2.784   3.523  17.184
 6692SOL    HW231705   2.637   3.521  17.149
 6693SOL     OW31706   4.141   0.569  25.624
 6693SOL    HW131707   4.198   0.634  25.665
 6693SOL    HW231708   4.059   0.616  25.609
 6694SOL     OW31709   4.212   0.299   8.916
 6694SOL    HW131710   4.157   0.239   8.966
 6694SOL    HW231711   4.202   0.383   8.960
 6695SOL     OW31712   1.121   1.925  17.598
 6695SOL    HW131713   1.087   1.853  17.544
 6695SOL    HW231714   1.192   1.962  17.546
 6696SOL     OW31715   1.966   3.506  16.970
 6696SOL    HW131716   1.969   3.582  16.912
 6696SOL    HW231717   1.925   3.437  16.917
 6697SOL     OW31718   2.483   0.290  16.850
 6697SOL    HW131719   2.535   0.326  16.921
 6697SOL    HW231720   2.538   0.300  16.772
 6698SOL     OW31721   2.444   2.654  16.840
 6698SOL    HW131722   2.349   2.664  16.833
 6698SOL    HW231723   2.456   2.603  16.920
 6699SOL     OW31724   1.784   0.334   6.231
 6699SOL    HW131725   1.819   0.399   6.291
 6699SOL    HW231726   1.861   0.288   6.198
 6700SOL     OW31727   1.478   2.120   0.540
 6700SOL    HW131728   1.552   2.180   0.539
 6700SOL    HW231729   1.401   2.177   0.537
 6701SOL     OW31730   0.643   0.077  16.958
 6701SOL    HW131731   0.591   0.149  16.923
 6701SOL    HW231732   0.723   0.077  16.905
 6702SOL     OW31733   4.398   4.043  16.018
 6702SOL    HW131734   4.340   4.031  16.093
 6702SOL    HW231735   4.442   3.959  16.008
 6703SOL     OW31736   2.223   1.564  18.398
 6703SOL    HW131737   2.152   1.555  18.334
 6703SOL    HW231738   2.250   1.656  18.392
 6704SOL     OW31739   2.991   0.680  17.961
 6704SOL    HW131740   2.973   0.752  18.022
 6704SOL    HW231741   3.059   0.714  17.903
 6705SOL     OW31742   4.315   2.919   0.379
 6705SOL    HW131743   4.328   2.893   0.288
 6705SOL    HW231744   4.224   2.947   0.384
 6706SOL     OW31745   0.839   3.945  17.972
 6706SOL    HW131746   0.755   3.903  17.952
 6706SOL    HW231747   0.901   3.906  17.910
 6707SOL     OW31748   2.544   0.282  18.822
 6707SOL    HW131749   2.456   0.276  18.784
 6707SOL    HW231750   2.529   0.284  18.917
 6708SOL     OW31751   2.889   3.289  16.414
 6708SOL    HW131752   2.862   3.261  16.327
 6708SOL    HW231753   2.960   3.351  16.398
 6709SOL     OW31754   0.166   2.869  17.276
 6709SOL    HW131755   0.204   2.911  17.199
 6709SOL    HW231756   0.238   2.821  17.316
 6710SOL     OW31757   2.278   1.960  16.012
 6710SOL    HW131758   2.211   1.895  15.989
 6710SOL    HW231759   2.352   1.940  15.955
 6711SOL     OW31760   1.490   2.768   0.739
 6711SOL    HW131761   1.451   2.700   0.794
 6711SOL    HW231762   1.522   2.833   0.801
 6712SOL     OW31763   1.446   2.932  19.884
 6712SOL    HW131764   1.440   2.875  19.807
 6712SOL    HW231765   1.482   3.014  19.850
 6713SOL     OW31766   2.806   0.982  17.724
 6713SOL    HW131767   2.726   1.017  17.764
 6713SOL    HW231768   2.786   0.977  17.631
 6714SOL     OW31769   1.439   0.596   0.119
 6714SOL    HW131770   1.492   0.526   0.081
 6714SOL    HW231771   1.359   0.552   0.148
 6715SOL     OW31772   3.881   3.063  17.243
 6715SOL    HW131773   3.914   3.118  17.172
 6715SOL    HW231774   3.863   2.978  17.202
 6716SOL     OW31775   4.728   1.485  26.789
 6716SOL    HW131776   4.682   1.524  26.714
 6716SOL    HW231777   0.022   1.543  26.804
 6717SOL     OW31778   2.156   4.298  18.461
 6717SOL    HW131779   2.173   4.204  18.450
 6717SOL    HW231780   2.216   4.325  18.531
 6718SOL     OW31781   2.493   3.350  17.602
 6718SOL    HW131782   2.485   3.316  17.691
 6718SOL    HW231783   2.587   3.366  17.591
 6719SOL     OW31784   1.149   3.155  26.754
 6719SOL    HW131785   1.174   3.094  26.685
 6719SOL    HW231786   1.089   3.105  26.809
 6720SOL     OW31787   3.973   3.158  16.333
 6720SOL    HW131788   4.045   3.147  16.271
 6720SOL    HW231789   4.013   3.147  16.419
 6721SOL     OW31790   1.872   2.280  17.990
 6721SOL    HW131791   1.890   2.249  17.901
 6721SOL    HW231792   1.923   2.361  17.998
 6722SOL     OW31793   2.075   2.471  17.395
 6722SOL    HW131794   1.987   2.461  17.359
 6722SOL    HW231795   2.062   2.507  17.483
 6723SOL     OW31796   0.307   1.080   7.919
 6723SOL    HW131797   0.321   0.985   7.916
 6723SOL    HW231798   0.381   1.113   7.969
 6724SOL     OW31799   1.063   0.101  25.081
 6724SOL    HW131800   1.145   0.091  25.032
 6724SOL    HW231801   1.090   0.138  25.165
 6725SOL     OW31802   1.954   2.123  17.446
 6725SOL    HW131803   1.957   2.181  17.522
 6725SOL    HW231804   1.908   2.174  17.379
 6726SOL     OW31805   4.584   1.063  16.516
 6726SOL    HW131806   4.579   1.149  16.475
 6726SOL    HW231807   4.493   1.033  16.521
 6727SOL     OW31808   4.763   0.163  25.730
 6727SOL    HW131809   4.681   0.189  25.687
 6727SOL    HW231810   0.002   0.235  25.790
 6728SOL     OW31811   1.199   4.262  17.649
 6728SOL    HW131812   1.246   4.216  17.718
 6728SOL    HW231813   1.247   4.344  17.637
 6729SOL     OW31814   2.567   2.881  16.849
 6729SOL    HW131815   2.519   2.799  16.835
 6729SOL    HW231816   2.659   2.857  16.839
 6730SOL     OW31817   4.594   2.098   7.766
 6730SOL    HW131818   4.623   2.123   7.678
 6730SOL    HW231819   4.518   2.042   7.752
 6731SOL     OW31820   0.113   3.385  18.810
 6731SOL    HW131821   0.116   3.313  18.747
 6731SOL    HW231822   0.113   3.464  18.756
 6732SOL     OW31823   3.532   0.559  15.369
 6732SOL    HW131824   3.454   0.593  15.324
 6732SOL    HW231825   3.604   0.575  15.308
 6733SOL     OW31826   2.343   4.420   5.524
 6733SOL    HW131827   2.398   4.483   5.570
 6733SOL    HW231828   2.358   4.337   5.569
 6734SOL     OW31829   2.856   4.670  11.087
 6734SOL    HW131830   2.834   4.618  11.164
 6734SOL    HW231831   2.793   4.742  11.087
 6735SOL     OW31832   1.856   0.123   8.340
 6735SOL    HW131833   1.890   0.034   8.329
 6735SOL    HW231834   1.830   0.150   8.252
 6736SOL     OW31835   2.653   3.757  16.379
 6736SOL    HW131836   2.711   3.701  16.328
 6736SOL    HW231837   2.605   3.808  16.314
 6737SOL     OW31838   0.158   2.630   4.622
 6737SOL    HW131839   0.084   2.591   4.575
 6737SOL    HW231840   0.119   2.699   4.675
 6738SOL     OW31841   2.891   0.489  17.169
 6738SOL    HW131842   2.807   0.444  17.183
 6738SOL    HW231843   2.887   0.521  17.079
 6739SOL     OW31844   0.599   3.838   7.444
 6739SOL    HW131845   0.552   3.809   7.522
 6739SOL    HW231846   0.604   3.933   7.453
 6740SOL     OW31847   1.450   0.037  19.343
 6740SOL    HW131848   1.378   4.756  19.328
 6740SOL    HW231849   1.408   0.123  19.347
 6741SOL     OW31850   0.876   4.714  17.277
 6741SOL    HW131851   0.822   4.673  17.210
 6741SOL    HW231852   0.860   4.663  17.356
 6742SOL     OW31853   4.043   2.388  25.612
 6742SOL    HW131854   4.115   2.351  25.664
 6742SOL    HW231855   3.966   2.379  25.668
 6743SOL     OW31856   0.204   2.148  27.510
 6743SOL    HW131857   0.210   2.121  27.419
 6743SOL    HW231858   0.144   2.223  27.508
 6744SOL     OW31859   3.104   3.316   2.325
 6744SOL    HW131860   3.163   3.384   2.359
 6744SOL    HW231861   3.161   3.240   2.311
 6745SOL     OW31862   2.741   4.185   6.433
 6745SOL    HW131863   2.811   4.138   6.388
 6745SOL    HW231864   2.763   4.277   6.422
 6746SOL     OW31865   3.517   0.049   2.070
 6746SOL    HW131866   3.480   0.048   1.982
 6746SOL    HW231867   3.465   4.765   2.118
 6747SOL     OW31868   1.166   2.214   1.581
 6747SOL    HW131869   1.249   2.186   1.619
 6747SOL    HW231870   1.108   2.225   1.656
 6748SOL     OW31871   3.593   0.881   5.980
 6748SOL    HW131872   3.558   0.965   5.951
 6748SOL    HW231873   3.582   0.882   6.075
 6749SOL     OW31874   4.573   4.517  18.150
 6749SOL    HW131875   4.584   4.557  18.064
 6749SOL    HW231876   4.588   4.589  18.212
 6750SOL     OW31877   3.162   4.587   3.024
 6750SOL    HW131878   3.069   4.595   3.044
 6750SOL    HW231879   3.206   4.628   3.098
 6751SOL     OW31880   3.422   2.027  21.729
 6751SOL    HW131881   3.384   2.109  21.698
 6751SOL    HW231882   3.383   1.960  21.674
 6752SOL     OW31883   1.283   1.973  23.147
 6752SOL    HW131884   1.257   2.060  23.116
 6752SOL    HW231885   1.338   1.938  23.077
 6753SOL     OW31886   1.096   4.228  22.921
 6753SOL    HW131887   1.013   4.206  22.879
 6753SOL    HW231888   1.162   4.207  22.855
 6754SOL     OW31889   3.397   3.171  23.863
 6754SOL    HW131890   3.351   3.245  23.901
 6754SOL    HW231891   3.357   3.094  23.904
 6755SOL     OW31892   3.618   1.082  23.126
 6755SOL    HW131893   3.696   1.036  23.095
 6755SOL    HW231894   3.572   1.109  23.046
 6756SOL     OW31895   2.345   2.610   7.502
 6756SOL    HW131896   2.307   2.560   7.574
 6756SOL    HW231897   2.346   2.700   7.534
 6757SOL     OW31898   3.620   2.265  17.861
 6757SOL    HW131899   3.587   2.224  17.781
 6757SOL    HW231900   3.572   2.347  17.867
 6758SOL     OW31901   4.382   4.569   2.195
 6758SOL    HW131902   4.410   4.539   2.282
 6758SOL    HW231903   4.323   4.642   2.213
 6759SOL     OW31904   2.559   0.470  21.202
 6759SOL    HW131905   2.631   0.449  21.262
 6759SOL    HW231906   2.602   0.488  21.118
 6760SOL     OW31907   0.106   3.407   4.126
 6760SOL    HW131908   0.172   3.353   4.169
 6760SOL    HW231909   0.023   3.367   4.152
 6761SOL     OW31910   1.887   3.725  24.476
 6761SOL    HW131911   1.970   3.719  24.524
 6761SOL    HW231912   1.862   3.817  24.483
 6762SOL     OW31913   2.575   1.327  24.395
 6762SOL    HW131914   2.481   1.335  24.379
 6762SOL    HW231915   2.586   1.350  24.487
 6763SOL     OW31916   2.030   4.505  11.521
 6763SOL    HW131917   1.943   4.501  11.561
 6763SOL    HW231918   2.078   4.568  11.575
 6764SOL     OW31919   2.563   1.551  19.919
 6764SOL    HW131920   2.490   1.563  19.859
 6764SOL    HW231921   2.555   1.624  19.981
 6765SOL     OW31922   0.478   1.404  26.138
 6765SOL    HW131923   0.507   1.486  26.098
 6765SOL    HW231924   0.520   1.335  26.087
 6766SOL     OW31925   0.892   1.274  28.266
 6766SOL    HW131926   0.919   1.206  28.327
 6766SOL    HW231927   0.813   1.239  28.225
 6767SOL     OW31928   1.844   3.898  28.468
 6767SOL    HW131929   1.749   3.890  28.469
 6767SOL    HW231930   1.874   3.829   0.008
 6768SOL     OW31931   1.776   1.381  17.576
 6768SOL    HW131932   1.753   1.411  17.488
 6768SOL    HW231933   1.820   1.456  17.616
 6769SOL     OW31934   2.296   3.288   3.890
 6769SOL    HW131935   2.388   3.269   3.906
 6769SOL    HW231936   2.249   3.227   3.946
 6770SOL     OW31937   3.876   0.276   1.985
 6770SOL    HW131938   3.924   0.323   1.917
 6770SOL    HW231939   3.899   0.184   1.971
 6771SOL     OW31940   2.095   1.832   4.350
 6771SOL    HW131941   2.150   1.902   4.386
 6771SOL    HW231942   2.067   1.865   4.264
 6772SOL     OW31943   0.382   0.187  22.250
 6772SOL    HW131944   0.435   0.217  22.324
 6772SOL    HW231945   0.355   0.267  22.205
 6773SOL     OW31946   3.417   3.014  26.092
 6773SOL    HW131947   3.354   2.945  26.114
 6773SOL    HW231948   3.377   3.060  26.018
 6774SOL     OW31949   1.531   1.481  23.602
 6774SOL    HW131950   1.475   1.480  23.525
 6774SOL    HW231951   1.618   1.504  23.568
 6775SOL     OW31952   4.322   1.720   9.300
 6775SOL    HW131953   4.228   1.701   9.295
 6775SOL    HW231954   4.332   1.770   9.381
 6776SOL     OW31955   0.880   4.033   6.499
 6776SOL    HW131956   0.903   3.983   6.421
 6776SOL    HW231957   0.872   4.123   6.469
 6777SOL     OW31958   3.164   2.776  10.999
 6777SOL    HW131959   3.220   2.754  11.073
 6777SOL    HW231960   3.223   2.814  10.934
 6778SOL     OW31961   4.079   3.454   7.034
 6778SOL    HW131962   4.100   3.361   7.024
 6778SOL    HW231963   4.008   3.456   7.098
 6779SOL     OW31964   2.645   1.790   5.766
 6779SOL    HW131965   2.597   1.759   5.689
 6779SOL    HW231966   2.737   1.770   5.747
 6780SOL     OW31967   0.798   2.340  21.287
 6780SOL    HW131968   0.841   2.417  21.249
 6780SOL    HW231969   0.870   2.288  21.323
 6781SOL     OW31970   2.569   1.663   2.487
 6781SOL    HW131971   2.500   1.702   2.541
 6781SOL    HW231972   2.648   1.712   2.511
 6782SOL     OW31973   0.198   1.636  23.074
 6782SOL    HW131974   0.112   1.598  23.056
 6782SOL    HW231975   0.179   1.719  23.118
 6783SOL     OW31976   4.180   3.090   1.539
 6783SOL    HW131977   4.207   3.159   1.478
 6783SOL    HW231978   4.163   3.136   1.621
 6784SOL     OW31979   3.187   2.625  21.670
 6784SOL    HW131980   3.274   2.587  21.659
 6784SOL    HW231981   3.129   2.550  21.684
 6785SOL     OW31982   3.909   0.570  20.958
 6785SOL    HW131983   3.935   0.547  20.869
 6785SOL    HW231984   3.831   0.518  20.975
 6786SOL     OW31985   3.921   3.630  16.736
 6786SOL    HW131986   3.954   3.543  16.712
 6786SOL    HW231987   3.990   3.668  16.790
 6787SOL     OW31988   4.060   3.389  25.104
 6787SOL    HW131989   4.026   3.331  25.036
 6787SOL    HW231990   4.045   3.341  25.186
 6788SOL     OW31991   3.054   0.077  21.123
 6788SOL    HW131992   3.026   0.121  21.203
 6788SOL    HW231993   2.982   0.017  21.103
 6789SOL     OW31994   1.528   1.874  24.186
 6789SOL    HW131995   1.617   1.868  24.150
 6789SOL    HW231996   1.540   1.877  24.281
 6790SOL     OW31997   2.880   3.190  23.619
 6790SOL    HW131998   2.943   3.148  23.561
 6790SOL    HW231999   2.933   3.247  23.674
 6791SOL     OW32000   0.324   2.709   1.205
 6791SOL    HW132001   0.279   2.793   1.196
 6791SOL    HW232002   0.385   2.706   1.131
 6792SOL     OW32003   0.659   3.150   6.376
 6792SOL    HW132004   0.706   3.074   6.410
 6792SOL    HW232005   0.694   3.162   6.288
 6793SOL     OW32006   2.510   0.514  20.856
 6793SOL    HW132007   2.440   0.449  20.854
 6793SOL    HW232008   2.465   0.598  20.857
 6794SOL     OW32009   1.246   0.832  18.029
 6794SOL    HW132010   1.289   0.907  18.069
 6794SOL    HW232011   1.154   0.841  18.054
 6795SOL     OW32012   0.533   0.384  24.535
 6795SOL    HW132013   0.533   0.468  24.582
 6795SOL    HW232014   0.572   0.404  24.450
 6796SOL     OW32015   2.198   2.061  23.131
 6796SOL    HW132016   2.221   2.129  23.194
 6796SOL    HW232017   2.269   1.997  23.138
 6797SOL     OW32018   3.452   3.146   7.655
 6797SOL    HW132019   3.523   3.115   7.711
 6797SOL    HW232020   3.400   3.202   7.712
 6798SOL     OW32021   3.198   4.010   5.422
 6798SOL    HW132022   3.256   4.086   5.424
 6798SOL    HW232023   3.213   3.965   5.505
 6799SOL     OW32024   0.831   0.434  12.473
 6799SOL    HW132025   0.832   0.370  12.544
 6799SOL    HW232026   0.787   0.510  12.510
 6800SOL     OW32027   3.114   3.322   7.492
 6800SOL    HW132028   3.101   3.243   7.440
 6800SOL    HW232029   3.028   3.339   7.531
 6801SOL     OW32030   3.490   3.859   5.641
 6801SOL    HW132031   3.576   3.855   5.683
 6801SOL    HW232032   3.501   3.922   5.569
 6802SOL     OW32033   0.110   0.031  21.679
 6802SOL    HW132034   0.127   0.030  21.585
 6802SOL    HW232035   0.132   4.723  21.709
 6803SOL     OW32036   0.331   4.225  24.580
 6803SOL    HW132037   0.412   4.207  24.533
 6803SOL    HW232038   0.335   4.169  24.658
 6804SOL     OW32039   3.578   4.614   1.711
 6804SOL    HW132040   3.625   4.560   1.775
 6804SOL    HW232041   3.506   4.653   1.761
 6805SOL     OW32042   3.090   1.620   2.403
 6805SOL    HW132043   3.117   1.528   2.404
 6805SOL    HW232044   3.072   1.639   2.311
 6806SOL     OW32045   1.650   2.084  23.191
 6806SOL    HW132046   1.716   2.016  23.205
 6806SOL    HW232047   1.620   2.069  23.101
 6807SOL     OW32048   1.725   3.820  18.892
 6807SOL    HW132049   1.738   3.883  18.963
 6807SOL    HW232050   1.665   3.864  18.832
 6808SOL     OW32051   1.356   3.578   9.010
 6808SOL    HW132052   1.313   3.555   8.928
 6808SOL    HW232053   1.314   3.659   9.037
 6809SOL     OW32054   1.346   3.175   1.737
 6809SOL    HW132055   1.377   3.262   1.714
 6809SOL    HW232056   1.403   3.147   1.809
 6810SOL     OW32057   4.687   4.375  23.385
 6810SOL    HW132058   4.638   4.456  23.398
 6810SOL    HW232059   4.754   4.397  23.321
 6811SOL     OW32060   3.244   1.308  20.979
 6811SOL    HW132061   3.285   1.292  20.894
 6811SOL    HW232062   3.317   1.323  21.038
 6812SOL     OW32063   1.224   3.247   1.449
 6812SOL    HW132064   1.157   3.307   1.482
 6812SOL    HW232065   1.260   3.206   1.527
 6813SOL     OW32066   0.368   1.470  27.886
 6813SOL    HW132067   0.272   1.471  27.892
 6813SOL    HW232068   0.388   1.392  27.834
 6814SOL     OW32069   2.995   2.283  22.045
 6814SOL    HW132070   2.935   2.281  22.119
 6814SOL    HW232071   2.943   2.250  21.971
 6815SOL     OW32072   1.618   1.748   3.748
 6815SOL    HW132073   1.656   1.660   3.751
 6815SOL    HW232074   1.524   1.735   3.762
 6816SOL     OW32075   0.279   0.754  10.307
 6816SOL    HW132076   0.328   0.746  10.389
 6816SOL    HW232077   0.218   0.826  10.322
 6817SOL     OW32078   0.136   4.319   0.125
 6817SOL    HW132079   0.107   4.390   0.068
 6817SOL    HW232080   0.079   4.245   0.104
 6818SOL     OW32081   0.112   2.054  10.755
 6818SOL    HW132082   0.074   2.142  10.758
 6818SOL    HW232083   0.132   2.033  10.846
 6819SOL     OW32084   3.661   0.457   0.181
 6819SOL    HW132085   3.589   0.452   0.244
 6819SOL    HW232086   3.648   0.542   0.138
 6820SOL     OW32087   3.925   0.548  23.355
 6820SOL    HW132088   3.846   0.602  23.359
 6820SOL    HW232089   3.959   0.550  23.444
 6821SOL     OW32090   3.164   2.136   2.851
 6821SOL    HW132091   3.087   2.081   2.837
 6821SOL    HW232092   3.226   2.079   2.896
 6822SOL     OW32093   1.177   4.423  17.113
 6822SOL    HW132094   1.091   4.382  17.125
 6822SOL    HW232095   1.237   4.349  17.105
 6823SOL     OW32096   1.525   1.721   4.813
 6823SOL    HW132097   1.504   1.689   4.901
 6823SOL    HW232098   1.505   1.815   4.817
 6824SOL     OW32099   0.804   0.318   4.159
 6824SOL    HW132100   0.814   0.413   4.169
 6824SOL    HW232101   0.709   0.304   4.154
 6825SOL     OW32102   4.611   2.380   8.120
 6825SOL    HW132103   4.616   2.433   8.041
 6825SOL    HW232104   4.586   2.293   8.089
 6826SOL     OW32105   3.951   0.454  18.533
 6826SOL    HW132106   3.994   0.371  18.513
 6826SOL    HW232107   3.904   0.477  18.453
 6827SOL     OW32108   0.486   2.873  21.549
 6827SOL    HW132109   0.401   2.896  21.587
 6827SOL    HW232110   0.466   2.851  21.458
 6828SOL     OW32111   2.176   0.517  17.756
 6828SOL    HW132112   2.116   0.443  17.766
 6828SOL    HW232113   2.137   0.570  17.687
 6829SOL     OW32114   4.319   4.599   7.788
 6829SOL    HW132115   4.345   4.585   7.697
 6829SOL    HW232116   4.379   4.544   7.838
 6830SOL     OW32117   0.409   3.234  18.692
 6830SOL    HW132118   0.397   3.291  18.768
 6830SOL    HW232119   0.464   3.163  18.724
 6831SOL     OW32120   4.551   4.154  23.438
 6831SOL    HW132121   4.610   4.223  23.407
 6831SOL    HW232122   4.527   4.106  23.359
 6832SOL     OW32123   1.488   4.461  19.311
 6832SOL    HW132124   1.475   4.377  19.267
 6832SOL    HW232125   1.412   4.513  19.286
 6833SOL     OW32126   2.804   2.407  24.508
 6833SOL    HW132127   2.766   2.466  24.443
 6833SOL    HW232128   2.861   2.463  24.561
 6834SOL     OW32129   1.007   0.688   6.250
 6834SOL    HW132130   1.030   0.685   6.157
 6834SOL    HW232131   1.078   0.641   6.293
 6835SOL     OW32132   3.838   2.926   7.181
 6835SOL    HW132133   3.926   2.957   7.158
 6835SOL    HW232134   3.837   2.925   7.277
 6836SOL     OW32135   0.373   0.635  19.424
 6836SOL    HW132136   0.420   0.619  19.342
 6836SOL    HW232137   0.395   0.560  19.479
 6837SOL     OW32138   2.737   1.583  27.214
 6837SOL    HW132139   2.739   1.490  27.237
 6837SOL    HW232140   2.788   1.626  27.283
 6838SOL     OW32141   1.036   2.128  19.129
 6838SOL    HW132142   1.104   2.073  19.091
 6838SOL    HW232143   1.028   2.201  19.068
 6839SOL     OW32144   3.487   1.204   8.288
 6839SOL    HW132145   3.475   1.297   8.308
 6839SOL    HW232146   3.559   1.176   8.345
 6840SOL     OW32147   1.175   0.729  26.881
 6840SOL    HW132148   1.161   0.680  26.962
 6840SOL    HW232149   1.254   0.781  26.898
 6841SOL     OW32150   1.122   4.386   7.299
 6841SOL    HW132151   1.151   4.296   7.286
 6841SOL    HW232152   1.091   4.388   7.390
 6842SOL     OW32153   1.351   3.687   1.987
 6842SOL    HW132154   1.390   3.611   2.030
 6842SOL    HW232155   1.272   3.705   2.037
 6843SOL     OW32156   0.186   4.426   4.304
 6843SOL    HW132157   0.163   4.334   4.313
 6843SOL    HW232158   0.146   4.453   4.221
 6844SOL     OW32159   3.588   0.898  26.438
 6844SOL    HW132160   3.610   0.810  26.468
 6844SOL    HW232161   3.510   0.886  26.384
 6845SOL     OW32162   2.781   4.509   2.502
 6845SOL    HW132163   2.719   4.579   2.480
 6845SOL    HW232164   2.774   4.448   2.429
 6846SOL     OW32165   2.854   4.233   3.761
 6846SOL    HW132166   2.840   4.280   3.679
 6846SOL    HW232167   2.788   4.163   3.760
 6847SOL     OW32168   0.597   1.154  18.155
 6847SOL    HW132169   0.652   1.118  18.225
 6847SOL    HW232170   0.626   1.109  18.076
 6848SOL     OW32171   2.650   2.084  25.929
 6848SOL    HW132172   2.615   2.101  26.016
 6848SOL    HW232173   2.666   1.990  25.928
 6849SOL     OW32174   2.922   3.567  27.157
 6849SOL    HW132175   3.010   3.603  27.169
 6849SOL    HW232176   2.881   3.576  27.243
 6850SOL     OW32177   1.703   1.635   3.111
 6850SOL    HW132178   1.645   1.691   3.060
 6850SOL    HW232179   1.760   1.696   3.158
 6851SOL     OW32180   4.258   1.434  22.822
 6851SOL    HW132181   4.270   1.355  22.769
 6851SOL    HW232182   4.168   1.462  22.804
 6852SOL     OW32183   2.202   0.956  21.642
 6852SOL    HW132184   2.229   1.004  21.564
 6852SOL    HW232185   2.176   1.024  21.704
 6853SOL     OW32186   3.158   2.236   6.411
 6853SOL    HW132187   3.103   2.158   6.417
 6853SOL    HW232188   3.201   2.243   6.496
 6854SOL     OW32189   0.381   3.628  25.981
 6854SOL    HW132190   0.303   3.594  26.024
 6854SOL    HW232191   0.415   3.554  25.931
 6855SOL     OW32192   3.752   3.028  22.396
 6855SOL    HW132193   3.746   2.998  22.487
 6855SOL    HW232194   3.722   3.119  22.399
 6856SOL     OW32195   1.761   1.102  11.315
 6856SOL    HW132196   1.823   1.155  11.265
 6856SOL    HW232197   1.795   1.104  11.405
 6857SOL     OW32198   0.244   4.774   1.422
 6857SOL    HW132199   0.158   0.011   1.459
 6857SOL    HW232200   0.257   0.063   1.357
 6858SOL     OW32201   3.549   0.300  23.884
 6858SOL    HW132202   3.616   0.243  23.846
 6858SOL    HW232203   3.530   0.364  23.816
 6859SOL     OW32204   0.360   1.393   0.753
 6859SOL    HW132205   0.429   1.332   0.726
 6859SOL    HW232206   0.396   1.480   0.733
 6860SOL     OW32207   0.613   3.906   2.317
 6860SOL    HW132208   0.669   3.865   2.383
 6860SOL    HW232209   0.598   3.837   2.252
 6861SOL     OW32210   3.618   4.005  27.406
 6861SOL    HW132211   3.572   4.088  27.392
 6861SOL    HW232212   3.550   3.938  27.398
 6862SOL     OW32213   0.056   2.813  20.581
 6862SOL    HW132214   0.138   2.854  20.608
 6862SOL    HW232215   0.016   2.876  20.521
 6863SOL     OW32216   4.396   0.285   4.026
 6863SOL    HW132217   4.365   0.239   3.948
 6863SOL    HW232218   4.460   0.225   4.065
 6864SOL     OW32219   3.719   3.914   5.840
 6864SOL    HW132220   3.794   3.969   5.818
 6864SOL    HW232221   3.689   3.947   5.925
 6865SOL     OW32222   3.472   0.193   0.272
 6865SOL    HW132223   3.448   0.153   0.189
 6865SOL    HW232224   3.568   0.187   0.275
 6866SOL     OW32225   1.330   4.176  27.323
 6866SOL    HW132226   1.240   4.189  27.293
 6866SOL    HW232227   1.325   4.101  27.382
 6867SOL     OW32228   4.430   0.146   9.716
 6867SOL    HW132229   4.394   0.191   9.792
 6867SOL    HW232230   4.524   0.143   9.733
 6868SOL     OW32231   2.207   1.676  26.462
 6868SOL    HW132232   2.248   1.726  26.533
 6868SOL    HW232233   2.253   1.592  26.462
 6869SOL     OW32234   1.731   0.904  20.737
 6869SOL    HW132235   1.782   0.969  20.688
 6869SOL    HW232236   1.738   0.824  20.685
 6870SOL     OW32237   0.133   0.397  20.052
 6870SOL    HW132238   0.136   0.345  20.132
 6870SOL    HW232239   0.185   0.475  20.073
 6871SOL     OW32240   1.168   2.161  23.861
 6871SOL    HW132241   1.180   2.225  23.791
 6871SOL    HW232242   1.241   2.177  23.921
 6872SOL     OW32243   3.233   4.763   7.639
 6872SOL    HW132244   3.261   4.756   7.548
 6872SOL    HW232245   3.238   0.076   7.659
 6873SOL     OW32246   0.890   0.854   1.273
 6873SOL    HW132247   0.828   0.823   1.207
 6873SOL    HW232248   0.973   0.863   1.226
 6874SOL     OW32249   4.394   4.571   4.348
 6874SOL    HW132250   4.447   4.509   4.398
 6874SOL    HW232251   4.444   4.586   4.268
 6875SOL     OW32252   0.795   2.986  27.053
 6875SOL    HW132253   0.783   3.065  27.105
 6875SOL    HW232254   0.736   2.997  26.978
 6876SOL     OW32255   2.488   4.606   5.666
 6876SOL    HW132256   2.477   4.698   5.641
 6876SOL    HW232257   2.581   4.598   5.689
 6877SOL     OW32258   3.510   2.186  24.551
 6877SOL    HW132259   3.425   2.208  24.590
 6877SOL    HW232260   3.490   2.166  24.460
 6878SOL     OW32261   4.465   1.917   6.355
 6878SOL    HW132262   4.440   1.966   6.277
 6878SOL    HW232263   4.493   1.832   6.322
 6879SOL     OW32264   4.257   4.683   1.849
 6879SOL    HW132265   4.306   4.601   1.841
 6879SOL    HW232266   4.310   4.737   1.908
 6880SOL     OW32267   3.989   0.254  27.158
 6880SOL    HW132268   4.011   0.326  27.218
 6880SOL    HW232269   3.916   0.209  27.200
 6881SOL     OW32270   1.090   1.775  22.445
 6881SOL    HW132271   1.111   1.770  22.538
 6881SOL    HW232272   0.997   1.797  22.443
 6882SOL     OW32273   4.469   1.599  23.419
 6882SOL    HW132274   4.544   1.542  23.433
 6882SOL    HW232275   4.506   1.687  23.420
 6883SOL     OW32276   1.116   0.635   0.661
 6883SOL    HW132277   1.101   0.542   0.644
 6883SOL    HW232278   1.178   0.636   0.734
 6884SOL     OW32279   3.655   3.752   6.443
 6884SOL    HW132280   3.715   3.740   6.517
 6884SOL    HW232281   3.578   3.700   6.466
 6885SOL     OW32282   1.885   0.965   5.029
 6885SOL    HW132283   1.797   1.001   5.044
 6885SOL    HW232284   1.926   0.966   5.116
 6886SOL     OW32285   2.838   0.589  23.630
 6886SOL    HW132286   2.813   0.647  23.559
 6886SOL    HW232287   2.779   0.612  23.702
 6887SOL     OW32288   3.348   3.956  23.394
 6887SOL    HW132289   3.398   3.889  23.441
 6887SOL    HW232290   3.323   3.914  23.312
 6888SOL     OW32291   1.721   3.059   6.406
 6888SOL    HW132292   1.683   2.985   6.454
 6888SOL    HW232293   1.709   3.037   6.314
 6889SOL     OW32294   0.880   2.366   6.591
 6889SOL    HW132295   0.954   2.402   6.640
 6889SOL    HW232296   0.881   2.272   6.611
 6890SOL     OW32297   0.892   0.482   9.069
 6890SOL    HW132298   0.860   0.555   9.016
 6890SOL    HW232299   0.867   0.505   9.159
 6891SOL     OW32300   0.794   2.763  24.698
 6891SOL    HW132301   0.838   2.705  24.635
 6891SOL    HW232302   0.702   2.735  24.696
 6892SOL     OW32303   0.326   3.022   4.424
 6892SOL    HW132304   0.348   2.935   4.457
 6892SOL    HW232305   0.288   3.068   4.499
 6893SOL     OW32306   2.811   2.249  20.928
 6893SOL    HW132307   2.814   2.193  20.850
 6893SOL    HW232308   2.884   2.310  20.916
 6894SOL     OW32309   1.633   0.032  19.546
 6894SOL    HW132310   1.615   0.116  19.589
 6894SOL    HW232311   1.580   0.035  19.466
 6895SOL     OW32312   3.294   1.766  20.922
 6895SOL    HW132313   3.235   1.826  20.968
 6895SOL    HW232314   3.347   1.727  20.991
 6896SOL     OW32315   3.328   0.375   8.356
 6896SOL    HW132316   3.401   0.319   8.330
 6896SOL    HW232317   3.369   0.447   8.405
 6897SOL     OW32318   3.764   2.410  18.163
 6897SOL    HW132319   3.669   2.414  18.170
 6897SOL    HW232320   3.783   2.448  18.077
 6898SOL     OW32321   1.687   4.464  18.023
 6898SOL    HW132322   1.691   4.550  18.065
 6898SOL    HW232323   1.777   4.446  17.997
 6899SOL     OW32324   2.548   3.172  28.264
 6899SOL    HW132325   2.592   3.142  28.184
 6899SOL    HW232326   2.617   3.217  28.314
 6900SOL     OW32327   3.179   3.541  23.658
 6900SOL    HW132328   3.182   3.569  23.567
 6900SOL    HW232329   3.271   3.529  23.683
 6901SOL     OW32330   1.553   0.116  21.396
 6901SOL    HW132331   1.585   0.028  21.416
 6901SOL    HW232332   1.518   0.110  21.307
 6902SOL     OW32333   1.802   3.545   6.294
 6902SOL    HW132334   1.737   3.544   6.365
 6902SOL    HW232335   1.763   3.602   6.227
 6903SOL     OW32336   0.271   4.355   1.510
 6903SOL    HW132337   0.343   4.416   1.523
 6903SOL    HW232338   0.216   4.396   1.443
 6904SOL     OW32339   3.069   1.039  27.758
 6904SOL    HW132340   3.125   1.055  27.834
 6904SOL    HW232341   3.109   0.963  27.715
 6905SOL     OW32342   2.098   2.914   0.790
 6905SOL    HW132343   2.140   2.944   0.710
 6905SOL    HW232344   2.023   2.863   0.760
 6906SOL     OW32345   3.948   2.188  11.554
 6906SOL    HW132346   3.983   2.248  11.619
 6906SOL    HW232347   3.921   2.111  11.604
 6907SOL     OW32348   2.552   1.101  27.340
 6907SOL    HW132349   2.644   1.097  27.366
 6907SOL    HW232350   2.537   1.021  27.290
 6908SOL     OW32351   0.954   1.143   9.278
 6908SOL    HW132352   0.991   1.180   9.198
 6908SOL    HW232353   0.916   1.218   9.324
 6909SOL     OW32354   4.594   0.550  24.325
 6909SOL    HW132355   4.501   0.546  24.302
 6909SOL    HW232356   4.612   0.466  24.367
 6910SOL     OW32357   3.391   1.060   6.912
 6910SOL    HW132358   3.440   0.983   6.884
 6910SOL    HW232359   3.387   1.116   6.834
 6911SOL     OW32360   2.269   1.449   4.181
 6911SOL    HW132361   2.186   1.497   4.179
 6911SOL    HW232362   2.334   1.515   4.207
 6912SOL     OW32363   0.060   0.808   7.574
 6912SOL    HW132364   0.154   0.791   7.583
 6912SOL    HW232365   0.038   0.862   7.650
 6913SOL     OW32366   2.528   1.342   8.290
 6913SOL    HW132367   2.483   1.314   8.370
 6913SOL    HW232368   2.462   1.332   8.221
 6914SOL     OW32369   2.554   4.442   7.199
 6914SOL    HW132370   2.570   4.501   7.273
 6914SOL    HW232371   2.498   4.492   7.140
 6915SOL     OW32372   2.114   1.415  25.487
 6915SOL    HW132373   2.089   1.391  25.398
 6915SOL    HW232374   2.066   1.354  25.543
 6916SOL     OW32375   1.332   3.529  25.680
 6916SOL    HW132376   1.375   3.573  25.607
 6916SOL    HW232377   1.269   3.470  25.638
 6917SOL     OW32378   2.460   2.686  23.166
 6917SOL    HW132379   2.520   2.689  23.091
 6917SOL    HW232380   2.394   2.753  23.147
 6918SOL     OW32381   0.197   4.076   3.488
 6918SOL    HW132382   0.114   4.031   3.470
 6918SOL    HW232383   0.194   4.155   3.434
 6919SOL     OW32384   0.343   4.038  24.822
 6919SOL    HW132385   0.289   4.052  24.900
 6919SOL    HW232386   0.404   4.112  24.821
 6920SOL     OW32387   0.529   2.453  20.013
 6920SOL    HW132388   0.507   2.401  19.936
 6920SOL    HW232389   0.623   2.439  20.025
 6921SOL     OW32390   0.192   2.771   2.472
 6921SOL    HW132391   0.112   2.763   2.420
 6921SOL    HW232392   0.196   2.690   2.523
 6922SOL     OW32393   3.852   2.304  24.159
 6922SOL    HW132394   3.869   2.358  24.082
 6922SOL    HW232395   3.870   2.214  24.130
 6923SOL     OW32396   0.553   4.296  27.939
 6923SOL    HW132397   0.537   4.343  27.857
 6923SOL    HW232398   0.476   4.315  27.992
 6924SOL     OW32399   2.385   0.312  19.053
 6924SOL    HW132400   2.387   0.282  19.144
 6924SOL    HW232401   2.368   0.406  19.059
 6925SOL     OW32402   4.349   2.675   0.129
 6925SOL    HW132403   4.427   2.623   0.148
 6925SOL    HW232404   4.278   2.632   0.177
 6926SOL     OW32405   0.936   0.490  20.041
 6926SOL    HW132406   1.007   0.426  20.043
 6926SOL    HW232407   0.868   0.453  20.097
 6927SOL     OW32408   1.474   1.903  27.460
 6927SOL    HW132409   1.492   1.846  27.535
 6927SOL    HW232410   1.437   1.844  27.394
 6928SOL     OW32411   3.385   0.780   1.582
 6928SOL    HW132412   3.470   0.815   1.553
 6928SOL    HW232413   3.326   0.797   1.508
 6929SOL     OW32414   4.307   0.655  16.559
 6929SOL    HW132415   4.287   0.667  16.466
 6929SOL    HW232416   4.362   0.577  16.562
 6930SOL     OW32417   0.696   2.122  27.315
 6930SOL    HW132418   0.716   2.213  27.294
 6930SOL    HW232419   0.757   2.099  27.385
 6931SOL     OW32420   4.161   1.111   3.422
 6931SOL    HW132421   4.164   1.092   3.516
 6931SOL    HW232422   4.068   1.107   3.399
 6932SOL     OW32423   2.557   0.743  18.010
 6932SOL    HW132424   2.632   0.795  18.039
 6932SOL    HW232425   2.483   0.803  18.017
 6933SOL     OW32426   0.366   3.505   7.516
 6933SOL    HW132427   0.460   3.488   7.524
 6933SOL    HW232428   0.332   3.429   7.469
 6934SOL     OW32429   0.233   0.886  21.196
 6934SOL    HW132430   0.191   0.939  21.128
 6934SOL    HW232431   0.315   0.858  21.156
 6935SOL     OW32432   0.085   1.947  21.821
 6935SOL    HW132433   0.127   1.875  21.773
 6935SOL    HW232434   0.047   2.002  21.753
 6936SOL     OW32435   1.214   0.021  28.276
 6936SOL    HW132436   1.305   0.047  28.290
 6936SOL    HW232437   1.162   0.084  28.326
 6937SOL     OW32438   1.589   4.259  26.261
 6937SOL    HW132439   1.634   4.267  26.177
 6937SOL    HW232440   1.658   4.271  26.326
 6938SOL     OW32441   4.541   3.510   8.462
 6938SOL    HW132442   4.633   3.498   8.440
 6938SOL    HW232443   4.540   3.524   8.557
 6939SOL     OW32444   3.150   2.405   2.291
 6939SOL    HW132445   3.108   2.364   2.216
 6939SOL    HW232446   3.150   2.499   2.271
 6940SOL     OW32447   1.058   4.101   1.977
 6940SOL    HW132448   1.029   4.136   2.061
 6940SOL    HW232449   1.151   4.124   1.972
 6941SOL     OW32450   4.626   4.201  22.768
 6941SOL    HW132451   4.557   4.219  22.705
 6941SOL    HW232452   4.707   4.224  22.722
 6942SOL     OW32453   1.914   2.045   3.539
 6942SOL    HW132454   1.985   1.982   3.554
 6942SOL    HW232455   1.957   2.130   3.539
 6943SOL     OW32456   2.673   2.284  10.046
 6943SOL    HW132457   2.624   2.243  10.117
 6943SOL    HW232458   2.716   2.211  10.002
 6944SOL     OW32459   1.636   0.745  19.520
 6944SOL    HW132460   1.599   0.667  19.479
 6944SOL    HW232461   1.717   0.714  19.561
 6945SOL     OW32462   0.089   1.853   7.677
 6945SOL    HW132463   0.090   1.824   7.768
 6945SOL    HW232464   0.162   1.914   7.671
 6946SOL     OW32465   4.365   1.326  10.590
 6946SOL    HW132466   4.332   1.271  10.519
 6946SOL    HW232467   4.296   1.391  10.604
 6947SOL     OW32468   1.934   4.780  22.321
 6947SOL    HW132469   1.862   0.062  22.332
 6947SOL    HW232470   2.013   0.054  22.324
 6948SOL     OW32471   2.198   4.728   9.546
 6948SOL    HW132472   2.183   0.023   9.488
 6948SOL    HW232473   2.186   4.763   9.634
 6949SOL     OW32474   1.950   2.069  16.254
 6949SOL    HW132475   1.965   2.129  16.327
 6949SOL    HW232476   1.869   2.023  16.277
 6950SOL     OW32477   2.332   4.767   6.640
 6950SOL    HW132478   2.393   4.708   6.596
 6950SOL    HW232479   2.291   0.036   6.569
 6951SOL     OW32480   3.192   2.665   2.192
 6951SOL    HW132481   3.102   2.697   2.200
 6951SOL    HW232482   3.246   2.739   2.219
 6952SOL     OW32483   3.669   3.319  22.434
 6952SOL    HW132484   3.631   3.309  22.521
 6952SOL    HW232485   3.687   3.413  22.427
 6953SOL     OW32486   1.397   4.142   5.151
 6953SOL    HW132487   1.454   4.084   5.202
 6953SOL    HW232488   1.448   4.223   5.141
 6954SOL     OW32489   0.128   2.273  25.631
 6954SOL    HW132490   0.140   2.213  25.557
 6954SOL    HW232491   0.210   2.323  25.634
 6955SOL     OW32492   4.346   2.410  16.633
 6955SOL    HW132493   4.375   2.381  16.547
 6955SOL    HW232494   4.426   2.412  16.686
 6956SOL     OW32495   1.589   3.185  19.429
 6956SOL    HW132496   1.678   3.178  19.395
 6956SOL    HW232497   1.537   3.214  19.354
 6957SOL     OW32498   2.838   2.194   1.838
 6957SOL    HW132499   2.793   2.278   1.834
 6957SOL    HW232500   2.900   2.197   1.766
 6958SOL     OW32501   1.350   1.459  23.425
 6958SOL    HW132502   1.264   1.464  23.468
 6958SOL    HW232503   1.362   1.546  23.386
 6959SOL     OW32504   0.848   4.202  27.140
 6959SOL    HW132505   0.880   4.128  27.088
 6959SOL    HW232506   0.918   4.218  27.204
 6960SOL     OW32507   3.632   2.071   8.244
 6960SOL    HW132508   3.543   2.042   8.264
 6960SOL    HW232509   3.645   2.046   8.152
 6961SOL     OW32510   4.522   3.556  25.694
 6961SOL    HW132511   4.429   3.559  25.671
 6961SOL    HW232512   4.560   3.631  25.648
 6962SOL     OW32513   2.200   1.615  17.689
 6962SOL    HW132514   2.204   1.526  17.654
 6962SOL    HW232515   2.276   1.622  17.747
 6963SOL     OW32516   2.997   3.113  11.184
 6963SOL    HW132517   2.946   3.108  11.265
 6963SOL    HW232518   2.952   3.055  11.123
 6964SOL     OW32519   2.422   2.445  20.046
 6964SOL    HW132520   2.516   2.458  20.059
 6964SOL    HW232521   2.381   2.491  20.120
 6965SOL     OW32522   1.664   3.057  19.116
 6965SOL    HW132523   1.616   2.979  19.144
 6965SOL    HW232524   1.689   3.101  19.197
 6966SOL     OW32525   2.664   2.942   2.648
 6966SOL    HW132526   2.704   2.918   2.564
 6966SOL    HW232527   2.722   2.904   2.714
 6967SOL     OW32528   1.871   0.262  25.073
 6967SOL    HW132529   1.793   0.250  25.019
 6967SOL    HW232530   1.843   0.321  25.143
 6968SOL     OW32531   1.641   2.866  24.603
 6968SOL    HW132532   1.693   2.899  24.676
 6968SOL    HW232533   1.678   2.780  24.584
 6969SOL     OW32534   2.231   3.836   1.660
 6969SOL    HW132535   2.170   3.887   1.712
 6969SOL    HW232536   2.216   3.746   1.688
 6970SOL     OW32537   3.357   0.646  19.901
 6970SOL    HW132538   3.450   0.648  19.880
 6970SOL    HW232539   3.316   0.600  19.828
 6971SOL     OW32540   1.059   4.370  20.477
 6971SOL    HW132541   1.046   4.462  20.453
 6971SOL    HW232542   0.971   4.333  20.480
 6972SOL     OW32543   0.744   3.006   3.087
 6972SOL    HW132544   0.682   3.007   3.014
 6972SOL    HW232545   0.721   3.082   3.140
 6973SOL     OW32546   3.100   1.335  26.837
 6973SOL    HW132547   3.147   1.414  26.811
 6973SOL    HW232548   3.013   1.345  26.798
 6974SOL     OW32549   2.189   0.617  25.616
 6974SOL    HW132550   2.189   0.646  25.707
 6974SOL    HW232551   2.271   0.568  25.606
 6975SOL     OW32552   0.634   1.939  28.009
 6975SOL    HW132553   0.611   1.915  28.099
 6975SOL    HW232554   0.565   1.900  27.955
 6976SOL     OW32555   1.475   4.176  24.633
 6976SOL    HW132556   1.399   4.232  24.644
 6976SOL    HW232557   1.511   4.200  24.548
 6977SOL     OW32558   3.692   3.893  10.091
 6977SOL    HW132559   3.669   3.804  10.119
 6977SOL    HW232560   3.786   3.888  10.072
 6978SOL     OW32561   3.835   3.902   4.613
 6978SOL    HW132562   3.849   3.809   4.631
 6978SOL    HW232563   3.821   3.941   4.699
 6979SOL     OW32564   0.286   4.758   0.114
 6979SOL    HW132565   0.260   4.701   0.186
 6979SOL    HW232566   0.302   0.062   0.155
 6980SOL     OW32567   4.150   3.158   2.347
 6980SOL    HW132568   4.206   3.207   2.287
 6980SOL    HW232569   4.092   3.108   2.290
 6981SOL     OW32570   2.231   0.730   4.340
 6981SOL    HW132571   2.292   0.672   4.295
 6981SOL    HW232572   2.285   0.780   4.400
 6982SOL     OW32573   3.177   3.379  28.142
 6982SOL    HW132574   3.099   3.332  28.112
 6982SOL    HW232575   3.144   3.439  28.210
 6983SOL     OW32576   4.340   1.108  23.425
 6983SOL    HW132577   4.253   1.149  23.428
 6983SOL    HW232578   4.391   1.165  23.367
 6984SOL     OW32579   1.258   1.510   5.476
 6984SOL    HW132580   1.259   1.463   5.560
 6984SOL    HW232581   1.346   1.547   5.469
 6985SOL     OW32582   0.167   0.345  27.034
 6985SOL    HW132583   0.245   0.291  27.048
 6985SOL    HW232584   0.107   0.319  27.104
 6986SOL     OW32585   0.630   4.086  24.176
 6986SOL    HW132586   0.643   4.169  24.130
 6986SOL    HW232587   0.711   4.038  24.161
 6987SOL     OW32588   2.682   0.150  26.615
 6987SOL    HW132589   2.670   0.081  26.550
 6987SOL    HW232590   2.594   0.170  26.646
 6988SOL     OW32591   1.047   0.909   9.400
 6988SOL    HW132592   1.066   0.849   9.328
 6988SOL    HW232593   1.027   0.992   9.358
 6989SOL     OW32594   1.149   0.612  27.125
 6989SOL    HW132595   1.055   0.601  27.110
 6989SOL    HW232596   1.188   0.534  27.086
 6990SOL     OW32597   4.682   2.615  23.256
 6990SOL    HW132598   4.699   2.565  23.176
 6990SOL    HW232599   4.654   2.549  23.319
 6991SOL     OW32600   0.234   2.591   5.145
 6991SOL    HW132601   0.283   2.620   5.222
 6991SOL    HW232602   0.291   2.526   5.104
 6992SOL     OW32603   3.516   4.176  23.886
 6992SOL    HW132604   3.466   4.122  23.825
 6992SOL    HW232605   3.572   4.229  23.830
 6993SOL     OW32606   4.281   2.974   2.883
 6993SOL    HW132607   4.191   2.981   2.915
 6993SOL    HW232608   4.335   3.000   2.958
 6994SOL     OW32609   2.204   0.547  27.348
 6994SOL    HW132610   2.236   0.457  27.347
 6994SOL    HW232611   2.283   0.601  27.355
 6995SOL     OW32612   0.069   2.996  20.936
 6995SOL    HW132613   0.113   3.027  20.857
 6995SOL    HW232614   0.015   3.070  20.964
 6996SOL     OW32615   2.509   4.385   1.067
 6996SOL    HW132616   2.422   4.374   1.028
 6996SOL    HW232617   2.544   4.464   1.026
 6997SOL     OW32618   1.882   1.991  24.555
 6997SOL    HW132619   1.846   2.010  24.642
 6997SOL    HW232620   1.962   2.043  24.551
 6998SOL     OW32621   3.844   1.396   8.514
 6998SOL    HW132622   3.921   1.340   8.525
 6998SOL    HW232623   3.839   1.412   8.420
 6999SOL     OW32624   1.066   1.146  22.391
 6999SOL    HW132625   1.118   1.213  22.435
 6999SOL    HW232626   1.005   1.195  22.336
 7000SOL     OW32627   1.076   2.443  17.973
 7000SOL    HW132628   1.029   2.382  18.029
 7000SOL    HW232629   1.060   2.411  17.884
 7001SOL     OW32630   1.560   3.199   5.428
 7001SOL    HW132631   1.595   3.132   5.369
 7001SOL    HW232632   1.467   3.179   5.435
 7002SOL     OW32633   1.816   2.993  10.702
 7002SOL    HW132634   1.909   2.972  10.697
 7002SOL    HW232635   1.794   3.027  10.615
 7003SOL     OW32636   0.249   3.674   5.309
 7003SOL    HW132637   0.256   3.580   5.327
 7003SOL    HW232638   0.259   3.716   5.395
 7004SOL     OW32639   0.709   0.441   7.709
 7004SOL    HW132640   0.732   0.392   7.788
 7004SOL    HW232641   0.749   0.527   7.722
 7005SOL     OW32642   3.898   0.568  22.940
 7005SOL    HW132643   3.843   0.604  23.010
 7005SOL    HW232644   3.962   0.513  22.986
 7006SOL     OW32645   2.990   1.250  26.492
 7006SOL    HW132646   2.927   1.322  26.488
 7006SOL    HW232647   2.937   1.171  26.503
 7007SOL     OW32648   4.448   4.183   1.704
 7007SOL    HW132649   4.385   4.117   1.731
 7007SOL    HW232650   4.418   4.212   1.618
 7008SOL     OW32651   0.091   2.831  22.436
 7008SOL    HW132652   0.147   2.903  22.407
 7008SOL    HW232653   0.014   2.874  22.474
 7009SOL     OW32654   0.343   4.296  10.308
 7009SOL    HW132655   0.308   4.213  10.277
 7009SOL    HW232656   0.273   4.333  10.363
 7010SOL     OW32657   4.357   3.912  26.601
 7010SOL    HW132658   4.399   3.907  26.515
 7010SOL    HW232659   4.298   3.837  26.603
 7011SOL     OW32660   2.487   1.275  20.587
 7011SOL    HW132661   2.563   1.259  20.531
 7011SOL    HW232662   2.415   1.232  20.542
 7012SOL     OW32663   2.724   2.297  22.199
 7012SOL    HW132664   2.635   2.273  22.172
 7012SOL    HW232665   2.712   2.347  22.280
 7013SOL     OW32666   3.631   0.738  24.600
 7013SOL    HW132667   3.611   0.657  24.552
 7013SOL    HW232668   3.723   0.755  24.581
 7014SOL     OW32669   3.203   3.342  24.081
 7014SOL    HW132670   3.212   3.247  24.079
 7014SOL    HW232671   3.140   3.358  24.152
 7015SOL     OW32672   2.105   3.787  23.056
 7015SOL    HW132673   2.139   3.705  23.020
 7015SOL    HW232674   2.182   3.833  23.089
 7016SOL     OW32675   1.014   4.047   5.948
 7016SOL    HW132676   1.013   3.953   5.930
 7016SOL    HW232677   0.923   4.075   5.937
 7017SOL     OW32678   3.620   2.335  21.808
 7017SOL    HW132679   3.702   2.297  21.778
 7017SOL    HW232680   3.583   2.269  21.866
 7018SOL     OW32681   1.677   2.494  21.909
 7018SOL    HW132682   1.644   2.512  21.821
 7018SOL    HW232683   1.718   2.408  21.902
 7019SOL     OW32684   3.171   4.398   4.351
 7019SOL    HW132685   3.248   4.343   4.364
 7019SOL    HW232686   3.101   4.352   4.396
 7020SOL     OW32687   3.637   2.002  18.072
 7020SOL    HW132688   3.644   2.054  17.992
 7020SOL    HW232689   3.548   2.018  18.103
 7021SOL     OW32690   4.224   3.274  21.848
 7021SOL    HW132691   4.171   3.311  21.918
 7021SOL    HW232692   4.162   3.223  21.796
 7022SOL     OW32693   2.486   0.336   0.161
 7022SOL    HW132694   2.431   0.400   0.206
 7022SOL    HW232695   2.496   0.264   0.224
 7023SOL     OW32696   1.648   0.637  20.133
 7023SOL    HW132697   1.582   0.599  20.191
 7023SOL    HW232698   1.601   0.706  20.086
 7024SOL     OW32699   3.433   3.848   3.627
 7024SOL    HW132700   3.498   3.808   3.684
 7024SOL    HW232701   3.406   3.927   3.673
 7025SOL     OW32702   0.022   1.417   9.876
 7025SOL    HW132703   4.741   1.388   9.944
 7025SOL    HW232704   0.109   1.405   9.915
 7026SOL     OW32705   3.815   1.247  21.464
 7026SOL    HW132706   3.790   1.161  21.498
 7026SOL    HW232707   3.812   1.305  21.540
 7027SOL     OW32708   2.859   1.967  21.648
 7027SOL    HW132709   2.849   1.896  21.585
 7027SOL    HW232710   2.817   1.934  21.728
 7028SOL     OW32711   3.786   1.132   5.232
 7028SOL    HW132712   3.722   1.074   5.191
 7028SOL    HW232713   3.734   1.185   5.293
 7029SOL     OW32714   4.132   2.135   2.766
 7029SOL    HW132715   4.112   2.149   2.673
 7029SOL    HW232716   4.221   2.100   2.766
 7030SOL     OW32717   4.107   1.494  22.393
 7030SOL    HW132718   4.017   1.480  22.421
 7030SOL    HW232719   4.115   1.589  22.384
 7031SOL     OW32720   0.044   1.208  26.891
 7031SOL    HW132721   0.044   1.301  26.870
 7031SOL    HW232722   0.037   1.164  26.806
 7032SOL     OW32723   1.210   0.351  28.218
 7032SOL    HW132724   1.219   0.437  28.259
 7032SOL    HW232725   1.122   0.350  28.181
 7033SOL     OW32726   3.066   1.278  22.444
 7033SOL    HW132727   3.018   1.288  22.526
 7033SOL    HW232728   3.156   1.258  22.471
 7034SOL     OW32729   2.436   0.592   0.666
 7034SOL    HW132730   2.463   0.622   0.579
 7034SOL    HW232731   2.382   0.515   0.650
 7035SOL     OW32732   4.641   0.813  22.637
 7035SOL    HW132733   4.712   0.776  22.690
 7035SOL    HW232734   4.670   0.800  22.547
 7036SOL     OW32735   2.208   2.131  19.488
 7036SOL    HW132736   2.226   2.146  19.395
 7036SOL    HW232737   2.173   2.214  19.520
 7037SOL     OW32738   1.325   0.178  23.373
 7037SOL    HW132739   1.396   0.144  23.319
 7037SOL    HW232740   1.281   0.242  23.317
 7038SOL     OW32741   0.655   1.314  27.865
 7038SOL    HW132742   0.570   1.324  27.821
 7038SOL    HW232743   0.675   1.402  27.897
 7039SOL     OW32744   4.172   3.549   7.706
 7039SOL    HW132745   4.200   3.459   7.721
 7039SOL    HW232746   4.148   3.551   7.613
 7040SOL     OW32747   4.471   2.373   5.222
 7040SOL    HW132748   4.406   2.420   5.273
 7040SOL    HW232749   4.555   2.411   5.249
 7041SOL     OW32750   4.013   3.515  21.918
 7041SOL    HW132751   3.995   3.586  21.856
 7041SOL    HW232752   3.926   3.482  21.942
 7042SOL     OW32753   1.543   2.126  19.889
 7042SOL    HW132754   1.602   2.147  19.817
 7042SOL    HW232755   1.464   2.092  19.846
 7043SOL     OW32756   0.348   3.115   3.598
 7043SOL    HW132757   0.378   3.106   3.508
 7043SOL    HW232758   0.428   3.115   3.650
 7044SOL     OW32759   2.392   1.930   6.299
 7044SOL    HW132760   2.428   1.996   6.239
 7044SOL    HW232761   2.446   1.938   6.378
 7045SOL     OW32762   2.201   0.363  16.807
 7045SOL    HW132763   2.248   0.421  16.748
 7045SOL    HW232764   2.264   0.294  16.829
 7046SOL     OW32765   0.961   1.564   0.031
 7046SOL    HW132766   0.921   1.537   0.114
 7046SOL    HW232767   1.022   1.493   0.010
 7047SOL     OW32768   3.823   4.630  26.169
 7047SOL    HW132769   3.767   4.706  26.155
 7047SOL    HW232770   3.777   4.578  26.236
 7048SOL     OW32771   1.292   4.243   6.183
 7048SOL    HW132772   1.344   4.290   6.249
 7048SOL    HW232773   1.232   4.309   6.148
 7049SOL     OW32774   3.026   1.843   7.308
 7049SOL    HW132775   2.947   1.819   7.356
 7049SOL    HW232776   3.004   1.926   7.266
 7050SOL     OW32777   4.178   2.900  21.950
 7050SOL    HW132778   4.105   2.946  21.991
 7050SOL    HW232779   4.224   2.859  22.023
 7051SOL     OW32780   3.292   0.113  24.659
 7051SOL    HW132781   3.263   0.170  24.730
 7051SOL    HW232782   3.388   0.115  24.663
 7052SOL     OW32783   4.209   2.064   8.664
 7052SOL    HW132784   4.291   2.084   8.618
 7052SOL    HW232785   4.224   2.094   8.754
 7053SOL     OW32786   2.206   2.535  27.536
 7053SOL    HW132787   2.181   2.617  27.578
 7053SOL    HW232788   2.157   2.468  27.584
 7054SOL     OW32789   1.938   4.513   4.517
 7054SOL    HW132790   1.927   4.602   4.551
 7054SOL    HW232791   2.029   4.510   4.487
 7055SOL     OW32792   0.764   2.705  27.090
 7055SOL    HW132793   0.732   2.795  27.082
 7055SOL    HW232794   0.708   2.654  27.031
 7056SOL     OW32795   3.364   0.361  26.319
 7056SOL    HW132796   3.429   0.431  26.312
 7056SOL    HW232797   3.412   0.282  26.294
 7057SOL     OW32798   2.626   3.109   4.594
 7057SOL    HW132799   2.618   3.055   4.515
 7057SOL    HW232800   2.652   3.048   4.663
 7058SOL     OW32801   0.955   3.381   5.196
 7058SOL    HW132802   1.033   3.336   5.228
 7058SOL    HW232803   0.963   3.379   5.101
 7059SOL     OW32804   2.085   1.015   7.255
 7059SOL    HW132805   2.135   1.073   7.198
 7059SOL    HW232806   2.001   1.005   7.211
 7060SOL     OW32807   4.176   0.492  28.184
 7060SOL    HW132808   4.219   0.550  28.121
 7060SOL    HW232809   4.083   0.500  28.165
 7061SOL     OW32810   3.634   3.366   1.394
 7061SOL    HW132811   3.613   3.359   1.301
 7061SOL    HW232812   3.660   3.457   1.406
 7062SOL     OW32813   1.319   2.946  20.978
 7062SOL    HW132814   1.264   2.907  20.910
 7062SOL    HW232815   1.338   2.874  21.038
 7063SOL     OW32816   0.964   3.008  21.455
 7063SOL    HW132817   0.901   3.001  21.383
 7063SOL    HW232818   0.919   2.970  21.530
 7064SOL     OW32819   1.895   0.551   4.876
 7064SOL    HW132820   1.893   0.508   4.962
 7064SOL    HW232821   1.804   0.550   4.847
 7065SOL     OW32822   4.494   1.412  24.109
 7065SOL    HW132823   4.491   1.506  24.090
 7065SOL    HW232824   4.587   1.393  24.120
 7066SOL     OW32825   3.858   2.315  22.474
 7066SOL    HW132826   3.791   2.356  22.419
 7066SOL    HW232827   3.840   2.221  22.468
 7067SOL     OW32828   3.344   1.330  10.470
 7067SOL    HW132829   3.374   1.327  10.379
 7067SOL    HW232830   3.417   1.368  10.519
 7068SOL     OW32831   4.248   4.175  24.852
 7068SOL    HW132832   4.333   4.201  24.816
 7068SOL    HW232833   4.260   4.180  24.947
 7069SOL     OW32834   1.000   0.500  24.468
 7069SOL    HW132835   0.978   0.409  24.450
 7069SOL    HW232836   1.062   0.496  24.541
 7070SOL     OW32837   1.704   1.920   1.502
 7070SOL    HW132838   1.619   1.962   1.489
 7070SOL    HW232839   1.683   1.834   1.538
 7071SOL     OW32840   4.214   0.862   0.488
 7071SOL    HW132841   4.224   0.846   0.582
 7071SOL    HW232842   4.297   0.834   0.450
 7072SOL     OW32843   1.415   2.640  19.379
 7072SOL    HW132844   1.401   2.605  19.467
 7072SOL    HW232845   1.329   2.634  19.337
 7073SOL     OW32846   0.292   1.434  23.909
 7073SOL    HW132847   0.328   1.350  23.882
 7073SOL    HW232848   0.207   1.440  23.865
 7074SOL     OW32849   1.488   4.163  10.667
 7074SOL    HW132850   1.420   4.096  10.661
 7074SOL    HW232851   1.453   4.237  10.617
 7075SOL     OW32852   2.022   3.616  23.280
 7075SOL    HW132853   2.023   3.699  23.232
 7075SOL    HW232854   2.102   3.572  23.253
 7076SOL     OW32855   0.455   4.707   9.942
 7076SOL    HW132856   0.409   4.647  10.002
 7076SOL    HW232857   0.427   4.680   9.855
 7077SOL     OW32858   1.320   0.102   0.172
 7077SOL    HW132859   1.287   0.133   0.088
 7077SOL    HW232860   1.284   0.014   0.182
 7078SOL     OW32861   3.233   0.302  24.353
 7078SOL    HW132862   3.212   0.350  24.273
 7078SOL    HW232863   3.328   0.305  24.359
 7079SOL     OW32864   1.882   3.708  21.195
 7079SOL    HW132865   1.876   3.647  21.122
 7079SOL    HW232866   1.899   3.793  21.154
 7080SOL     OW32867   4.654   0.754   5.674
 7080SOL    HW132868   4.740   0.796   5.677
 7080SOL    HW232869   4.632   0.738   5.766
 7081SOL     OW32870   2.612   1.453   9.762
 7081SOL    HW132871   2.648   1.372   9.798
 7081SOL    HW232872   2.543   1.477   9.823
 7082SOL     OW32873   3.169   0.511   6.035
 7082SOL    HW132874   3.223   0.587   6.057
 7082SOL    HW232875   3.079   0.541   6.048
 7083SOL     OW32876   1.033   1.295  21.253
 7083SOL    HW132877   1.022   1.220  21.311
 7083SOL    HW232878   0.970   1.281  21.182
 7084SOL     OW32879   2.390   1.715  19.153
 7084SOL    HW132880   2.414   1.797  19.196
 7084SOL    HW232881   2.353   1.742  19.069
 7085SOL     OW32882   2.145   3.708  27.749
 7085SOL    HW132883   2.107   3.687  27.834
 7085SOL    HW232884   2.240   3.703  27.763
 7086SOL     OW32885   4.642   1.412  24.487
 7086SOL    HW132886   4.733   1.440  24.476
 7086SOL    HW232887   4.645   1.317  24.477
 7087SOL     OW32888   0.248   4.425   3.567
 7087SOL    HW132889   0.332   4.468   3.552
 7087SOL    HW232890   0.224   4.390   3.481
 7088SOL     OW32891   0.501   4.070  20.628
 7088SOL    HW132892   0.519   4.038  20.716
 7088SOL    HW232893   0.451   4.150  20.642
 7089SOL     OW32894   2.360   0.825  21.432
 7089SOL    HW132895   2.308   0.869  21.500
 7089SOL    HW232896   2.304   0.826  21.355
 7090SOL     OW32897   2.033   3.570   0.229
 7090SOL    HW132898   2.017   3.654   0.187
 7090SOL    HW232899   2.097   3.589   0.297
 7091SOL     OW32900   0.536   2.525   8.640
 7091SOL    HW132901   0.534   2.520   8.544
 7091SOL    HW232902   0.609   2.468   8.666
 7092SOL     OW32903   4.443   1.372  25.366
 7092SOL    HW132904   4.509   1.331  25.422
 7092SOL    HW232905   4.429   1.459  25.404
 7093SOL     OW32906   4.543   1.729  27.497
 7093SOL    HW132907   4.538   1.642  27.457
 7093SOL    HW232908   4.635   1.738  27.523
 7094SOL     OW32909   4.419   2.238   8.306
 7094SOL    HW132910   4.422   2.182   8.228
 7094SOL    HW232911   4.511   2.252   8.329
 7095SOL     OW32912   2.531   4.126  22.447
 7095SOL    HW132913   2.530   4.222  22.451
 7095SOL    HW232914   2.529   4.106  22.353
 7096SOL     OW32915   1.758   2.337   6.575
 7096SOL    HW132916   1.841   2.308   6.612
 7096SOL    HW232917   1.782   2.407   6.514
 7097SOL     OW32918   1.196   0.542  21.501
 7097SOL    HW132919   1.225   0.458  21.466
 7097SOL    HW232920   1.261   0.605  21.468
 7098SOL     OW32921   1.231   4.286  19.902
 7098SOL    HW132922   1.323   4.260  19.897
 7098SOL    HW232923   1.211   4.285  19.996
 7099SOL     OW32924   3.374   1.502  23.098
 7099SOL    HW132925   3.415   1.433  23.151
 7099SOL    HW232926   3.384   1.582  23.150
 7100SOL     OW32927   2.699   2.445   2.113
 7100SOL    HW132928   2.636   2.394   2.062
 7100SOL    HW232929   2.724   2.517   2.055
 7101SOL     OW32930   4.373   2.375   3.036
 7101SOL    HW132931   4.421   2.292   3.038
 7101SOL    HW232932   4.381   2.405   2.946
 7102SOL     OW32933   4.210   3.297  10.456
 7102SOL    HW132934   4.119   3.272  10.440
 7102SOL    HW232935   4.231   3.357  10.384
 7103SOL     OW32936   2.362   3.112   5.158
 7103SOL    HW132937   2.424   3.185   5.163
 7103SOL    HW232938   2.416   3.033   5.162
 7104SOL     OW32939   2.463   2.851  25.183
 7104SOL    HW132940   2.435   2.764  25.153
 7104SOL    HW232941   2.556   2.841  25.202
 7105SOL     OW32942   0.264   0.611   9.423
 7105SOL    HW132943   0.168   0.610   9.422
 7105SOL    HW232944   0.288   0.644   9.337
 7106SOL     OW32945   3.398   1.380   9.271
 7106SOL    HW132946   3.467   1.395   9.335
 7106SOL    HW232947   3.340   1.317   9.313
 7107SOL     OW32948   4.247   3.480   1.917
 7107SOL    HW132949   4.159   3.459   1.885
 7107SOL    HW232950   4.252   3.438   2.003
 7108SOL     OW32951   1.268   2.494  10.277
 7108SOL    HW132952   1.336   2.439  10.316
 7108SOL    HW232953   1.315   2.551  10.216
 7109SOL     OW32954   3.816   0.337   0.482
 7109SOL    HW132955   3.739   0.359   0.430
 7109SOL    HW232956   3.888   0.384   0.439
 7110SOL     OW32957   0.956   2.901  17.601
 7110SOL    HW132958   0.912   2.844  17.538
 7110SOL    HW232959   1.004   2.841  17.658
 7111SOL     OW32960   0.126   1.366   8.518
 7111SOL    HW132961   0.184   1.366   8.594
 7111SOL    HW232962   0.049   1.416   8.546
 7112SOL     OW32963   2.416   1.198  22.063
 7112SOL    HW132964   2.382   1.240  22.142
 7112SOL    HW232965   2.424   1.269  21.999
 7113SOL     OW32966   1.803   3.416   0.285
 7113SOL    HW132967   1.894   3.446   0.283
 7113SOL    HW232968   1.774   3.435   0.374
 7114SOL     OW32969   4.348   3.297   2.796
 7114SOL    HW132970   4.319   3.206   2.799
 7114SOL    HW232971   4.443   3.292   2.806
 7115SOL     OW32972   2.932   2.745   0.783
 7115SOL    HW132973   2.878   2.800   0.840
 7115SOL    HW232974   2.920   2.781   0.695
 7116SOL     OW32975   3.352   4.505  10.913
 7116SOL    HW132976   3.391   4.571  10.970
 7116SOL    HW232977   3.415   4.494  10.842
 7117SOL     OW32978   4.646   1.687  10.976
 7117SOL    HW132979   4.585   1.727  10.914
 7117SOL    HW232980   4.591   1.636  11.035
 7118SOL     OW32981   0.107   2.431   8.671
 7118SOL    HW132982   0.128   2.349   8.716
 7118SOL    HW232983   0.021   2.455   8.705
 7119SOL     OW32984   2.799   0.164  19.984
 7119SOL    HW132985   2.715   0.136  19.946
 7119SOL    HW232986   2.806   0.257  19.962
 7120SOL     OW32987   2.443   1.378  28.423
 7120SOL    HW132988   2.537   1.374  28.404
 7120SOL    HW232989   2.437   1.354  28.515
 7121SOL     OW32990   3.961   4.719  23.218
 7121SOL    HW132991   3.922   4.657  23.156
 7121SOL    HW232992   4.029   4.763  23.168
 7122SOL     OW32993   3.487   0.036   3.164
 7122SOL    HW132994   3.482   0.130   3.184
 7122SOL    HW232995   3.464   0.030   3.071
 7123SOL     OW32996   4.242   1.032  23.864
 7123SOL    HW132997   4.245   1.002  23.773
 7123SOL    HW232998   4.304   1.105  23.868
 7124SOL     OW32999   3.577   0.069  24.713
 7124SOL    HW133000   3.644   0.045  24.777
 7124SOL    HW233001   3.626   0.107  24.640
 7125SOL     OW33002   0.501   1.350   5.261
 7125SOL    HW133003   0.548   1.308   5.189
 7125SOL    HW233004   0.569   1.391   5.314
 7126SOL     OW33005   2.243   3.613   1.288
 7126SOL    HW133006   2.253   3.695   1.336
 7126SOL    HW233007   2.330   3.574   1.289
 7127SOL     OW33008   2.605   4.350   5.023
 7127SOL    HW133009   2.599   4.409   5.098
 7127SOL    HW233010   2.539   4.282   5.040
 7128SOL     OW33011   2.282   3.144  25.347
 7128SOL    HW133012   2.300   3.238  25.346
 7128SOL    HW233013   2.353   3.105  25.297
 7129SOL     OW33014   1.407   4.363   9.455
 7129SOL    HW133015   1.473   4.343   9.521
 7129SOL    HW233016   1.378   4.277   9.423
 7130SOL     OW33017   2.539   3.856  20.783
 7130SOL    HW133018   2.619   3.907  20.790
 7130SOL    HW233019   2.469   3.918  20.806
 7131SOL     OW33020   1.952   1.609  28.354
 7131SOL    HW133021   2.047   1.601  28.354
 7131SOL    HW233022   1.924   1.554  28.427
 7132SOL     OW33023   3.249   1.877  18.737
 7132SOL    HW133024   3.228   1.790  18.703
 7132SOL    HW233025   3.307   1.915  18.671
 7133SOL     OW33026   3.048   3.323  25.718
 7133SOL    HW133027   3.073   3.328  25.810
 7133SOL    HW233028   2.993   3.245  25.713
 7134SOL     OW33029   3.270   0.197  23.960
 7134SOL    HW133030   3.256   0.268  24.023
 7134SOL    HW233031   3.354   0.218  23.919
 7135SOL     OW33032   3.453   1.467  22.632
 7135SOL    HW133033   3.433   1.519  22.710
 7135SOL    HW233034   3.543   1.491  22.611
 7136SOL     OW33035   1.869   0.297  25.438
 7136SOL    HW133036   1.791   0.343  25.405
 7136SOL    HW233037   1.894   0.346  25.517
 7137SOL     OW33038   4.175   1.861   2.606
 7137SOL    HW133039   4.130   1.930   2.557
 7137SOL    HW233040   4.111   1.790   2.611
 7138SOL     OW33041   3.834   0.122   2.933
 7138SOL    HW133042   3.771   0.081   2.874
 7138SOL    HW233043   3.886   0.049   2.967
 7139SOL     OW33044   2.867   4.618   3.163
 7139SOL    HW133045   2.815   4.639   3.240
 7139SOL    HW233046   2.828   4.537   3.129
 7140SOL     OW33047   4.477   0.924  17.747
 7140SOL    HW133048   4.563   0.928  17.705
 7140SOL    HW233049   4.416   0.910  17.675
 7141SOL     OW33050   0.681   0.061   3.377
 7141SOL    HW133051   0.638   4.756   3.382
 7141SOL    HW233052   0.626   0.118   3.431
 7142SOL     OW33053   3.825   2.634   7.176
 7142SOL    HW133054   3.819   2.726   7.150
 7142SOL    HW233055   3.826   2.636   7.272
 7143SOL     OW33056   4.496   1.081   9.848
 7143SOL    HW133057   4.498   1.163   9.799
 7143SOL    HW233058   4.563   1.091   9.916
 7144SOL     OW33059   3.161   0.138  28.481
 7144SOL    HW133060   3.178   0.208  28.418
 7144SOL    HW233061   3.124   0.182   0.038
 7145SOL     OW33062   2.596   2.988  26.471
 7145SOL    HW133063   2.612   3.041  26.393
 7145SOL    HW233064   2.548   3.046  26.530
 7146SOL     OW33065   3.054   4.560   1.671
 7146SOL    HW133066   3.086   4.512   1.748
 7146SOL    HW233067   3.042   4.492   1.604
 7147SOL     OW33068   3.446   0.948  17.743
 7147SOL    HW133069   3.472   0.862  17.711
 7147SOL    HW233070   3.376   0.930  17.806
 7148SOL     OW33071   1.419   2.668  21.826
 7148SOL    HW133072   1.458   2.636  21.744
 7148SOL    HW233073   1.472   2.745  21.849
 7149SOL     OW33074   0.123   4.672   9.653
 7149SOL    HW133075   0.212   4.637   9.645
 7149SOL    HW233076   0.114   4.693   9.746
 7150SOL     OW33077   0.290   1.490  22.609
 7150SOL    HW133078   0.331   1.495  22.695
 7150SOL    HW233079   0.328   1.563  22.560
 7151SOL     OW33080   0.838   0.212   5.017
 7151SOL    HW133081   0.844   0.295   4.969
 7151SOL    HW233082   0.889   0.150   4.964
 7152SOL     OW33083   0.564   0.565  22.117
 7152SOL    HW133084   0.619   0.639  22.143
 7152SOL    HW233085   0.613   0.522  22.046
 7153SOL     OW33086   1.359   0.009  18.573
 7153SOL    HW133087   1.281   4.763  18.524
 7153SOL    HW233088   1.337   0.095  18.608
 7154SOL     OW33089   1.288   3.916  11.670
 7154SOL    HW133090   1.273   3.915  11.575
 7154SOL    HW233091   1.313   4.006  11.689
 7155SOL     OW33092   4.090   2.384   5.410
 7155SOL    HW133093   4.137   2.303   5.391
 7155SOL    HW233094   4.050   2.409   5.326
 7156SOL     OW33095   1.987   2.934  23.208
 7156SOL    HW133096   1.955   2.871  23.272
 7156SOL    HW233097   1.921   3.004  23.208
 7157SOL     OW33098   1.009   2.348  21.792
 7157SOL    HW133099   1.011   2.354  21.696
 7157SOL    HW233100   0.969   2.430  21.820
 7158SOL     OW33101   2.007   1.763  19.642
 7158SOL    HW133102   2.038   1.788  19.729
 7158SOL    HW233103   2.083   1.722  19.600
 7159SOL     OW33104   2.973   2.936   9.574
 7159SOL    HW133105   3.022   2.899   9.501
 7159SOL    HW233106   3.032   2.928   9.649
 7160SOL     OW33107   0.016   4.158   8.047
 7160SOL    HW133108   4.766   4.071   8.022
 7160SOL    HW233109   0.052   4.195   7.967
 7161SOL     OW33110   1.041   4.130  11.220
 7161SOL    HW133111   0.989   4.140  11.299
 7161SOL    HW233112   1.032   4.038  11.196
 7162SOL     OW33113   2.503   2.395  18.494
 7162SOL    HW133114   2.555   2.454  18.548
 7162SOL    HW233115   2.452   2.453  18.437
 7163SOL     OW33116   1.186   3.831  25.982
 7163SOL    HW133117   1.206   3.763  26.046
 7163SOL    HW233118   1.149   3.903  26.033
 7164SOL     OW33119   1.758   3.308   3.426
 7164SOL    HW133120   1.715   3.393   3.431
 7164SOL    HW233121   1.775   3.295   3.333
 7165SOL     OW33122   3.393   3.842  26.234
 7165SOL    HW133123   3.388   3.773  26.168
 7165SOL    HW233124   3.476   3.826  26.279
 7166SOL     OW33125   2.756   0.870  18.146
 7166SOL    HW133126   2.708   0.915  18.215
 7166SOL    HW233127   2.807   0.803  18.192
 7167SOL     OW33128   2.967   0.216  20.904
 7167SOL    HW133129   2.897   0.167  20.860
 7167SOL    HW233130   2.993   0.160  20.977
 7168SOL     OW33131   3.182   2.528  26.491
 7168SOL    HW133132   3.244   2.595  26.521
 7168SOL    HW233133   3.145   2.564  26.411
 7169SOL     OW33134   3.039   3.669  25.434
 7169SOL    HW133135   2.998   3.682  25.520
 7169SOL    HW233136   3.128   3.703  25.444
 7170SOL     OW33137   1.718   2.203   2.628
 7170SOL    HW133138   1.673   2.155   2.698
 7170SOL    HW233139   1.804   2.224   2.664
 7171SOL     OW33140   0.606   4.242   1.618
 7171SOL    HW133141   0.632   4.207   1.703
 7171SOL    HW233142   0.512   4.226   1.614
 7172SOL     OW33143   0.923   4.714  24.372
 7172SOL    HW133144   0.904   4.637  24.318
 7172SOL    HW233145   0.998   4.688  24.425
 7173SOL     OW33146   4.177   0.557   2.395
 7173SOL    HW133147   4.087   0.525   2.384
 7173SOL    HW233148   4.202   0.528   2.483
 7174SOL     OW33149   2.465   0.290   7.753
 7174SOL    HW133150   2.470   0.335   7.837
 7174SOL    HW233151   2.489   0.199   7.773
 7175SOL     OW33152   2.150   4.144   2.676
 7175SOL    HW133153   2.149   4.096   2.759
 7175SOL    HW233154   2.090   4.095   2.619
 7176SOL     OW33155   2.855   1.740   2.530
 7176SOL    HW133156   2.938   1.740   2.482
 7176SOL    HW233157   2.876   1.701   2.615
 7177SOL     OW33158   3.883   3.455   0.374
 7177SOL    HW133159   3.929   3.410   0.303
 7177SOL    HW233160   3.794   3.466   0.342
 7178SOL     OW33161   1.289   2.187   8.877
 7178SOL    HW133162   1.314   2.132   8.951
 7178SOL    HW233163   1.372   2.205   8.832
 7179SOL     OW33164   3.272   1.308  23.823
 7179SOL    HW133165   3.262   1.278  23.733
 7179SOL    HW233166   3.183   1.315  23.856
 7180SOL     OW33167   2.053   3.798   9.333
 7180SOL    HW133168   2.143   3.822   9.353
 7180SOL    HW233169   2.018   3.873   9.284
 7181SOL     OW33170   2.623   3.616   7.575
 7181SOL    HW133171   2.690   3.664   7.624
 7181SOL    HW233172   2.541   3.640   7.618
 7182SOL     OW33173   1.618   0.542  27.802
 7182SOL    HW133174   1.558   0.527  27.875
 7182SOL    HW233175   1.623   0.637  27.793
 7183SOL     OW33176   3.823   4.093   0.277
 7183SOL    HW133177   3.728   4.094   0.269
 7183SOL    HW233178   3.847   4.184   0.294
 7184SOL     OW33179   1.692   0.327  28.224
 7184SOL    HW133180   1.722   0.236  28.226
 7184SOL    HW233181   1.772   0.379  28.226
 7185SOL     OW33182   2.883   0.568  25.253
 7185SOL    HW133183   2.830   0.647  25.244
 7185SOL    HW233184   2.819   0.498  25.267
 7186SOL     OW33185   3.668   4.186   8.668
 7186SOL    HW133186   3.655   4.281   8.671
 7186SOL    HW233187   3.721   4.172   8.589
 7187SOL     OW33188   4.514   0.271   7.334
 7187SOL    HW133189   4.598   0.247   7.372
 7187SOL    HW233190   4.456   0.283   7.409
 7188SOL     OW33191   1.380   1.604   6.085
 7188SOL    HW133192   1.399   1.698   6.088
 7188SOL    HW233193   1.431   1.566   6.156
 7189SOL     OW33194   0.668   1.593  20.307
 7189SOL    HW133195   0.734   1.611  20.240
 7189SOL    HW233196   0.602   1.661  20.294
 7190SOL     OW33197   0.160   1.898  28.024
 7190SOL    HW133198   0.114   1.981  28.034
 7190SOL    HW233199   0.241   1.909  28.074
 7191SOL     OW33200   0.750   1.048   0.491
 7191SOL    HW133201   0.664   1.013   0.467
 7191SOL    HW233202   0.813   0.993   0.444
 7192SOL     OW33203   1.875   2.120  25.127
 7192SOL    HW133204   1.907   2.040  25.169
 7192SOL    HW233205   1.829   2.166  25.197
 7193SOL     OW33206   1.641   3.898  24.741
 7193SOL    HW133207   1.551   3.927  24.753
 7193SOL    HW233208   1.693   3.958  24.795
 7194SOL     OW33209   3.939   0.251  11.997
 7194SOL    HW133210   3.943   0.247  12.093
 7194SOL    HW233211   4.020   0.208  11.968
 7195SOL     OW33212   1.664   2.232   4.581
 7195SOL    HW133213   1.594   2.239   4.646
 7195SOL    HW233214   1.624   2.185   4.508
 7196SOL     OW33215   3.490   1.897  21.944
 7196SOL    HW133216   3.452   1.955  21.878
 7196SOL    HW233217   3.429   1.902  22.018
 7197SOL     OW33218   2.335   3.560   6.131
 7197SOL    HW133219   2.302   3.561   6.221
 7197SOL    HW233220   2.263   3.595   6.078
 7198SOL     OW33221   4.255   0.057  21.300
 7198SOL    HW133222   4.273   0.151  21.303
 7198SOL    HW233223   4.211   0.044  21.216
 7199SOL     OW33224   2.475   3.841   5.604
 7199SOL    HW133225   2.470   3.929   5.567
 7199SOL    HW233226   2.555   3.842   5.657
 7200SOL     OW33227   0.566   0.472   5.091
 7200SOL    HW133228   0.614   0.505   5.015
 7200SOL    HW233229   0.625   0.408   5.131
 7201SOL     OW33230   1.536   0.272  20.481
 7201SOL    HW133231   1.526   0.193  20.428
 7201SOL    HW233232   1.589   0.330  20.426
 7202SOL     OW33233   0.675   3.989  11.081
 7202SOL    HW133234   0.647   4.073  11.044
 7202SOL    HW233235   0.682   4.006  11.175
 7203SOL     OW33236   3.753   1.082  27.055
 7203SOL    HW133237   3.843   1.107  27.075
 7203SOL    HW233238   3.744   0.994  27.091
 7204SOL     OW33239   4.628   3.256  28.054
 7204SOL    HW133240   4.581   3.297  27.981
 7204SOL    HW233241   4.598   3.303  28.132
 7205SOL     OW33242   2.557   1.635  22.791
 7205SOL    HW133243   2.647   1.656  22.816
 7205SOL    HW233244   2.557   1.540  22.778
 7206SOL     OW33245   2.526   0.884   1.316
 7206SOL    HW133246   2.512   0.882   1.411
 7206SOL    HW233247   2.454   0.938   1.283
 7207SOL     OW33248   2.653   3.985   4.114
 7207SOL    HW133249   2.744   3.993   4.141
 7207SOL    HW233250   2.654   4.000   4.020
 7208SOL     OW33251   0.531   0.781   3.716
 7208SOL    HW133252   0.595   0.804   3.783
 7208SOL    HW233253   0.523   0.860   3.662
 7209SOL     OW33254   3.986   4.640  26.826
 7209SOL    HW133255   3.898   4.670  26.802
 7209SOL    HW233256   3.996   4.665  26.918
 7210SOL     OW33257   1.078   2.911   8.884
 7210SOL    HW133258   1.170   2.912   8.912
 7210SOL    HW233259   1.075   2.848   8.812
 7211SOL     OW33260   2.108   2.385  21.310
 7211SOL    HW133261   2.047   2.318  21.340
 7211SOL    HW233262   2.057   2.439  21.250
 7212SOL     OW33263   2.481   1.790  18.585
 7212SOL    HW133264   2.418   1.830  18.525
 7212SOL    HW233265   2.561   1.780  18.533
 7213SOL     OW33266   0.770   4.005   0.236
 7213SOL    HW133267   0.686   4.040   0.266
 7213SOL    HW233268   0.833   4.036   0.300
 7214SOL     OW33269   1.408   4.019   1.000
 7214SOL    HW133270   1.335   3.957   1.009
 7214SOL    HW233271   1.481   3.966   0.968
 7215SOL     OW33272   1.684   3.468   4.720
 7215SOL    HW133273   1.715   3.471   4.810
 7215SOL    HW233274   1.673   3.560   4.695
 7216SOL     OW33275   0.186   1.558  19.725
 7216SOL    HW133276   0.147   1.611  19.795
 7216SOL    HW233277   0.275   1.540  19.755
 7217SOL     OW33278   2.330   3.932  23.118
 7217SOL    HW133279   2.400   3.882  23.160
 7217SOL    HW233280   2.368   3.961  23.035
 7218SOL     OW33281   1.007   1.167   2.093
 7218SOL    HW133282   1.044   1.219   2.022
 7218SOL    HW233283   1.002   1.228   2.167
 7219SOL     OW33284   1.880   1.336  23.747
 7219SOL    HW133285   1.950   1.290  23.793
 7219SOL    HW233286   1.902   1.327  23.654
 7220SOL     OW33287   0.814   3.192   8.221
 7220SOL    HW133288   0.833   3.268   8.275
 7220SOL    HW233289   0.851   3.214   8.135
 7221SOL     OW33290   3.055   2.622  22.392
 7221SOL    HW133291   3.130   2.583  22.348
 7221SOL    HW233292   3.089   2.702  22.431
 7222SOL     OW33293   2.859   3.407  19.638
 7222SOL    HW133294   2.879   3.353  19.561
 7222SOL    HW233295   2.900   3.361  19.711
 7223SOL     OW33296   4.056   2.544  21.785
 7223SOL    HW133297   4.113   2.468  21.790
 7223SOL    HW233298   4.109   2.611  21.741
 7224SOL     OW33299   1.733   1.958  20.291
 7224SOL    HW133300   1.796   1.904  20.338
 7224SOL    HW233301   1.768   1.963  20.202
 7225SOL     OW33302   3.499   4.678  26.561
 7225SOL    HW133303   3.471   4.648  26.475
 7225SOL    HW233304   3.501   4.773  26.554
 7226SOL     OW33305   3.062   0.014  25.277
 7226SOL    HW133306   2.981   4.771  25.323
 7226SOL    HW233307   3.128   4.736  25.314
 7227SOL     OW33308   0.209   0.278  18.879
 7227SOL    HW133309   0.131   0.328  18.857
 7227SOL    HW233310   0.197   0.254  18.971
 7228SOL     OW33311   1.251   3.013  21.350
 7228SOL    HW133312   1.174   3.021  21.407
 7228SOL    HW233313   1.251   3.094  21.299
 7229SOL     OW33314   4.589   0.799   7.501
 7229SOL    HW133315   4.577   0.704   7.510
 7229SOL    HW233316   4.683   0.812   7.515
 7230SOL     OW33317   3.582   0.162  22.089
 7230SOL    HW133318   3.616   0.078  22.057
 7230SOL    HW233319   3.519   0.189  22.023
 7231SOL     OW33320   4.328   1.626  24.343
 7231SOL    HW133321   4.328   1.630  24.247
 7231SOL    HW233322   4.243   1.589  24.365
 7232SOL     OW33323   4.371   4.713  24.818
 7232SOL    HW133324   4.315   4.718  24.896
 7232SOL    HW233325   4.316   4.673  24.751
 7233SOL     OW33326   2.558   0.903   5.191
 7233SOL    HW133327   2.578   0.819   5.233
 7233SOL    HW233328   2.637   0.955   5.203
 7234SOL     OW33329   3.272   1.806  21.655
 7234SOL    HW133330   3.223   1.786  21.575
 7234SOL    HW233331   3.246   1.738  21.717
 7235SOL     OW33332   2.901   0.973   0.606
 7235SOL    HW133333   2.824   0.924   0.635
 7235SOL    HW233334   2.915   0.946   0.515
 7236SOL     OW33335   3.470   3.977   3.892
 7236SOL    HW133336   3.460   3.964   3.986
 7236SOL    HW233337   3.447   4.069   3.878
 7237SOL     OW33338   2.479   1.590   6.978
 7237SOL    HW133339   2.472   1.513   6.921
 7237SOL    HW233340   2.500   1.662   6.919
 7238SOL     OW33341   0.797   0.344   9.790
 7238SOL    HW133342   0.756   0.268   9.831
 7238SOL    HW233343   0.731   0.413   9.796
 7239SOL     OW33344   1.184   4.417   7.007
 7239SOL    HW133345   1.188   4.469   7.088
 7239SOL    HW233346   1.193   4.326   7.036
 7240SOL     OW33347   2.039   3.335  26.271
 7240SOL    HW133348   2.001   3.247  26.263
 7240SOL    HW233349   2.070   3.339  26.361
 7241SOL     OW33350   4.722   4.688   6.281
 7241SOL    HW133351   4.680   4.646   6.356
 7241SOL    HW233352   0.035   4.682   6.299
 7242SOL     OW33353   2.781   2.580  27.179
 7242SOL    HW133354   2.874   2.567  27.197
 7242SOL    HW233355   2.769   2.675  27.181
 7243SOL     OW33356   3.004   0.719  28.500
 7243SOL    HW133357   2.953   0.664   0.040
 7243SOL    HW233358   3.075   0.753   0.035
 7244SOL     OW33359   4.215   0.835  22.783
 7244SOL    HW133360   4.280   0.886  22.734
 7244SOL    HW233361   4.136   0.838  22.729
 7245SOL     OW33362   1.342   2.727   4.722
 7245SOL    HW133363   1.324   2.801   4.780
 7245SOL    HW233364   1.420   2.753   4.673
 7246SOL     OW33365   2.709   3.006  23.686
 7246SOL    HW133366   2.619   3.037  23.680
 7246SOL    HW233367   2.762   3.082  23.664
 7247SOL     OW33368   1.338   3.230  18.540
 7247SOL    HW133369   1.337   3.177  18.620
 7247SOL    HW233370   1.314   3.318  18.569
 7248SOL     OW33371   1.583   1.297  27.287
 7248SOL    HW133372   1.648   1.232  27.314
 7248SOL    HW233373   1.499   1.251  27.290
 7249SOL     OW33374   0.525   1.512  19.432
 7249SOL    HW133375   0.523   1.536  19.339
 7249SOL    HW233376   0.478   1.583  19.476
 7250SOL     OW33377   2.210   4.505   2.370
 7250SOL    HW133378   2.160   4.465   2.299
 7250SOL    HW233379   2.170   4.471   2.450
 7251SOL     OW33380   4.096   1.429   4.025
 7251SOL    HW133381   4.011   1.444   3.983
 7251SOL    HW233382   4.159   1.426   3.953
 7252SOL     OW33383   1.416   1.118  27.617
 7252SOL    HW133384   1.330   1.160  27.608
 7252SOL    HW233385   1.437   1.086  27.529
 7253SOL     OW33386   4.715   2.253   4.681
 7253SOL    HW133387   4.705   2.336   4.727
 7253SOL    HW233388   4.719   2.187   4.751
 7254SOL     OW33389   4.662   3.553   8.711
 7254SOL    HW133390   4.601   3.570   8.783
 7254SOL    HW233391   4.696   3.465   8.728
 7255SOL     OW33392   4.254   2.471   1.061
 7255SOL    HW133393   4.190   2.542   1.053
 7255SOL    HW233394   4.204   2.392   1.040
 7256SOL     OW33395   3.454   1.172  20.175
 7256SOL    HW133396   3.437   1.261  20.145
 7256SOL    HW233397   3.463   1.121  20.095
 7257SOL     OW33398   3.611   1.446   1.588
 7257SOL    HW133399   3.576   1.401   1.665
 7257SOL    HW233400   3.705   1.428   1.590
 7258SOL     OW33401   0.044   0.412  21.353
 7258SOL    HW133402   0.042   0.501  21.318
 7258SOL    HW233403   0.100   0.418  21.431
 7259SOL     OW33404   1.096   3.292  25.927
 7259SOL    HW133405   1.157   3.251  25.865
 7259SOL    HW233406   1.120   3.385  25.926
 7260SOL     OW33407   4.255   3.376   9.583
 7260SOL    HW133408   4.279   3.291   9.546
 7260SOL    HW233409   4.254   3.435   9.508
 7261SOL     OW33410   2.814   4.208  28.026
 7261SOL    HW133411   2.844   4.122  28.055
 7261SOL    HW233412   2.724   4.193  27.997
 7262SOL     OW33413   1.632   2.847   8.344
 7262SOL    HW133414   1.647   2.918   8.282
 7262SOL    HW233415   1.568   2.791   8.301
 7263SOL     OW33416   2.820   0.235  24.569
 7263SOL    HW133417   2.762   0.159  24.567
 7263SOL    HW233418   2.908   0.198  24.577
 7264SOL     OW33419   2.112   4.016   2.904
 7264SOL    HW133420   2.190   3.992   2.954
 7264SOL    HW233421   2.039   3.983   2.956
 7265SOL     OW33422   3.992   4.377  27.087
 7265SOL    HW133423   3.957   4.466  27.081
 7265SOL    HW233424   3.914   4.321  27.089
 7266SOL     OW33425   2.406   4.405  21.578
 7266SOL    HW133426   2.423   4.493  21.612
 7266SOL    HW233427   2.445   4.406  21.490
 7267SOL     OW33428   4.312   0.573   1.182
 7267SOL    HW133429   4.319   0.584   1.277
 7267SOL    HW233430   4.226   0.608   1.161
 7268SOL     OW33431   4.616   2.735   0.740
 7268SOL    HW133432   4.545   2.677   0.769
 7268SOL    HW233433   4.572   2.801   0.686
 7269SOL     OW33434   4.497   4.125  25.237
 7269SOL    HW133435   4.471   4.152  25.325
 7269SOL    HW233436   4.590   4.104  25.245
 7270SOL     OW33437   2.605   0.163   8.110
 7270SOL    HW133438   2.560   0.226   8.055
 7270SOL    HW233439   2.535   0.117   8.156
 7271SOL     OW33440   0.064   4.086   5.523
 7271SOL    HW133441   0.087   4.095   5.615
 7271SOL    HW233442   0.035   3.995   5.515
 7272SOL     OW33443   4.575   0.578  20.761
 7272SOL    HW133444   4.519   0.643  20.803
 7272SOL    HW233445   4.610   0.623  20.684
 7273SOL     OW33446   0.771   3.638   7.334
 7273SOL    HW133447   0.767   3.546   7.309
 7273SOL    HW233448   0.684   3.657   7.369
 7274SOL     OW33449   1.785   3.752  27.315
 7274SOL    HW133450   1.750   3.839  27.297
 7274SOL    HW233451   1.850   3.767  27.383
 7275SOL     OW33452   0.014   0.712   0.021
 7275SOL    HW133453   0.093   0.717  28.487
 7275SOL    HW233454   0.019   0.789   0.078
 7276SOL     OW33455   1.757   2.236  26.785
 7276SOL    HW133456   1.687   2.233  26.850
 7276SOL    HW233457   1.716   2.206  26.704
 7277SOL     OW33458   1.011   3.113  27.628
 7277SOL    HW133459   1.010   3.018  27.638
 7277SOL    HW233460   1.015   3.128  27.534
 7278SOL     OW33461   0.849   4.413  22.473
 7278SOL    HW133462   0.910   4.339  22.480
 7278SOL    HW233463   0.862   4.446  22.384
 7279SOL     OW33464   0.274   3.825   1.837
 7279SOL    HW133465   0.248   3.765   1.767
 7279SOL    HW233466   0.275   3.771   1.916
 7280SOL     OW33467   1.080   1.580  23.914
 7280SOL    HW133468   0.992   1.609  23.937
 7280SOL    HW233469   1.094   1.614  23.826
 7281SOL     OW33470   4.685   2.772   9.391
 7281SOL    HW133471   4.699   2.710   9.320
 7281SOL    HW233472   4.772   2.807   9.409
 7282SOL     OW33473   4.576   0.456   3.868
 7282SOL    HW133474   4.526   0.392   3.920
 7282SOL    HW233475   4.591   0.412   3.784
 7283SOL     OW33476   1.031   4.478  22.019
 7283SOL    HW133477   0.936   4.483  22.012
 7283SOL    HW233478   1.059   4.440  21.936
 7284SOL     OW33479   0.685   0.874   1.485
 7284SOL    HW133480   0.621   0.867   1.414
 7284SOL    HW233481   0.770   0.871   1.441
 7285SOL     OW33482   4.448   3.499  24.741
 7285SOL    HW133483   4.524   3.492  24.798
 7285SOL    HW233484   4.456   3.585  24.700
 7286SOL     OW33485   3.471   2.847  19.454
 7286SOL    HW133486   3.453   2.755  19.475
 7286SOL    HW233487   3.437   2.858  19.365
 7287SOL     OW33488   1.720   0.307  24.693
 7287SOL    HW133489   1.743   0.398  24.713
 7287SOL    HW233490   1.726   0.302  24.598
 7288SOL     OW33491   3.690   3.876  21.226
 7288SOL    HW133492   3.723   3.949  21.278
 7288SOL    HW233493   3.707   3.901  21.135
 7289SOL     OW33494   1.332   2.386   2.317
 7289SOL    HW133495   1.423   2.358   2.326
 7289SOL    HW233496   1.320   2.452   2.385
 7290SOL     OW33497   3.293   0.735   1.964
 7290SOL    HW133498   3.355   0.772   2.027
 7290SOL    HW233499   3.304   0.640   1.971
 7291SOL     OW33500   1.589   4.762  27.706
 7291SOL    HW133501   1.539   4.728  27.780
 7291SOL    HW233502   1.582   0.077  27.714
 7292SOL     OW33503   0.320   3.771   6.306
 7292SOL    HW133504   0.366   3.694   6.272
 7292SOL    HW233505   0.305   3.825   6.229
 7293SOL     OW33506   3.420   0.791   6.748
 7293SOL    HW133507   3.327   0.767   6.748
 7293SOL    HW233508   3.462   0.726   6.804
 7294SOL     OW33509   2.614   1.312   5.055
 7294SOL    HW133510   2.563   1.392   5.071
 7294SOL    HW233511   2.555   1.255   5.006
 7295SOL     OW33512   3.685   2.460  27.619
 7295SOL    HW133513   3.702   2.434  27.709
 7295SOL    HW233514   3.761   2.513  27.595
 7296SOL     OW33515   4.075   4.024   5.135
 7296SOL    HW133516   4.138   3.960   5.102
 7296SOL    HW233517   3.990   3.980   5.130
 7297SOL     OW33518   3.926   3.848   3.532
 7297SOL    HW133519   3.983   3.807   3.467
 7297SOL    HW233520   3.970   3.832   3.616
 7298SOL     OW33521   0.306   1.221   8.359
 7298SOL    HW133522   0.372   1.280   8.397
 7298SOL    HW233523   0.226   1.240   8.408
 7299SOL     OW33524   3.027   2.119   3.380
 7299SOL    HW133525   3.021   2.213   3.365
 7299SOL    HW233526   2.949   2.082   3.338
 7300SOL     OW33527   0.616   2.174  26.064
 7300SOL    HW133528   0.606   2.177  25.969
 7300SOL    HW233529   0.591   2.262  26.093
 7301SOL     OW33530   4.104   0.670   9.318
 7301SOL    HW133531   4.187   0.711   9.293
 7301SOL    HW233532   4.123   0.625   9.400
 7302SOL     OW33533   2.656   0.052  26.331
 7302SOL    HW133534   2.650   0.040  26.236
 7302SOL    HW233535   2.616   4.753  26.367
 7303SOL     OW33536   0.032   2.718  10.115
 7303SOL    HW133537   0.028   2.711  10.020
 7303SOL    HW233538   4.733   2.675  10.146
 7304SOL     OW33539   0.951   1.889  20.856
 7304SOL    HW133540   0.950   1.946  20.933
 7304SOL    HW233541   0.960   1.801  20.892
 7305SOL     OW33542   3.161   3.935   0.370
 7305SOL    HW133543   3.115   3.852   0.380
 7305SOL    HW233544   3.245   3.921   0.413
 7306SOL     OW33545   3.206   0.570  25.485
 7306SOL    HW133546   3.205   0.665  25.473
 7306SOL    HW233547   3.282   0.540  25.435
 7307SOL     OW33548   4.313   2.000  26.721
 7307SOL    HW133549   4.259   2.060  26.772
 7307SOL    HW233550   4.311   2.035  26.632
 7308SOL     OW33551   0.198   1.005   6.292
 7308SOL    HW133552   0.165   1.048   6.213
 7308SOL    HW233553   0.150   0.922   6.296
 7309SOL     OW33554   0.208   0.331   0.652
 7309SOL    HW133555   0.127   0.365   0.689
 7309SOL    HW233556   0.222   0.383   0.573
 7310SOL     OW33557   1.067   1.046  26.194
 7310SOL    HW133558   1.093   1.050  26.286
 7310SOL    HW233559   0.986   0.996  26.194
 7311SOL     OW33560   0.637   2.483   6.284
 7311SOL    HW133561   0.579   2.558   6.297
 7311SOL    HW233562   0.722   2.512   6.316
 7312SOL     OW33563   0.030   2.113  18.167
 7312SOL    HW133564   0.083   2.135  18.244
 7312SOL    HW233565   4.725   2.088  18.202
 7313SOL     OW33566   1.593   0.749   4.117
 7313SOL    HW133567   1.529   0.714   4.056
 7313SOL    HW233568   1.592   0.843   4.101
 7314SOL     OW33569   3.392   4.107  17.821
 7314SOL    HW133570   3.389   4.066  17.734
 7314SOL    HW233571   3.483   4.095  17.849
 7315SOL     OW33572   1.667   2.409  11.215
 7315SOL    HW133573   1.752   2.423  11.256
 7315SOL    HW233574   1.611   2.377  11.286
 7316SOL     OW33575   3.598   2.219   6.440
 7316SOL    HW133576   3.584   2.131   6.405
 7316SOL    HW233577   3.599   2.208   6.535
 7317SOL     OW33578   4.643   2.703   7.282
 7317SOL    HW133579   4.631   2.739   7.370
 7317SOL    HW233580   4.557   2.713   7.240
 7318SOL     OW33581   2.219   0.415  23.185
 7318SOL    HW133582   2.150   0.396  23.249
 7318SOL    HW233583   2.192   0.369  23.106
 7319SOL     OW33584   2.777   0.566  19.536
 7319SOL    HW133585   2.753   0.646  19.489
 7319SOL    HW233586   2.873   0.564  19.532
 7320SOL     OW33587   3.437   0.616  21.030
 7320SOL    HW133588   3.437   0.536  20.977
 7320SOL    HW233589   3.465   0.685  20.970
 7321SOL     OW33590   3.089   3.435  28.402
 7321SOL    HW133591   3.004   3.435  28.445
 7321SOL    HW233592   3.137   3.506  28.445
 7322SOL     OW33593   0.324   0.333  24.851
 7322SOL    HW133594   0.234   0.357  24.872
 7322SOL    HW233595   0.317   0.254  24.798
 7323SOL     OW33596   1.210   3.514  18.940
 7323SOL    HW133597   1.148   3.484  19.007
 7323SOL    HW233598   1.155   3.552  18.872
 7324SOL     OW33599   4.724   1.606  22.912
 7324SOL    HW133600   4.680   1.657  22.843
 7324SOL    HW233601   4.652   1.564  22.960
 7325SOL     OW33602   1.485   1.353  21.575
 7325SOL    HW133603   1.572   1.318  21.557
 7325SOL    HW233604   1.425   1.284  21.547
 7326SOL     OW33605   1.932   4.699   4.907
 7326SOL    HW133606   1.967   0.005   4.931
 7326SOL    HW233607   2.005   4.639   4.921
 7327SOL     OW33608   1.358   2.223  23.519
 7327SOL    HW133609   1.398   2.255  23.438
 7327SOL    HW233610   1.312   2.299  23.555
 7328SOL     OW33611   1.173   0.681  20.350
 7328SOL    HW133612   1.146   0.725  20.431
 7328SOL    HW233613   1.207   0.596  20.379
 7329SOL     OW33614   1.037   1.272  26.043
 7329SOL    HW133615   1.025   1.227  25.959
 7329SOL    HW233616   1.085   1.209  26.097
 7330SOL     OW33617   0.759   4.744  22.258
 7330SOL    HW133618   0.674   4.706  22.237
 7330SOL    HW233619   0.781   0.018  22.182
 7331SOL     OW33620   4.752   2.350   4.134
 7331SOL    HW133621   4.767   2.328   4.226
 7331SOL    HW233622   4.694   2.281   4.102
 7332SOL     OW33623   0.719   4.076  27.927
 7332SOL    HW133624   0.677   4.161  27.939
 7332SOL    HW233625   0.655   4.013  27.960
 7333SOL     OW33626   2.923   0.617  27.261
 7333SOL    HW133627   3.014   0.648  27.261
 7333SOL    HW233628   2.874   0.689  27.301
 7334SOL     OW33629   2.082   2.598  23.691
 7334SOL    HW133630   2.176   2.610  23.680
 7334SOL    HW233631   2.049   2.685  23.713
 7335SOL     OW33632   2.270   2.004   2.168
 7335SOL    HW133633   2.240   1.945   2.237
 7335SOL    HW233634   2.358   2.030   2.195
 7336SOL     OW33635   1.096   4.311  11.751
 7336SOL    HW133636   1.177   4.280  11.712
 7336SOL    HW233637   1.122   4.387  11.803
 7337SOL     OW33638   2.407   3.155  23.202
 7337SOL    HW133639   2.433   3.199  23.283
 7337SOL    HW233640   2.358   3.221  23.153
 7338SOL     OW33641   1.408   2.556  18.504
 7338SOL    HW133642   1.397   2.470  18.464
 7338SOL    HW233643   1.412   2.617  18.430
 7339SOL     OW33644   0.697   4.708  21.860
 7339SOL    HW133645   0.707   0.000  21.921
 7339SOL    HW233646   0.776   4.711  21.806
 7340SOL     OW33647   3.681   0.365   7.995
 7340SOL    HW133648   3.710   0.280   8.028
 7340SOL    HW233649   3.608   0.344   7.936
 7341SOL     OW33650   3.153   1.083  19.974
 7341SOL    HW133651   3.173   1.086  20.068
 7341SOL    HW233652   3.228   1.038  19.935
 7342SOL     OW33653   3.531   4.025   8.242
 7342SOL    HW133654   3.526   4.120   8.230
 7342SOL    HW233655   3.622   4.003   8.222
 7343SOL     OW33656   2.070   3.106   6.926
 7343SOL    HW133657   2.164   3.089   6.918
 7343SOL    HW233658   2.064   3.176   6.992
 7344SOL     OW33659   2.784   2.475  10.288
 7344SOL    HW133660   2.823   2.490  10.374
 7344SOL    HW233661   2.830   2.399  10.254
 7345SOL     OW33662   2.661   0.359  23.614
 7345SOL    HW133663   2.608   0.425  23.569
 7345SOL    HW233664   2.745   0.402  23.631
 7346SOL     OW33665   2.888   0.746  28.091
 7346SOL    HW133666   2.833   0.816  28.056
 7346SOL    HW233667   2.853   0.730  28.179
 7347SOL     OW33668   1.053   2.980  23.841
 7347SOL    HW133669   1.090   3.045  23.781
 7347SOL    HW233670   0.989   2.932  23.788
 7348SOL     OW33671   1.111   0.737  22.157
 7348SOL    HW133672   1.167   0.810  22.182
 7348SOL    HW233673   1.143   0.709  22.071
 7349SOL     OW33674   3.430   2.099  22.593
 7349SOL    HW133675   3.517   2.136  22.610
 7349SOL    HW233676   3.413   2.119  22.501
 7350SOL     OW33677   0.115   0.944   4.883
 7350SOL    HW133678   0.051   1.011   4.907
 7350SOL    HW233679   0.102   0.931   4.789
 7351SOL     OW33680   4.045   2.905   8.772
 7351SOL    HW133681   4.089   2.823   8.749
 7351SOL    HW233682   3.992   2.925   8.695
 7352SOL     OW33683   3.746   2.941   3.089
 7352SOL    HW133684   3.762   2.979   3.175
 7352SOL    HW233685   3.751   2.846   3.103
 7353SOL     OW33686   2.997   0.470  28.030
 7353SOL    HW133687   2.941   0.394  28.047
 7353SOL    HW233688   2.937   0.545  28.030
 7354SOL     OW33689   4.242   2.058  24.389
 7354SOL    HW133690   4.270   2.128  24.329
 7354SOL    HW233691   4.305   1.988  24.375
 7355SOL     OW33692   0.395   2.985   7.836
 7355SOL    HW133693   0.388   3.076   7.807
 7355SOL    HW233694   0.488   2.973   7.854
 7356SOL     OW33695   3.059   2.683  23.976
 7356SOL    HW133696   3.070   2.662  23.883
 7356SOL    HW233697   3.079   2.602  24.022
 7357SOL     OW33698   0.725   3.548  11.460
 7357SOL    HW133699   0.733   3.453  11.467
 7357SOL    HW233700   0.637   3.567  11.492
 7358SOL     OW33701   4.614   0.310   3.624
 7358SOL    HW133702   4.646   0.237   3.678
 7358SOL    HW233703   4.687   0.330   3.565
 7359SOL     OW33704   2.697   0.255   2.611
 7359SOL    HW133705   2.650   0.218   2.685
 7359SOL    HW233706   2.758   0.317   2.650
 7360SOL     OW33707   2.497   1.656  26.844
 7360SOL    HW133708   2.564   1.679  26.780
 7360SOL    HW233709   2.537   1.674  26.929
 7361SOL     OW33710   2.889   2.500   4.529
 7361SOL    HW133711   2.982   2.497   4.505
 7361SOL    HW233712   2.861   2.588   4.505
 7362SOL     OW33713   2.652   3.329  27.949
 7362SOL    HW133714   2.564   3.308  27.918
 7362SOL    HW233715   2.658   3.424  27.944
 7363SOL     OW33716   1.420   3.808   7.282
 7363SOL    HW133717   1.409   3.899   7.310
 7363SOL    HW233718   1.334   3.768   7.297
 7364SOL     OW33719   1.754   1.358  24.890
 7364SOL    HW133720   1.804   1.392  24.816
 7364SOL    HW233721   1.813   1.294  24.931
 7365SOL     OW33722   4.232   2.836   4.306
 7365SOL    HW133723   4.311   2.874   4.343
 7365SOL    HW233724   4.263   2.785   4.231
 7366SOL     OW33725   1.698   3.049   6.047
 7366SOL    HW133726   1.628   3.019   5.989
 7366SOL    HW233727   1.679   3.142   6.060
 7367SOL     OW33728   3.771   0.781   4.264
 7367SOL    HW133729   3.788   0.732   4.183
 7367SOL    HW233730   3.740   0.715   4.326
 7368SOL     OW33731   4.672   4.706   6.725
 7368SOL    HW133732   4.652   4.704   6.632
 7368SOL    HW233733   4.606   4.650   6.766
 7369SOL     OW33734   1.042   2.591  10.396
 7369SOL    HW133735   1.127   2.553  10.372
 7369SOL    HW233736   1.042   2.591  10.492
 7370SOL     OW33737   1.353   0.183   3.391
 7370SOL    HW133738   1.422   0.126   3.357
 7370SOL    HW233739   1.327   0.236   3.316
 7371SOL     OW33740   2.638   2.923   2.135
 7371SOL    HW133741   2.720   2.955   2.098
 7371SOL    HW233742   2.659   2.837   2.170
 7372SOL     OW33743   0.585   0.300  27.975
 7372SOL    HW133744   0.583   0.393  27.999
 7372SOL    HW233745   0.572   0.253  28.057
 7373SOL     OW33746   1.294   3.863  21.847
 7373SOL    HW133747   1.366   3.844  21.786
 7373SOL    HW233748   1.253   3.942  21.812
 7374SOL     OW33749   2.420   3.058  22.265
 7374SOL    HW133750   2.455   3.031  22.180
 7374SOL    HW233751   2.342   3.004  22.277
 7375SOL     OW33752   0.615   0.846   9.879
 7375SOL    HW133753   0.677   0.918   9.864
 7375SOL    HW233754   0.576   0.866   9.964
 7376SOL     OW33755   2.011   4.271  26.641
 7376SOL    HW133756   1.983   4.256  26.731
 7376SOL    HW233757   2.093   4.221  26.633
 7377SOL     OW33758   3.226   4.490  28.056
 7377SOL    HW133759   3.320   4.506  28.063
 7377SOL    HW233760   3.186   4.563  28.103
 7378SOL     OW33761   3.144   2.339  28.444
 7378SOL    HW133762   3.172   2.281  28.373
 7378SOL    HW233763   3.172   2.294   0.005
 7379SOL     OW33764   0.207   4.180  28.328
 7379SOL    HW133765   0.274   4.164  28.394
 7379SOL    HW233766   0.157   4.099  28.325
 7380SOL     OW33767   4.142   2.252   2.253
 7380SOL    HW133768   4.232   2.257   2.286
 7380SOL    HW233769   4.139   2.170   2.204
 7381SOL     OW33770   3.687   2.839  21.245
 7381SOL    HW133771   3.762   2.788  21.215
 7381SOL    HW233772   3.611   2.786  21.223
 7382SOL     OW33773   0.466   1.384  18.112
 7382SOL    HW133774   0.515   1.302  18.105
 7382SOL    HW233775   0.411   1.386  18.034
 7383SOL     OW33776   1.880   2.680   8.288
 7383SOL    HW133777   1.875   2.586   8.307
 7383SOL    HW233778   1.789   2.710   8.289
 7384SOL     OW33779   0.428   0.149  25.175
 7384SOL    HW133780   0.435   0.244  25.184
 7384SOL    HW233781   0.509   0.123  25.132
 7385SOL     OW33782   1.570   1.987   0.020
 7385SOL    HW133783   1.646   1.934  28.516
 7385SOL    HW233784   1.584   2.010   0.112
 7386SOL     OW33785   2.357   1.744  23.853
 7386SOL    HW133786   2.319   1.663  23.818
 7386SOL    HW233787   2.372   1.799  23.776
 7387SOL     OW33788   3.319   1.020   5.397
 7387SOL    HW133789   3.268   1.064   5.329
 7387SOL    HW233790   3.259   1.015   5.472
 7388SOL     OW33791   3.761   0.698  23.136
 7388SOL    HW133792   3.750   0.705  23.231
 7388SOL    HW233793   3.776   0.788  23.107
 7389SOL     OW33794   4.455   3.200  20.311
 7389SOL    HW133795   4.440   3.221  20.403
 7389SOL    HW233796   4.545   3.229  20.294
 7390SOL     OW33797   0.160   3.562   4.997
 7390SOL    HW133798   0.200   3.648   4.989
 7390SOL    HW233799   0.076   3.579   5.040
 7391SOL     OW33800   3.135   4.687  22.444
 7391SOL    HW133801   3.215   4.688  22.391
 7391SOL    HW233802   3.110   4.779  22.452
 7392SOL     OW33803   2.571   4.422   4.156
 7392SOL    HW133804   2.509   4.366   4.203
 7392SOL    HW233805   2.580   4.381   4.070
 7393SOL     OW33806   3.596   2.730   0.021
 7393SOL    HW133807   3.578   2.642  28.507
 7393SOL    HW233808   3.691   2.735   0.026
 7394SOL     OW33809   4.734   0.559   9.945
 7394SOL    HW133810   0.040   0.537   9.980
 7394SOL    HW233811   4.731   0.655   9.948
 7395SOL     OW33812   2.694   4.482  22.966
 7395SOL    HW133813   2.693   4.440  22.880
 7395SOL    HW233814   2.751   4.558  22.955
 7396SOL     OW33815   0.574   0.719   2.200
 7396SOL    HW133816   0.510   0.656   2.167
 7396SOL    HW233817   0.606   0.764   2.122
 7397SOL     OW33818   4.023   1.290  21.307
 7397SOL    HW133819   4.031   1.203  21.268
 7397SOL    HW233820   3.941   1.286  21.357
 7398SOL     OW33821   2.405   0.124  25.902
 7398SOL    HW133822   2.427   0.213  25.929
 7398SOL    HW233823   2.366   0.134  25.815
 7399SOL     OW33824   4.515   1.030   8.334
 7399SOL    HW133825   4.580   0.967   8.303
 7399SOL    HW233826   4.556   1.116   8.321
 7400SOL     OW33827   3.133   0.727  20.756
 7400SOL    HW133828   3.088   0.643  20.762
 7400SOL    HW233829   3.222   0.705  20.728
 7401SOL     OW33830   3.625   0.312   0.734
 7401SOL    HW133831   3.606   0.249   0.804
 7401SOL    HW233832   3.680   0.264   0.673
 7402SOL     OW33833   4.691   0.327  11.346
 7402SOL    HW133834   4.731   0.243  11.323
 7402SOL    HW233835   4.734   0.352  11.428
 7403SOL     OW33836   0.713   3.226  27.184
 7403SOL    HW133837   0.725   3.284  27.109
 7403SOL    HW233838   0.736   3.279  27.260
 7404SOL     OW33839   3.099   4.372  20.861
 7404SOL    HW133840   3.087   4.387  20.767
 7404SOL    HW233841   3.141   4.452  20.893
 7405SOL     OW33842   3.392   3.797  23.648
 7405SOL    HW133843   3.425   3.780  23.736
 7405SOL    HW233844   3.297   3.788  23.656
 7406SOL     OW33845   0.758   2.667   0.603
 7406SOL    HW133846   0.821   2.613   0.556
 7406SOL    HW233847   0.677   2.659   0.553
 7407SOL     OW33848   3.397   2.082   7.114
 7407SOL    HW133849   3.492   2.088   7.100
 7407SOL    HW233850   3.376   2.160   7.165
 7408SOL     OW33851   2.934   2.840   2.493
 7408SOL    HW133852   2.959   2.845   2.401
 7408SOL    HW233853   2.959   2.925   2.529
 7409SOL     OW33854   2.145   1.162  18.678
 7409SOL    HW133855   2.131   1.257  18.675
 7409SOL    HW233856   2.238   1.152  18.699
 7410SOL     OW33857   3.271   0.009   7.370
 7410SOL    HW133858   3.231   4.710   7.333
 7410SOL    HW233859   3.213   0.080   7.342
 7411SOL     OW33860   3.418   4.611  24.633
 7411SOL    HW133861   3.330   4.641  24.611
 7411SOL    HW233862   3.457   4.684  24.682
 7412SOL     OW33863   4.208   2.067  11.657
 7412SOL    HW133864   4.235   2.142  11.710
 7412SOL    HW233865   4.224   2.094  11.567
 7413SOL     OW33866   0.105   1.548  27.927
 7413SOL    HW133867   0.076   1.638  27.944
 7413SOL    HW233868   0.070   1.527  27.841
 7414SOL     OW33869   1.725   1.512   0.994
 7414SOL    HW133870   1.702   1.420   1.003
 7414SOL    HW233871   1.642   1.559   1.002
 7415SOL     OW33872   0.521   0.754  22.468
 7415SOL    HW133873   0.441   0.775  22.516
 7415SOL    HW233874   0.552   0.838  22.434
 7416SOL     OW33875   3.425   3.392   9.787
 7416SOL    HW133876   3.453   3.357   9.702
 7416SOL    HW233877   3.332   3.370   9.792
 7417SOL     OW33878   3.164   3.525   1.916
 7417SOL    HW133879   3.219   3.567   1.982
 7417SOL    HW233880   3.226   3.485   1.855
 7418SOL     OW33881   1.514   1.954  22.057
 7418SOL    HW133882   1.512   1.882  22.120
 7418SOL    HW233883   1.572   1.924  21.987
 7419SOL     OW33884   3.788   2.869  23.752
 7419SOL    HW133885   3.791   2.905  23.663
 7419SOL    HW233886   3.849   2.795  23.749
 7420SOL     OW33887   2.002   2.546   8.855
 7420SOL    HW133888   1.935   2.501   8.906
 7420SOL    HW233889   1.981   2.639   8.866
 7421SOL     OW33890   1.410   4.576   8.589
 7421SOL    HW133891   1.315   4.575   8.601
 7421SOL    HW233892   1.423   4.593   8.496
 7422SOL     OW33893   3.125   0.215   7.294
 7422SOL    HW133894   3.073   0.201   7.215
 7422SOL    HW233895   3.146   0.308   7.293
 7423SOL     OW33896   1.233   3.409   5.525
 7423SOL    HW133897   1.192   3.428   5.441
 7423SOL    HW233898   1.226   3.314   5.534
 7424SOL     OW33899   1.675   0.055  12.659
 7424SOL    HW133900   1.615   0.123  12.629
 7424SOL    HW233901   1.628   4.753  12.642
 7425SOL     OW33902   4.455   3.899   5.912
 7425SOL    HW133903   4.450   3.993   5.896
 7425SOL    HW233904   4.372   3.878   5.956
 7426SOL     OW33905   1.061   4.257  23.327
 7426SOL    HW133906   1.079   4.247  23.421
 7426SOL    HW233907   1.146   4.276  23.288
 7427SOL     OW33908   2.254   4.628  22.522
 7427SOL    HW133909   2.204   4.567  22.467
 7427SOL    HW233910   2.265   4.706  22.467
 7428SOL     OW33911   0.857   2.148  22.903
 7428SOL    HW133912   0.809   2.118  22.826
 7428SOL    HW233913   0.877   2.240  22.885
 7429SOL     OW33914   2.398   0.406  22.589
 7429SOL    HW133915   2.321   0.443  22.547
 7429SOL    HW233916   2.368   0.322  22.625
 7430SOL     OW33917   1.194   0.175  19.000
 7430SOL    HW133918   1.178   0.260  19.042
 7430SOL    HW233919   1.134   0.174  18.925
 7431SOL     OW33920   0.327   2.633   9.457
 7431SOL    HW133921   0.298   2.642   9.548
 7431SOL    HW233922   0.419   2.659   9.458
 7432SOL     OW33923   4.183   3.719  22.713
 7432SOL    HW133924   4.234   3.731  22.793
 7432SOL    HW233925   4.227   3.775  22.649
 7433SOL     OW33926   2.052   3.149  23.436
 7433SOL    HW133927   2.087   3.083  23.376
 7433SOL    HW233928   1.977   3.186  23.390
 7434SOL     OW33929   0.381   4.067  25.241
 7434SOL    HW133930   0.398   4.081  25.334
 7434SOL    HW233931   0.365   3.973  25.233
 7435SOL     OW33932   2.349   1.141  22.952
 7435SOL    HW133933   2.381   1.073  23.011
 7435SOL    HW233934   2.257   1.119  22.937
 7436SOL     OW33935   1.346   3.793  22.458
 7436SOL    HW133936   1.344   3.751  22.544
 7436SOL    HW233937   1.307   3.879  22.472
 7437SOL     OW33938   3.263   1.412  26.187
 7437SOL    HW133939   3.175   1.423  26.223
 7437SOL    HW233940   3.255   1.441  26.096
 7438SOL     OW33941   3.093   4.237  21.360
 7438SOL    HW133942   3.131   4.226  21.447
 7438SOL    HW233943   2.998   4.233  21.374
 7439SOL     OW33944   1.788   1.663   4.344
 7439SOL    HW133945   1.806   1.664   4.438
 7439SOL    HW233946   1.764   1.753   4.323
 7440SOL     OW33947   0.989   3.417   7.365
 7440SOL    HW133948   1.072   3.462   7.350
 7440SOL    HW233949   1.006   3.327   7.338
 7441SOL     OW33950   1.479   1.104  24.242
 7441SOL    HW133951   1.459   1.195  24.219
 7441SOL    HW233952   1.395   1.067  24.268
 7442SOL     OW33953   4.537   1.418  22.232
 7442SOL    HW133954   4.528   1.462  22.148
 7442SOL    HW233955   4.453   1.431  22.276
 7443SOL     OW33956   3.515   1.170  27.180
 7443SOL    HW133957   3.584   1.105  27.168
 7443SOL    HW233958   3.440   1.135  27.132
 7444SOL     OW33959   1.147   1.167   4.807
 7444SOL    HW133960   1.223   1.116   4.835
 7444SOL    HW233961   1.184   1.242   4.760
 7445SOL     OW33962   1.986   1.779   9.389
 7445SOL    HW133963   2.024   1.853   9.342
 7445SOL    HW233964   1.921   1.818   9.448
 7446SOL     OW33965   2.406   2.104   4.838
 7446SOL    HW133966   2.393   2.069   4.926
 7446SOL    HW233967   2.356   2.186   4.838
 7447SOL     OW33968   3.056   2.870  24.570
 7447SOL    HW133969   3.132   2.892  24.623
 7447SOL    HW233970   3.043   2.946  24.514
 7448SOL     OW33971   3.275   0.593   7.480
 7448SOL    HW133972   3.345   0.648   7.445
 7448SOL    HW233973   3.314   0.550   7.556
 7449SOL     OW33974   2.102   3.972  10.173
 7449SOL    HW133975   2.184   3.977  10.222
 7449SOL    HW233976   2.049   3.909  10.222
 7450SOL     OW33977   2.321   3.500  21.373
 7450SOL    HW133978   2.374   3.574  21.403
 7450SOL    HW233979   2.232   3.535  21.369
 7451SOL     OW33980   4.427   1.886   8.972
 7451SOL    HW133981   4.429   1.976   9.006
 7451SOL    HW233982   4.344   1.850   9.004
 7452SOL     OW33983   3.299   1.915  17.854
 7452SOL    HW133984   3.247   1.975  17.907
 7452SOL    HW233985   3.389   1.947  17.863
 7453SOL     OW33986   1.833   1.221   6.943
 7453SOL    HW133987   1.772   1.254   7.009
 7453SOL    HW233988   1.817   1.275   6.866
 7454SOL     OW33989   2.793   4.695   7.698
 7454SOL    HW133990   2.780   4.604   7.673
 7454SOL    HW233991   2.824   4.738   7.618
 7455SOL     OW33992   2.953   4.030   8.694
 7455SOL    HW133993   2.901   4.104   8.725
 7455SOL    HW233994   3.036   4.037   8.741
 7456SOL     OW33995   1.690   4.008   0.225
 7456SOL    HW133996   1.600   4.009   0.192
 7456SOL    HW233997   1.724   3.922   0.201
 7457SOL     OW33998   0.149   1.904   2.433
 7457SOL    HW133999   0.088   1.847   2.479
 7457SOL    HW234000   0.212   1.844   2.392
 7458SOL     OW34001   4.603   2.079  19.075
 7458SOL    HW134002   4.557   2.155  19.109
 7458SOL    HW234003   4.675   2.065  19.136
 7459SOL     OW34004   1.883   4.695  27.513
 7459SOL    HW134005   1.890   4.729  27.602
 7459SOL    HW234006   1.918   4.764  27.457
 7460SOL     OW34007   0.787   1.025  25.463
 7460SOL    HW134008   0.727   1.027  25.538
 7460SOL    HW234009   0.741   0.975  25.396
 7461SOL     OW34010   1.090   3.682  27.895
 7461SOL    HW134011   1.039   3.703  27.817
 7461SOL    HW234012   1.054   3.737  27.964
 7462SOL     OW34013   0.467   0.388   8.327
 7462SOL    HW134014   0.399   0.443   8.365
 7462SOL    HW234015   0.491   0.432   8.245
 7463SOL     OW34016   0.121   2.160  24.025
 7463SOL    HW134017   0.109   2.252  24.002
 7463SOL    HW234018   0.163   2.121  23.948
 7464SOL     OW34019   2.811   0.067   7.447
 7464SOL    HW134020   2.735   0.116   7.479
 7464SOL    HW234021   2.867   0.134   7.407
 7465SOL     OW34022   0.852   3.085  25.926
 7465SOL    HW134023   0.928   3.139  25.903
 7465SOL    HW234024   0.874   2.997  25.895
 7466SOL     OW34025   0.341   0.752   1.858
 7466SOL    HW134026   0.403   0.743   1.786
 7466SOL    HW234027   0.379   0.819   1.915
 7467SOL     OW34028   3.381   3.302   1.021
 7467SOL    HW134029   3.350   3.238   1.085
 7467SOL    HW234030   3.471   3.275   1.002
 7468SOL     OW34031   3.685   4.521  18.671
 7468SOL    HW134032   3.736   4.503  18.592
 7468SOL    HW234033   3.747   4.562  18.731
 7469SOL     OW34034   0.575   3.500  22.300
 7469SOL    HW134035   0.555   3.582  22.345
 7469SOL    HW234036   0.543   3.432  22.359
 7470SOL     OW34037   2.717   0.422   9.218
 7470SOL    HW134038   2.707   0.457   9.129
 7470SOL    HW234039   2.696   0.496   9.275
 7471SOL     OW34040   4.079   0.725   8.644
 7471SOL    HW134041   3.985   0.726   8.661
 7471SOL    HW234042   4.118   0.695   8.726
 7472SOL     OW34043   0.841   1.960  18.863
 7472SOL    HW134044   0.890   2.041  18.848
 7472SOL    HW234045   0.907   1.897  18.892
 7473SOL     OW34046   1.630   4.306  20.318
 7473SOL    HW134047   1.571   4.241  20.279
 7473SOL    HW234048   1.573   4.378  20.344
 7474SOL     OW34049   2.058   1.992  10.387
 7474SOL    HW134050   2.063   1.899  10.407
 7474SOL    HW234051   1.998   1.997  10.313
 7475SOL     OW34052   2.462   4.010  10.893
 7475SOL    HW134053   2.408   4.076  10.850
 7475SOL    HW234054   2.450   4.025  10.987
 7476SOL     OW34055   0.773   1.020   1.713
 7476SOL    HW134056   0.723   1.102   1.717
 7476SOL    HW234057   0.748   0.981   1.629
 7477SOL     OW34058   0.102   4.640  26.590
 7477SOL    HW134059   0.014   4.676  26.581
 7477SOL    HW234060   0.154   4.713  26.623
 7478SOL     OW34061   3.968   0.275   5.747
 7478SOL    HW134062   3.889   0.325   5.728
 7478SOL    HW234063   4.037   0.341   5.754
 7479SOL     OW34064   2.669   2.466   7.197
 7479SOL    HW134065   2.633   2.548   7.231
 7479SOL    HW234066   2.606   2.399   7.225
 7480SOL     OW34067   4.777   2.904   4.655
 7480SOL    HW134068   0.007   2.976   4.592
 7480SOL    HW234069   4.683   2.901   4.673
 7481SOL     OW34070   1.785   2.708   5.837
 7481SOL    HW134071   1.718   2.741   5.776
 7481SOL    HW234072   1.841   2.652   5.783
 7482SOL     OW34073   4.743   3.957  25.802
 7482SOL    HW134074   4.752   3.976  25.709
 7482SOL    HW234075   4.775   3.867  25.811
 7483SOL     OW34076   2.893   2.299   2.390
 7483SOL    HW134077   2.855   2.310   2.303
 7483SOL    HW234078   2.979   2.340   2.385
 7484SOL     OW34079   1.380   4.301   0.075
 7484SOL    HW134080   1.437   4.301   0.152
 7484SOL    HW234081   1.440   4.300   0.001
 7485SOL     OW34082   0.057   1.184   7.805
 7485SOL    HW134083   0.124   1.131   7.848
 7485SOL    HW234084   0.077   1.274   7.833
 7486SOL     OW34085   0.083   3.265  22.543
 7486SOL    HW134086   0.101   3.357  22.525
 7486SOL    HW234087   0.122   3.249  22.629
 7487SOL     OW34088   2.101   0.433   8.874
 7487SOL    HW134089   2.048   0.464   8.801
 7487SOL    HW234090   2.182   0.484   8.868
 7488SOL     OW34091   0.580   0.998   2.528
 7488SOL    HW134092   0.618   1.053   2.459
 7488SOL    HW234093   0.655   0.965   2.577
 7489SOL     OW34094   0.162   1.209  24.946
 7489SOL    HW134095   0.164   1.234  24.854
 7489SOL    HW234096   0.239   1.153  24.958
 7490SOL     OW34097   0.496   4.767  23.977
 7490SOL    HW134098   0.405   4.741  23.964
 7490SOL    HW234099   0.496   0.032  24.061
 7491SOL     OW34100   4.201   1.401   2.864
 7491SOL    HW134101   4.168   1.329   2.917
 7491SOL    HW234102   4.170   1.480   2.908
 7492SOL     OW34103   3.666   4.287   4.676
 7492SOL    HW134104   3.629   4.353   4.618
 7492SOL    HW234105   3.686   4.335   4.757
 7493SOL     OW34106   3.676   0.033  27.000
 7493SOL    HW134107   3.709   0.103  27.056
 7493SOL    HW234108   3.715   4.734  27.035
 7494SOL     OW34109   0.259   1.243   5.264
 7494SOL    HW134110   0.285   1.155   5.292
 7494SOL    HW234111   0.338   1.296   5.273
 7495SOL     OW34112   2.160   2.707  23.332
 7495SOL    HW134113   2.242   2.749  23.357
 7495SOL    HW234114   2.092   2.764  23.368
 7496SOL     OW34115   4.621   3.243  23.889
 7496SOL    HW134116   4.534   3.258  23.925
 7496SOL    HW234117   4.672   3.207  23.962
 7497SOL     OW34118   0.795   1.338  10.144
 7497SOL    HW134119   0.851   1.285  10.202
 7497SOL    HW234120   0.856   1.385  10.088
 7498SOL     OW34121   4.334   4.003   1.343
 7498SOL    HW134122   4.259   4.042   1.387
 7498SOL    HW234123   4.301   3.920   1.308
 7499SOL     OW34124   1.072   2.490  23.020
 7499SOL    HW134125   1.086   2.492  22.925
 7499SOL    HW234126   1.115   2.410  23.049
 7500SOL     OW34127   1.088   0.935  20.838
 7500SOL    HW134128   1.024   0.959  20.905
 7500SOL    HW234129   1.143   1.013  20.828
 7501SOL     OW34130   2.951   0.073   5.891
 7501SOL    HW134131   2.896   0.103   5.819
 7501SOL    HW234132   3.009   0.007   5.852
 7502SOL     OW34133   3.983   0.359   2.817
 7502SOL    HW134134   3.915   0.420   2.789
 7502SOL    HW234135   3.935   0.281   2.845
 7503SOL     OW34136   3.732   3.541  25.709
 7503SOL    HW134137   3.673   3.614  25.728
 7503SOL    HW234138   3.813   3.564  25.755
 7504SOL     OW34139   2.878   3.572  26.880
 7504SOL    HW134140   2.885   3.590  26.974
 7504SOL    HW234141   2.799   3.620  26.853
 7505SOL     OW34142   4.347   3.310   8.194
 7505SOL    HW134143   4.441   3.298   8.179
 7505SOL    HW234144   4.339   3.324   8.288
 7506SOL     OW34145   3.738   3.168  21.884
 7506SOL    HW134146   3.670   3.136  21.943
 7506SOL    HW234147   3.691   3.195  21.805
 7507SOL     OW34148   1.707   2.936  19.494
 7507SOL    HW134149   1.660   3.019  19.490
 7507SOL    HW234150   1.797   2.960  19.516
 7508SOL     OW34151   0.598   2.329   7.605
 7508SOL    HW134152   0.578   2.417   7.574
 7508SOL    HW234153   0.687   2.312   7.574
 7509SOL     OW34154   2.475   2.448  22.057
 7509SOL    HW134155   2.486   2.482  21.968
 7509SOL    HW234156   2.511   2.516  22.114
 7510SOL     OW34157   3.179   3.557  25.198
 7510SOL    HW134158   3.266   3.532  25.228
 7510SOL    HW234159   3.127   3.563  25.278
 7511SOL     OW34160   4.645   4.341   2.516
 7511SOL    HW134161   4.612   4.359   2.428
 7511SOL    HW234162   4.655   4.246   2.518
 7512SOL     OW34163   1.955   3.015  19.370
 7512SOL    HW134164   1.919   2.926  19.367
 7512SOL    HW234165   1.977   3.030  19.462
 7513SOL     OW34166   0.671   0.514  10.753
 7513SOL    HW134167   0.661   0.503  10.658
 7513SOL    HW234168   0.661   0.426  10.788
 7514SOL     OW34169   0.654   3.402   5.568
 7514SOL    HW134170   0.667   3.496   5.582
 7514SOL    HW234171   0.609   3.396   5.484
 7515SOL     OW34172   1.193   4.213  23.605
 7515SOL    HW134173   1.253   4.162  23.659
 7515SOL    HW234174   1.164   4.284  23.662
 7516SOL     OW34175   4.317   4.019   4.502
 7516SOL    HW134176   4.300   3.926   4.485
 7516SOL    HW234177   4.409   4.022   4.529
 7517SOL     OW34178   2.235   2.270   5.585
 7517SOL    HW134179   2.319   2.227   5.567
 7517SOL    HW234180   2.214   2.316   5.504
 7518SOL     OW34181   4.314   2.984  19.197
 7518SOL    HW134182   4.396   3.014  19.157
 7518SOL    HW234183   4.246   3.013  19.137
 7519SOL     OW34184   2.078   0.287   0.042
 7519SOL    HW134185   2.130   0.325  28.490
 7519SOL    HW234186   2.126   0.209   0.068
 7520SOL     OW34187   2.357   0.597   2.022
 7520SOL    HW134188   2.283   0.537   2.010
 7520SOL    HW234189   2.420   0.546   2.073
 7521SOL     OW34190   4.729   2.383   6.952
 7521SOL    HW134191   4.656   2.349   7.004
 7521SOL    HW234192   4.760   2.308   6.902
 7522SOL     OW34193   3.682   2.915   6.275
 7522SOL    HW134194   3.705   2.952   6.190
 7522SOL    HW234195   3.701   2.822   6.266
 7523SOL     OW34196   0.708   1.672  25.913
 7523SOL    HW134197   0.737   1.592  25.956
 7523SOL    HW234198   0.775   1.737  25.934
 7524SOL     OW34199   1.564   4.423  11.711
 7524SOL    HW134200   1.580   4.334  11.742
 7524SOL    HW234201   1.532   4.470  11.788
 7525SOL     OW34202   2.175   1.801  24.981
 7525SOL    HW134203   2.154   1.829  24.892
 7525SOL    HW234204   2.258   1.843  25.001
 7526SOL     OW34205   4.386   4.169   7.860
 7526SOL    HW134206   4.449   4.120   7.913
 7526SOL    HW234207   4.301   4.129   7.879
 7527SOL     OW34208   0.609   2.253  10.183
 7527SOL    HW134209   0.618   2.346  10.202
 7527SOL    HW234210   0.699   2.220  10.185
 7528SOL     OW34211   4.393   3.555   6.361
 7528SOL    HW134212   4.447   3.602   6.425
 7528SOL    HW234213   4.304   3.586   6.377
 7529SOL     OW34214   1.414   2.988  23.351
 7529SOL    HW134215   1.382   2.898  23.359
 7529SOL    HW234216   1.353   3.040  23.403
 7530SOL     OW34217   3.981   1.305  25.711
 7530SOL    HW134218   3.923   1.325  25.637
 7530SOL    HW234219   3.931   1.332  25.788
 7531SOL     OW34220   1.801   2.347  21.402
 7531SOL    HW134221   1.851   2.372  21.480
 7531SOL    HW234222   1.792   2.428  21.352
 7532SOL     OW34223   4.253   4.004   8.947
 7532SOL    HW134224   4.199   4.069   8.902
 7532SOL    HW234225   4.277   4.047   9.029
 7533SOL     OW34226   2.496   4.639  21.735
 7533SOL    HW134227   2.518   4.586  21.811
 7533SOL    HW234228   2.403   4.659  21.746
 7534SOL     OW34229   4.098   3.185  26.912
 7534SOL    HW134230   4.040   3.258  26.934
 7534SOL    HW234231   4.070   3.158  26.824
 7535SOL     OW34232   2.982   3.425  26.633
 7535SOL    HW134233   3.043   3.355  26.655
 7535SOL    HW234234   2.915   3.421  26.702
 7536SOL     OW34235   4.555   3.495  21.951
 7536SOL    HW134236   4.475   3.475  22.000
 7536SOL    HW234237   4.531   3.569  21.895
 7537SOL     OW34238   1.459   3.709  21.283
 7537SOL    HW134239   1.455   3.721  21.188
 7537SOL    HW234240   1.530   3.647  21.297
 7538SOL     OW34241   4.091   3.220  21.575
 7538SOL    HW134242   4.123   3.260  21.494
 7538SOL    HW234243   4.158   3.155  21.598
 7539SOL     OW34244   1.269   4.290   0.878
 7539SOL    HW134245   1.196   4.231   0.899
 7539SOL    HW234246   1.345   4.233   0.871
 7540SOL     OW34247   2.143   3.037  22.487
 7540SOL    HW134248   2.156   2.988  22.406
 7540SOL    HW234249   2.171   2.977  22.556
 7541SOL     OW34250   0.831   4.535  24.783
 7541SOL    HW134251   0.735   4.534  24.782
 7541SOL    HW234252   0.853   4.616  24.828
 7542SOL     OW34253   2.316   1.524   7.744
 7542SOL    HW134254   2.333   1.487   7.657
 7542SOL    HW234255   2.289   1.614   7.726
 7543SOL     OW34256   3.178   3.306   3.500
 7543SOL    HW134257   3.128   3.262   3.569
 7543SOL    HW234258   3.269   3.284   3.519
 7544SOL     OW34259   0.393   3.815   3.543
 7544SOL    HW134260   0.351   3.768   3.471
 7544SOL    HW234261   0.367   3.906   3.531
 7545SOL     OW34262   2.071   1.304   0.982
 7545SOL    HW134263   2.025   1.319   1.064
 7545SOL    HW234264   2.160   1.337   0.998
 7546SOL     OW34265   3.770   2.481  11.410
 7546SOL    HW134266   3.799   2.481  11.501
 7546SOL    HW234267   3.692   2.425  11.409
 7547SOL     OW34268   3.961   1.858   1.153
 7547SOL    HW134269   4.041   1.908   1.167
 7547SOL    HW234270   3.935   1.830   1.241
 7548SOL     OW34271   2.588   1.610  28.187
 7548SOL    HW134272   2.493   1.618  28.196
 7548SOL    HW234273   2.611   1.539  28.247
 7549SOL     OW34274   0.932   2.568  26.582
 7549SOL    HW134275   0.904   2.650  26.623
 7549SOL    HW234276   0.864   2.505  26.604
 7550SOL     OW34277   3.178   0.086  26.891
 7550SOL    HW134278   3.146   0.176  26.884
 7550SOL    HW234279   3.271   0.092  26.871
 7551SOL     OW34280   2.127   2.778  27.646
 7551SOL    HW134281   2.157   2.846  27.706
 7551SOL    HW234282   2.069   2.823  27.585
 7552SOL     OW34283   3.144   3.266   3.236
 7552SOL    HW134284   3.238   3.261   3.217
 7552SOL    HW234285   3.140   3.293   3.328
 7553SOL     OW34286   0.661   3.068   8.395
 7553SOL    HW134287   0.648   2.974   8.387
 7553SOL    HW234288   0.723   3.089   8.325
 7554SOL     OW34289   1.588   3.431  26.450
 7554SOL    HW134290   1.633   3.396  26.373
 7554SOL    HW234291   1.629   3.516  26.465
 7555SOL     OW34292   1.271   0.667   4.757
 7555SOL    HW134293   1.296   0.577   4.734
 7555SOL    HW234294   1.249   0.662   4.850
 7556SOL     OW34295   2.649   3.069   5.856
 7556SOL    HW134296   2.686   3.139   5.910
 7556SOL    HW234297   2.554   3.079   5.865
 7557SOL     OW34298   0.280   3.834  23.562
 7557SOL    HW134299   0.238   3.906  23.515
 7557SOL    HW234300   0.370   3.834  23.530
 7558SOL     OW34301   3.232   3.842   9.023
 7558SOL    HW134302   3.138   3.831   9.039
 7558SOL    HW234303   3.272   3.765   9.063
 7559SOL     OW34304   2.532   3.320  23.907
 7559SOL    HW134305   2.624   3.346  23.905
 7559SOL    HW234306   2.489   3.385  23.963
 7560SOL     OW34307   0.902   3.572   7.633
 7560SOL    HW134308   0.941   3.509   7.573
 7560SOL    HW234309   0.975   3.629   7.658
 7561SOL     OW34310   4.119   1.386   0.902
 7561SOL    HW134311   4.047   1.413   0.958
 7561SOL    HW234312   4.157   1.310   0.946
 7562SOL     OW34313   2.468   3.327  25.542
 7562SOL    HW134314   2.549   3.327  25.593
 7562SOL    HW234315   2.495   3.352  25.454
 7563SOL     OW34316   1.317   2.011   7.584
 7563SOL    HW134317   1.273   2.082   7.538
 7563SOL    HW234318   1.408   2.040   7.592
 7564SOL     OW34319   2.001   0.868   3.073
 7564SOL    HW134320   1.988   0.808   2.999
 7564SOL    HW234321   1.924   0.854   3.129
 7565SOL     OW34322   4.384   1.824  21.348
 7565SOL    HW134323   4.461   1.771  21.327
 7565SOL    HW234324   4.320   1.761  21.380
 7566SOL     OW34325   2.929   2.991  27.799
 7566SOL    HW134326   2.989   3.056  27.837
 7566SOL    HW234327   2.966   2.972  27.713
 7567SOL     OW34328   3.679   0.419  22.444
 7567SOL    HW134329   3.755   0.473  22.423
 7567SOL    HW234330   3.689   0.399  22.537
 7568SOL     OW34331   3.755   2.725   7.947
 7568SOL    HW134332   3.815   2.651   7.935
 7568SOL    HW234333   3.745   2.733   8.042
 7569SOL     OW34334   2.417   3.633   2.376
 7569SOL    HW134335   2.454   3.661   2.460
 7569SOL    HW234336   2.361   3.559   2.398
 7570SOL     OW34337   1.608   2.281  20.088
 7570SOL    HW134338   1.569   2.242  20.010
 7570SOL    HW234339   1.581   2.223  20.159
 7571SOL     OW34340   2.331   1.314   4.473
 7571SOL    HW134341   2.273   1.356   4.536
 7571SOL    HW234342   2.406   1.285   4.525
 7572SOL     OW34343   3.846   1.443   6.564
 7572SOL    HW134344   3.865   1.457   6.657
 7572SOL    HW234345   3.847   1.531   6.526
 7573SOL     OW34346   4.246   4.540  24.651
 7573SOL    HW134347   4.247   4.516  24.558
 7573SOL    HW234348   4.177   4.485  24.689
 7574SOL     OW34349   1.300   3.111   2.311
 7574SOL    HW134350   1.330   3.172   2.379
 7574SOL    HW234351   1.378   3.060   2.289
 7575SOL     OW34352   2.973   2.513  26.900
 7575SOL    HW134353   2.959   2.420  26.918
 7575SOL    HW234354   2.954   2.523  26.807
 7576SOL     OW34355   1.415   1.317   0.948
 7576SOL    HW134356   1.470   1.266   0.889
 7576SOL    HW234357   1.331   1.271   0.948
 7577SOL     OW34358   4.443   3.669   7.910
 7577SOL    HW134359   4.497   3.670   7.989
 7577SOL    HW234360   4.370   3.611   7.932
 7578SOL     OW34361   2.758   3.327  10.956
 7578SOL    HW134362   2.811   3.289  10.885
 7578SOL    HW234363   2.789   3.417  10.964
 7579SOL     OW34364   0.990   2.993   1.877
 7579SOL    HW134365   1.053   3.014   1.808
 7579SOL    HW234366   0.915   3.049   1.859
 7580SOL     OW34367   0.619   4.583   7.352
 7580SOL    HW134368   0.676   4.507   7.341
 7580SOL    HW234369   0.666   4.654   7.309
 7581SOL     OW34370   3.705   0.478   6.647
 7581SOL    HW134371   3.649   0.403   6.668
 7581SOL    HW234372   3.653   0.554   6.673
 7582SOL     OW34373   3.553   0.993  21.583
 7582SOL    HW134374   3.564   1.054  21.656
 7582SOL    HW234375   3.637   0.947  21.578
 7583SOL     OW34376   2.365   4.310   6.935
 7583SOL    HW134377   2.363   4.400   6.967
 7583SOL    HW234378   2.371   4.318   6.840
 7584SOL     OW34379   0.359   1.450   9.628
 7584SOL    HW134380   0.344   1.483   9.717
 7584SOL    HW234381   0.349   1.527   9.572
 7585SOL     OW34382   3.770   3.459   1.936
 7585SOL    HW134383   3.735   3.465   2.025
 7585SOL    HW234384   3.697   3.426   1.884
 7586SOL     OW34385   4.179   0.213   6.988
 7586SOL    HW134386   4.177   0.244   6.897
 7586SOL    HW234387   4.168   0.292   7.041
 7587SOL     OW34388   1.087   2.536   1.957
 7587SOL    HW134389   1.051   2.525   1.869
 7587SOL    HW234390   1.142   2.459   1.971
 7588SOL     OW34391   1.150   2.208  26.750
 7588SOL    HW134392   1.173   2.263  26.675
 7588SOL    HW234393   1.058   2.228  26.767
 7589SOL     OW34394   3.518   1.968  23.344
 7589SOL    HW134395   3.484   2.042  23.394
 7589SOL    HW234396   3.613   1.975  23.353
 7590SOL     OW34397   0.699   3.827   8.936
 7590SOL    HW134398   0.766   3.765   8.907
 7590SOL    HW234399   0.616   3.786   8.913
 7591SOL     OW34400   0.780   3.147  24.306
 7591SOL    HW134401   0.873   3.161  24.324
 7591SOL    HW234402   0.751   3.086  24.374
 7592SOL     OW34403   3.688   0.728   0.903
 7592SOL    HW134404   3.683   0.790   0.975
 7592SOL    HW234405   3.667   0.780   0.825
 7593SOL     OW34406   3.285   3.949  22.390
 7593SOL    HW134407   3.270   3.879  22.453
 7593SOL    HW234408   3.210   4.008  22.401
 7594SOL     OW34409   0.766   0.063   7.612
 7594SOL    HW134410   0.703   0.128   7.580
 7594SOL    HW234411   0.850   0.089   7.574
 7595SOL     OW34412   0.527   3.540  24.046
 7595SOL    HW134413   0.571   3.578  24.122
 7595SOL    HW234414   0.449   3.498  24.082
 7596SOL     OW34415   3.976   1.635  24.865
 7596SOL    HW134416   4.036   1.659  24.936
 7596SOL    HW234417   4.031   1.589  24.802
 7597SOL     OW34418   0.042   0.836   1.837
 7597SOL    HW134419   0.029   0.871   1.925
 7597SOL    HW234420   0.126   0.790   1.842
 7598SOL     OW34421   2.430   1.948   5.807
 7598SOL    HW134422   2.367   1.947   5.735
 7598SOL    HW234423   2.499   1.888   5.778
 7599SOL     OW34424   1.273   0.371   8.250
 7599SOL    HW134425   1.296   0.362   8.158
 7599SOL    HW234426   1.190   0.323   8.258
 7600SOL     OW34427   2.580   1.615   7.257
 7600SOL    HW134428   2.653   1.559   7.283
 7600SOL    HW234429   2.562   1.591   7.166
 7601SOL     OW34430   3.662   3.005  19.566
 7601SOL    HW134431   3.595   2.956  19.518
 7601SOL    HW234432   3.714   3.048  19.498
 7602SOL     OW34433   4.033   2.448   2.367
 7602SOL    HW134434   3.944   2.413   2.373
 7602SOL    HW234435   4.080   2.384   2.314
 7603SOL     OW34436   4.721   3.693  23.601
 7603SOL    HW134437   4.745   3.669  23.691
 7603SOL    HW234438   4.688   3.783  23.608
 7604SOL     OW34439   2.861   2.902   3.806
 7604SOL    HW134440   2.951   2.876   3.786
 7604SOL    HW234441   2.813   2.889   3.724
 7605SOL     OW34442   2.229   1.045   0.952
 7605SOL    HW134443   2.203   1.001   0.871
 7605SOL    HW234444   2.173   1.122   0.957
 7606SOL     OW34445   4.206   1.086   0.749
 7606SOL    HW134446   4.255   1.006   0.730
 7606SOL    HW234447   4.138   1.090   0.682
 7607SOL     OW34448   0.860   0.709   3.503
 7607SOL    HW134449   0.906   0.766   3.565
 7607SOL    HW234450   0.930   0.663   3.457
 7608SOL     OW34451   2.702   0.110  23.583
 7608SOL    HW134452   2.676   0.079  23.496
 7608SOL    HW234453   2.677   0.202  23.584
 7609SOL     OW34454   4.352   3.009   2.480
 7609SOL    HW134455   4.263   3.040   2.463
 7609SOL    HW234456   4.344   2.914   2.479
 7610SOL     OW34457   0.749   0.870   7.428
 7610SOL    HW134458   0.755   0.884   7.334
 7610SOL    HW234459   0.722   0.955   7.464
 7611SOL     OW34460   3.565   3.713  19.644
 7611SOL    HW134461   3.525   3.782  19.591
 7611SOL    HW234462   3.618   3.663  19.582
 7612SOL     OW34463   1.357   2.801   3.192
 7612SOL    HW134464   1.354   2.725   3.251
 7612SOL    HW234465   1.272   2.843   3.203
 7613SOL     OW34466   4.483   0.078  27.397
 7613SOL    HW134467   4.428   0.121  27.331
 7613SOL    HW234468   4.468   4.765  27.383
 7614SOL     OW34469   4.514   0.548  21.851
 7614SOL    HW134470   4.499   0.527  21.759
 7614SOL    HW234471   4.427   0.569  21.885
 7615SOL     OW34472   1.846   3.858  26.107
 7615SOL    HW134473   1.758   3.879  26.139
 7615SOL    HW234474   1.878   3.790  26.167
 7616SOL     OW34475   3.819   0.656  10.242
 7616SOL    HW134476   3.748   0.719  10.227
 7616SOL    HW234477   3.783   0.572  10.214
 7617SOL     OW34478   0.839   3.368   3.390
 7617SOL    HW134479   0.889   3.445   3.417
 7617SOL    HW234480   0.905   3.304   3.363
 7618SOL     OW34481   2.395   2.222  10.680
 7618SOL    HW134482   2.442   2.302  10.656
 7618SOL    HW234483   2.343   2.201  10.603
 7619SOL     OW34484   1.329   0.962  23.563
 7619SOL    HW134485   1.260   1.024  23.585
 7619SOL    HW234486   1.297   0.918  23.484
 7620SOL     OW34487   0.186   4.278   8.465
 7620SOL    HW134488   0.170   4.243   8.378
 7620SOL    HW234489   0.219   4.203   8.515
 7621SOL     OW34490   1.939   3.627   9.949
 7621SOL    HW134491   1.912   3.563   9.883
 7621SOL    HW234492   1.921   3.712   9.909
 7622SOL     OW34493   1.273   4.600   1.659
 7622SOL    HW134494   1.301   4.667   1.721
 7622SOL    HW234495   1.354   4.574   1.614
 7623SOL     OW34496   4.313   3.528   3.267
 7623SOL    HW134497   4.384   3.510   3.205
 7623SOL    HW234498   4.256   3.590   3.221
 7624SOL     OW34499   1.710   4.334  26.022
 7624SOL    HW134500   1.674   4.245  26.022
 7624SOL    HW234501   1.687   4.370  25.936
 7625SOL     OW34502   2.531   1.050   3.881
 7625SOL    HW134503   2.505   1.125   3.934
 7625SOL    HW234504   2.617   1.073   3.846
 7626SOL     OW34505   0.602   1.213  12.770
 7626SOL    HW134506   0.551   1.203  12.851
 7626SOL    HW234507   0.647   1.129  12.760
 7627SOL     OW34508   3.418   1.717  23.288
 7627SOL    HW134509   3.416   1.809  23.316
 7627SOL    HW234510   3.415   1.667  23.370
 7628SOL     OW34511   1.418   3.248   3.122
 7628SOL    HW134512   1.439   3.334   3.158
 7628SOL    HW234513   1.382   3.267   3.035
 7629SOL     OW34514   2.727   1.569   9.083
 7629SOL    HW134515   2.753   1.505   9.016
 7629SOL    HW234516   2.668   1.520   9.141
 7630SOL     OW34517   2.827   4.134   9.517
 7630SOL    HW134518   2.735   4.160   9.526
 7630SOL    HW234519   2.839   4.066   9.584
 7631SOL     OW34520   2.813   0.600   0.140
 7631SOL    HW134521   2.796   0.571   0.230
 7631SOL    HW234522   2.781   0.528   0.085
 7632SOL     OW34523   0.701   2.277   2.659
 7632SOL    HW134524   0.633   2.243   2.601
 7632SOL    HW234525   0.653   2.315   2.733
 7633SOL     OW34526   4.511   2.497  20.858
 7633SOL    HW134527   4.446   2.440  20.900
 7633SOL    HW234528   4.481   2.503  20.767
 7634SOL     OW34529   4.732   2.323   0.388
 7634SOL    HW134530   4.643   2.353   0.408
 7634SOL    HW234531   0.009   2.384   0.435
 7635SOL     OW34532   0.976   0.823  20.563
 7635SOL    HW134533   1.025   0.845  20.642
 7635SOL    HW234534   0.885   0.838  20.587
 7636SOL     OW34535   2.328   2.446   7.275
 7636SOL    HW134536   2.233   2.445   7.268
 7636SOL    HW234537   2.345   2.486   7.360
 7637SOL     OW34538   0.924   4.743  19.952
 7637SOL    HW134539   0.975   4.763  20.031
 7637SOL    HW234540   0.914   0.047  19.908
 7638SOL     OW34541   2.656   1.792  23.081
 7638SOL    HW134542   2.682   1.817  22.992
 7638SOL    HW234543   2.659   1.696  23.080
 7639SOL     OW34544   4.106   0.703   5.036
 7639SOL    HW134545   4.177   0.746   4.988
 7639SOL    HW234546   4.124   0.609   5.028
 7640SOL     OW34547   1.610   4.593  26.108
 7640SOL    HW134548   1.529   4.567  26.151
 7640SOL    HW234549   1.658   4.511  26.096
 7641SOL     OW34550   3.680   1.877  18.556
 7641SOL    HW134551   3.757   1.826  18.580
 7641SOL    HW234552   3.712   1.940  18.492
 7642SOL     OW34553   0.081   2.225   0.677
 7642SOL    HW134554   0.101   2.278   0.754
 7642SOL    HW234555   0.003   2.266   0.639
 7643SOL     OW34556   2.934   1.657   1.226
 7643SOL    HW134557   3.015   1.706   1.242
 7643SOL    HW234558   2.935   1.586   1.290
 7644SOL     OW34559   1.106   4.439  23.730
 7644SOL    HW134560   1.147   4.525  23.741
 7644SOL    HW234561   1.092   4.407  23.819
 7645SOL     OW34562   3.760   3.110   2.368
 7645SOL    HW134563   3.780   3.132   2.459
 7645SOL    HW234564   3.673   3.069   2.371
 7646SOL     OW34565   3.660   0.837  25.247
 7646SOL    HW134566   3.684   0.787  25.169
 7646SOL    HW234567   3.566   0.824  25.256
 7647SOL     OW34568   2.551   0.881  28.327
 7647SOL    HW134569   2.592   0.925  28.402
 7647SOL    HW234570   2.610   0.809  28.306
 7648SOL     OW34571   3.800   3.515   6.352
 7648SOL    HW134572   3.792   3.520   6.447
 7648SOL    HW234573   3.808   3.606   6.323
 7649SOL     OW34574   2.193   2.879  19.751
 7649SOL    HW134575   2.254   2.931  19.803
 7649SOL    HW234576   2.170   2.805  19.808
 7650SOL     OW34577   2.339   1.313  19.030
 7650SOL    HW134578   2.371   1.372  19.099
 7650SOL    HW234579   2.251   1.345  19.009
 7651SOL     OW34580   4.421   0.165  26.012
 7651SOL    HW134581   4.372   0.100  26.062
 7651SOL    HW234582   4.507   0.167  26.053
 7652SOL     OW34583   4.366   1.595  17.415
 7652SOL    HW134584   4.306   1.670  17.417
 7652SOL    HW234585   4.412   1.603  17.331
 7653SOL     OW34586   0.934   0.343   2.671
 7653SOL    HW134587   0.947   0.395   2.592
 7653SOL    HW234588   0.884   0.400   2.729
 7654SOL     OW34589   2.587   1.203  19.001
 7654SOL    HW134590   2.500   1.242  19.010
 7654SOL    HW234591   2.617   1.229  18.914
 7655SOL     OW34592   2.966   4.429   5.581
 7655SOL    HW134593   2.881   4.385   5.584
 7655SOL    HW234594   3.015   4.383   5.513
 7656SOL     OW34595   1.231   1.027  28.120
 7656SOL    HW134596   1.170   0.955  28.137
 7656SOL    HW234597   1.311   1.002  28.167
 7657SOL     OW34598   2.327   3.390  23.741
 7657SOL    HW134599   2.386   3.376  23.815
 7657SOL    HW234600   2.263   3.453  23.773
 7658SOL     OW34601   4.175   2.899   0.682
 7658SOL    HW134602   4.266   2.899   0.653
 7658SOL    HW234603   4.154   2.991   0.695
 7659SOL     OW34604   0.313   2.879   4.106
 7659SOL    HW134605   0.309   2.851   4.197
 7659SOL    HW234606   0.394   2.930   4.100
 7660SOL     OW34607   2.960   4.673   2.622
 7660SOL    HW134608   3.042   4.699   2.579
 7660SOL    HW234609   2.926   4.601   2.569
 7661SOL     OW34610   4.744   3.617   9.553
 7661SOL    HW134611   4.694   3.539   9.528
 7661SOL    HW234612   0.050   3.604   9.515
 7662SOL     OW34613   0.326   3.244   5.719
 7662SOL    HW134614   0.261   3.178   5.745
 7662SOL    HW234615   0.401   3.193   5.688
 7663SOL     OW34616   2.155   1.676   4.753
 7663SOL    HW134617   2.071   1.709   4.786
 7663SOL    HW234618   2.205   1.755   4.731
 7664SOL     OW34619   0.498   3.573  25.480
 7664SOL    HW134620   0.586   3.548  25.453
 7664SOL    HW234621   0.458   3.492  25.511
 7665SOL     OW34622   2.128   0.224   6.798
 7665SOL    HW134623   2.086   0.142   6.824
 7665SOL    HW234624   2.221   0.204   6.796
 7666SOL     OW34625   0.185   3.590   0.857
 7666SOL    HW134626   0.240   3.659   0.894
 7666SOL    HW234627   0.139   3.552   0.932
 7667SOL     OW34628   1.186   4.172  23.913
 7667SOL    HW134629   1.103   4.163  23.960
 7667SOL    HW234630   1.214   4.082  23.896
 7668SOL     OW34631   4.098   4.461   8.621
 7668SOL    HW134632   4.067   4.531   8.678
 7668SOL    HW234633   4.120   4.505   8.539
 7669SOL     OW34634   0.592   2.216  23.312
 7669SOL    HW134635   0.584   2.256  23.225
 7669SOL    HW234636   0.571   2.286  23.373
 7670SOL     OW34637   1.099   3.921  25.703
 7670SOL    HW134638   1.151   3.899  25.781
 7670SOL    HW234639   1.116   3.849  25.642
 7671SOL     OW34640   1.853   2.689   9.198
 7671SOL    HW134641   1.859   2.760   9.134
 7671SOL    HW234642   1.761   2.688   9.224
 7672SOL     OW34643   2.436   4.310   3.537
 7672SOL    HW134644   2.351   4.323   3.495
 7672SOL    HW234645   2.429   4.356   3.621
 7673SOL     OW34646   0.609   2.989   2.836
 7673SOL    HW134647   0.690   2.984   2.785
 7673SOL    HW234648   0.573   3.075   2.814
 7674SOL     OW34649   0.543   3.619   8.552
 7674SOL    HW134650   0.579   3.544   8.599
 7674SOL    HW234651   0.466   3.645   8.602
 7675SOL     OW34652   2.504   4.221   4.570
 7675SOL    HW134653   2.500   4.281   4.644
 7675SOL    HW234654   2.466   4.139   4.603
 7676SOL     OW34655   1.501   0.643  22.092
 7676SOL    HW134656   1.537   0.561  22.058
 7676SOL    HW234657   1.412   0.646  22.057
 7677SOL     OW34658   0.745   2.097  24.394
 7677SOL    HW134659   0.797   2.025  24.359
 7677SOL    HW234660   0.781   2.112  24.482
 7678SOL     OW34661   1.789   1.432   7.484
 7678SOL    HW134662   1.743   1.484   7.418
 7678SOL    HW234663   1.829   1.497   7.542
 7679SOL     OW34664   2.180   4.621  10.797
 7679SOL    HW134665   2.188   4.716  10.808
 7679SOL    HW234666   2.164   4.588  10.885
 7680SOL     OW34667   2.083   3.672   0.717
 7680SOL    HW134668   2.133   3.591   0.708
 7680SOL    HW234669   1.994   3.643   0.739
 7681SOL     OW34670   1.647   0.116   3.517
 7681SOL    HW134671   1.632   0.068   3.435
 7681SOL    HW234672   1.742   0.125   3.523
 7682SOL     OW34673   0.127   1.688  18.283
 7682SOL    HW134674   0.169   1.643  18.356
 7682SOL    HW234675   0.184   1.763  18.265
 7683SOL     OW34676   2.231   0.401   7.628
 7683SOL    HW134677   2.307   0.344   7.616
 7683SOL    HW234678   2.187   0.366   7.705
 7684SOL     OW34679   3.851   0.042   3.444
 7684SOL    HW134680   3.893   0.077   3.523
 7684SOL    HW234681   3.871   0.107   3.376
 7685SOL     OW34682   2.177   0.453   1.050
 7685SOL    HW134683   2.141   0.478   0.965
 7685SOL    HW234684   2.100   0.436   1.104
 7686SOL     OW34685   0.675   3.101   7.308
 7686SOL    HW134686   0.692   3.164   7.238
 7686SOL    HW234687   0.582   3.111   7.328
 7687SOL     OW34688   4.455   4.069  25.875
 7687SOL    HW134689   4.395   4.003  25.910
 7687SOL    HW234690   4.529   4.019  25.842
 7688SOL     OW34691   3.805   0.361  24.484
 7688SOL    HW134692   3.775   0.270  24.485
 7688SOL    HW234693   3.731   0.410  24.448
 7689SOL     OW34694   1.936   1.980  22.002
 7689SOL    HW134695   1.947   2.070  22.034
 7689SOL    HW234696   1.969   1.925  22.073
 7690SOL     OW34697   0.818   2.117   3.181
 7690SOL    HW134698   0.779   2.046   3.130
 7690SOL    HW234699   0.746   2.179   3.194
 7691SOL     OW34700   3.355   0.285  20.508
 7691SOL    HW134701   3.339   0.204  20.556
 7691SOL    HW234702   3.438   0.318  20.543
 7692SOL     OW34703   3.937   1.952   8.132
 7692SOL    HW134704   3.903   1.943   8.221
 7692SOL    HW234705   3.972   1.865   8.110
 7693SOL     OW34706   2.030   0.102  20.715
 7693SOL    HW134707   2.031   0.075  20.807
 7693SOL    HW234708   2.001   0.193  20.717
 7694SOL     OW34709   4.594   2.669  21.212
 7694SOL    HW134710   4.623   2.688  21.123
 7694SOL    HW234711   4.527   2.601  21.202
 7695SOL     OW34712   2.614   4.471  25.410
 7695SOL    HW134713   2.623   4.387  25.454
 7695SOL    HW234714   2.636   4.453  25.319
 7696SOL     OW34715   2.482   0.303   0.484
 7696SOL    HW134716   2.458   0.225   0.433
 7696SOL    HW234717   2.450   0.285   0.572
 7697SOL     OW34718   2.031   0.761  24.988
 7697SOL    HW134719   2.004   0.676  25.022
 7697SOL    HW234720   2.124   0.767  25.009
 7698SOL     OW34721   2.261   2.244   8.085
 7698SOL    HW134722   2.183   2.276   8.129
 7698SOL    HW234723   2.329   2.245   8.152
 7699SOL     OW34724   3.335   3.988  19.703
 7699SOL    HW134725   3.365   3.984  19.794
 7699SOL    HW234726   3.412   3.964  19.651
 7700SOL     OW34727   2.654   1.994  18.242
 7700SOL    HW134728   2.691   1.915  18.280
 7700SOL    HW234729   2.617   2.041  18.316
 7701SOL     OW34730   0.933   3.613   4.237
 7701SOL    HW134731   0.899   3.540   4.289
 7701SOL    HW234732   0.891   3.690   4.275
 7702SOL     OW34733   2.710   1.038   3.495
 7702SOL    HW134734   2.718   1.026   3.590
 7702SOL    HW234735   2.722   0.951   3.458
 7703SOL     OW34736   3.164   0.583  23.691
 7703SOL    HW134737   3.096   0.543  23.745
 7703SOL    HW234738   3.133   0.571  23.601
 7704SOL     OW34739   2.760   4.433   0.232
 7704SOL    HW134740   2.677   4.399   0.200
 7704SOL    HW234741   2.823   4.412   0.163
 7705SOL     OW34742   2.981   1.753   2.165
 7705SOL    HW134743   2.985   1.820   2.233
 7705SOL    HW234744   2.993   1.801   2.083
 7706SOL     OW34745   3.196   4.127   3.511
 7706SOL    HW134746   3.203   4.200   3.573
 7706SOL    HW234747   3.167   4.167   3.429
 7707SOL     OW34748   4.077   1.489  26.334
 7707SOL    HW134749   4.123   1.543  26.270
 7707SOL    HW234750   4.010   1.546  26.371
 7708SOL     OW34751   0.353   0.987   0.899
 7708SOL    HW134752   0.424   0.984   0.835
 7708SOL    HW234753   0.304   1.066   0.877
 7709SOL     OW34754   1.023   1.154  28.464
 7709SOL    HW134755   1.047   1.246  28.452
 7709SOL    HW234756   1.107   1.107  28.463
 7710SOL     OW34757   4.728   1.150   7.379
 7710SOL    HW134758   4.655   1.088   7.386
 7710SOL    HW234759   0.021   1.097   7.348
 7711SOL     OW34760   2.445   0.594   4.188
 7711SOL    HW134761   2.493   0.529   4.137
 7711SOL    HW234762   2.512   0.656   4.216
 7712SOL     OW34763   0.246   4.325   5.371
 7712SOL    HW134764   0.232   4.303   5.463
 7712SOL    HW234765   0.204   4.410   5.359
 7713SOL     OW34766   2.880   2.307   3.975
 7713SOL    HW134767   2.966   2.349   3.983
 7713SOL    HW234768   2.818   2.371   4.009
 7714SOL     OW34769   3.225   3.817  25.737
 7714SOL    HW134770   3.206   3.911  25.742
 7714SOL    HW234771   3.242   3.801  25.644
 7715SOL     OW34772   3.867   1.850  25.305
 7715SOL    HW134773   3.888   1.786  25.373
 7715SOL    HW234774   3.949   1.898  25.290
 7716SOL     OW34775   4.738   3.036  20.443
 7716SOL    HW134776   4.753   3.118  20.395
 7716SOL    HW234777   4.646   3.016  20.428
 7717SOL     OW34778   2.500   1.273   1.974
 7717SOL    HW134779   2.516   1.359   1.934
 7717SOL    HW234780   2.564   1.215   1.933
 7718SOL     OW34781   4.365   1.835  20.529
 7718SOL    HW134782   4.369   1.820  20.623
 7718SOL    HW234783   4.389   1.751  20.490
 7719SOL     OW34784   4.084   1.786  19.913
 7719SOL    HW134785   4.015   1.720  19.917
 7719SOL    HW234786   4.115   1.784  19.822
 7720SOL     OW34787   2.486   4.474  11.650
 7720SOL    HW134788   2.454   4.473  11.560
 7720SOL    HW234789   2.449   4.554  11.687
 7721SOL     OW34790   0.302   1.301  11.098
 7721SOL    HW134791   0.284   1.273  11.188
 7721SOL    HW234792   0.224   1.274  11.049
 7722SOL     OW34793   1.969   1.439   5.731
 7722SOL    HW134794   2.017   1.370   5.685
 7722SOL    HW234795   1.925   1.488   5.661
 7723SOL     OW34796   0.341   0.958  26.052
 7723SOL    HW134797   0.321   0.998  26.136
 7723SOL    HW234798   0.268   0.984  25.995
 7724SOL     OW34799   0.291   3.533  20.675
 7724SOL    HW134800   0.323   3.444  20.691
 7724SOL    HW234801   0.332   3.558  20.592
 7725SOL     OW34802   1.978   2.519   5.737
 7725SOL    HW134803   2.017   2.441   5.776
 7725SOL    HW234804   2.050   2.581   5.731
 7726SOL     OW34805   0.624   0.374  21.574
 7726SOL    HW134806   0.630   0.279  21.587
 7726SOL    HW234807   0.542   0.399  21.616
 7727SOL     OW34808   0.529   2.200  28.223
 7727SOL    HW134809   0.599   2.215  28.159
 7727SOL    HW234810   0.450   2.233  28.180
 7728SOL     OW34811   3.943   2.966  27.538
 7728SOL    HW134812   3.980   2.987  27.624
 7728SOL    HW234813   3.896   2.884  27.552
 7729SOL     OW34814   0.371   1.032  24.990
 7729SOL    HW134815   0.379   0.983  25.072
 7729SOL    HW234816   0.457   1.071  24.977
 7730SOL     OW34817   3.127   0.454   8.575
 7730SOL    HW134818   3.181   0.383   8.539
 7730SOL    HW234819   3.058   0.409   8.624
 7731SOL     OW34820   4.339   1.945   8.105
 7731SOL    HW134821   4.313   1.920   8.194
 7731SOL    HW234822   4.335   1.864   8.055
 7732SOL     OW34823   3.317   4.525   4.577
 7732SOL    HW134824   3.336   4.599   4.634
 7732SOL    HW234825   3.222   4.527   4.567
 7733SOL     OW34826   1.715   0.288  20.226
 7733SOL    HW134827   1.715   0.200  20.263
 7733SOL    HW234828   1.780   0.336  20.277
 7734SOL     OW34829   4.608   4.348  12.973
 7734SOL    HW134830   4.668   4.311  12.908
 7734SOL    HW234831   4.660   4.355  13.053
 7735SOL     OW34832   1.649   3.196  28.206
 7735SOL    HW134833   1.634   3.285  28.173
 7735SOL    HW234834   1.739   3.198  28.239
 7736SOL     OW34835   2.806   0.754  22.983
 7736SOL    HW134836   2.719   0.779  22.952
 7736SOL    HW234837   2.804   0.658  22.986
 7737SOL     OW34838   4.614   3.108   7.951
 7737SOL    HW134839   4.690   3.154   7.985
 7737SOL    HW234840   4.581   3.164   7.881
 7738SOL     OW34841   4.082   3.150  26.636
 7738SOL    HW134842   4.079   3.057  26.614
 7738SOL    HW234843   4.166   3.180  26.601
 7739SOL     OW34844   0.957   3.199  17.612
 7739SOL    HW134845   1.008   3.206  17.531
 7739SOL    HW234846   0.938   3.106  17.621
 7740SOL     OW34847   2.531   3.835   1.271
 7740SOL    HW134848   2.625   3.840   1.256
 7740SOL    HW234849   2.493   3.830   1.183
 7741SOL     OW34850   4.496   4.472  20.459
 7741SOL    HW134851   4.539   4.413  20.520
 7741SOL    HW234852   4.528   4.445  20.373
 7742SOL     OW34853   3.045   0.177  22.498
 7742SOL    HW134854   2.981   0.234  22.455
 7742SOL    HW234855   3.119   0.235  22.518
 7743SOL     OW34856   3.040   4.332  26.278
 7743SOL    HW134857   3.100   4.398  26.314
 7743SOL    HW234858   2.953   4.362  26.306
 7744SOL     OW34859   3.181   1.949  27.862
 7744SOL    HW134860   3.121   2.005  27.912
 7744SOL    HW234861   3.162   1.969  27.770
 7745SOL     OW34862   2.763   2.456   5.983
 7745SOL    HW134863   2.679   2.417   5.959
 7745SOL    HW234864   2.788   2.507   5.906
 7746SOL     OW34865   1.848   1.816   7.226
 7746SOL    HW134866   1.923   1.856   7.182
 7746SOL    HW234867   1.886   1.766   7.298
 7747SOL     OW34868   0.229   3.851  25.093
 7747SOL    HW134869   0.134   3.843  25.102
 7747SOL    HW234870   0.241   3.919  25.026
 7748SOL     OW34871   1.058   2.509  10.039
 7748SOL    HW134872   1.088   2.599  10.027
 7748SOL    HW234873   1.099   2.480  10.120
 7749SOL     OW34874   4.443   1.067   1.442
 7749SOL    HW134875   4.396   1.060   1.359
 7749SOL    HW234876   4.522   1.117   1.421
 7750SOL     OW34877   2.170   2.184   5.263
 7750SOL    HW134878   2.240   2.224   5.212
 7750SOL    HW234879   2.143   2.108   5.211
 7751SOL     OW34880   3.357   2.374  25.816
 7751SOL    HW134881   3.407   2.361  25.897
 7751SOL    HW234882   3.272   2.334  25.833
 7752SOL     OW34883   1.543   2.077  21.057
 7752SOL    HW134884   1.481   2.104  20.989
 7752SOL    HW234885   1.550   1.982  21.047
 7753SOL     OW34886   2.431   0.728  22.706
 7753SOL    HW134887   2.446   0.637  22.732
 7753SOL    HW234888   2.435   0.727  22.610
 7754SOL     OW34889   4.136   2.150  20.647
 7754SOL    HW134890   4.100   2.096  20.718
 7754SOL    HW234891   4.072   2.142  20.576
 7755SOL     OW34892   2.302   3.733   5.209
 7755SOL    HW134893   2.281   3.826   5.202
 7755SOL    HW234894   2.389   3.725   5.169
 7756SOL     OW34895   0.172   1.754  28.282
 7756SOL    HW134896   0.091   1.743  28.232
 7756SOL    HW234897   0.187   1.669  28.324
 7757SOL     OW34898   3.110   2.432  25.297
 7757SOL    HW134899   3.152   2.416  25.382
 7757SOL    HW234900   3.045   2.500  25.315
 7758SOL     OW34901   1.592   1.237   0.449
 7758SOL    HW134902   1.526   1.169   0.458
 7758SOL    HW234903   1.627   1.225   0.361
 7759SOL     OW34904   1.479   0.928  27.958
 7759SOL    HW134905   1.487   1.012  28.003
 7759SOL    HW234906   1.551   0.927  27.895
 7760SOL     OW34907   2.632   0.517   0.831
 7760SOL    HW134908   2.576   0.513   0.909
 7760SOL    HW234909   2.572   0.535   0.759
 7761SOL     OW34910   3.052   2.542   8.722
 7761SOL    HW134911   2.968   2.508   8.753
 7761SOL    HW234912   3.048   2.636   8.741
 7762SOL     OW34913   2.587   4.064  11.851
 7762SOL    HW134914   2.494   4.063  11.829
 7762SOL    HW234915   2.601   3.982  11.899
 7763SOL     OW34916   1.252   0.315  26.186
 7763SOL    HW134917   1.323   0.251  26.179
 7763SOL    HW234918   1.212   0.315  26.099
 7764SOL     OW34919   4.135   0.314  25.740
 7764SOL    HW134920   4.116   0.404  25.714
 7764SOL    HW234921   4.114   0.262  25.662
 7765SOL     OW34922   0.076   0.292  28.263
 7765SOL    HW134923   0.005   0.234  28.237
 7765SOL    HW234924   0.035   0.354  28.323
 7766SOL     OW34925   3.527   0.194   8.283
 7766SOL    HW134926   3.515   0.109   8.325
 7766SOL    HW234927   3.588   0.177   8.211
 7767SOL     OW34928   1.388   2.714  23.318
 7767SOL    HW134929   1.353   2.687  23.233
 7767SOL    HW234930   1.476   2.677  23.321
 7768SOL     OW34931   3.052   4.589   9.272
 7768SOL    HW134932   2.961   4.600   9.298
 7768SOL    HW234933   3.062   4.495   9.256
 7769SOL     OW34934   0.967   3.409  20.871
 7769SOL    HW134935   0.969   3.493  20.917
 7769SOL    HW234936   0.906   3.355  20.922
 7770SOL     OW34937   0.341   0.388  28.259
 7770SOL    HW134938   0.268   0.327  28.259
 7770SOL    HW234939   0.389   0.369  28.339
 7771SOL     OW34940   3.509   2.869   7.837
 7771SOL    HW134941   3.513   2.925   7.915
 7771SOL    HW234942   3.577   2.803   7.851
 7772SOL     OW34943   3.023   3.405   7.122
 7772SOL    HW134944   2.954   3.378   7.183
 7772SOL    HW234945   3.047   3.493   7.150
 7773SOL     OW34946   3.432   1.055  24.267
 7773SOL    HW134947   3.510   1.040  24.320
 7773SOL    HW234948   3.466   1.066  24.178
 7774SOL     OW34949   2.974   2.468  17.150
 7774SOL    HW134950   2.898   2.413  17.170
 7774SOL    HW234951   2.946   2.557  17.170
 7775SOL     OW34952   4.764   2.847   9.103
 7775SOL    HW134953   4.749   2.774   9.163
 7775SOL    HW234954   4.701   2.834   9.033
 7776SOL     OW34955   3.022   2.078  17.374
 7776SOL    HW134956   2.971   2.070  17.455
 7776SOL    HW234957   2.961   2.054  17.305
 7777SOL     OW34958   2.141   2.324  23.806
 7777SOL    HW134959   2.103   2.407  23.778
 7777SOL    HW234960   2.065   2.267  23.821
 7778SOL     OW34961   1.432   1.476  25.700
 7778SOL    HW134962   1.435   1.571  25.707
 7778SOL    HW234963   1.515   1.452  25.658
 7779SOL     OW34964   0.523   0.931  21.574
 7779SOL    HW134965   0.473   0.867  21.524
 7779SOL    HW234966   0.530   0.893  21.662
 7780SOL     OW34967   0.522   2.654   0.438
 7780SOL    HW134968   0.464   2.595   0.390
 7780SOL    HW234969   0.508   2.740   0.398
 7781SOL     OW34970   0.804   2.009   6.466
 7781SOL    HW134971   0.852   2.065   6.405
 7781SOL    HW234972   0.719   2.053   6.476
 7782SOL     OW34973   1.386   0.403  20.045
 7782SOL    HW134974   1.394   0.484  19.995
 7782SOL    HW234975   1.466   0.354  20.024
 7783SOL     OW34976   4.507   0.968   1.689
 7783SOL    HW134977   4.478   1.007   1.606
 7783SOL    HW234978   4.600   0.990   1.695
 7784SOL     OW34979   4.426   0.844  22.092
 7784SOL    HW134980   4.395   0.934  22.102
 7784SOL    HW234981   4.516   0.852  22.060
 7785SOL     OW34982   1.361   1.715   3.480
 7785SOL    HW134983   1.347   1.678   3.567
 7785SOL    HW234984   1.440   1.768   3.488
 7786SOL     OW34985   4.327   1.723   7.943
 7786SOL    HW134986   4.243   1.679   7.931
 7786SOL    HW234987   4.377   1.663   7.998
 7787SOL     OW34988   0.726   3.512   6.941
 7787SOL    HW134989   0.731   3.607   6.951
 7787SOL    HW234990   0.779   3.493   6.864
 7788SOL     OW34991   1.007   2.056  22.581
 7788SOL    HW134992   0.929   2.015  22.544
 7788SOL    HW234993   1.076   2.038  22.518
 7789SOL     OW34994   4.138   4.586   8.388
 7789SOL    HW134995   4.105   4.546   8.308
 7789SOL    HW234996   4.113   4.678   8.382
 7790SOL     OW34997   2.087   3.508  26.824
 7790SOL    HW134998   2.028   3.582  26.840
 7790SOL    HW234999   2.098   3.467  26.910
 7791SOL     OW35000   4.658   3.987  21.951
 7791SOL    HW135001   4.568   4.017  21.943
 7791SOL    HW235002   4.656   3.926  22.025
 7792SOL     OW35003   4.498   4.587  27.253
 7792SOL    HW135004   4.457   4.558  27.171
 7792SOL    HW235005   4.485   4.514  27.313
 7793SOL     OW35006   3.618   2.881  22.950
 7793SOL    HW135007   3.531   2.841  22.949
 7793SOL    HW235008   3.602   2.975  22.940
 7794SOL     OW35009   2.859   1.961  24.537
 7794SOL    HW135010   2.938   2.003  24.503
 7794SOL    HW235011   2.867   1.969  24.632
 7795SOL     OW35012   1.701   3.628  23.284
 7795SOL    HW135013   1.692   3.536  23.259
 7795SOL    HW235014   1.795   3.642  23.293
 7796SOL     OW35015   2.979   1.044   9.749
 7796SOL    HW135016   2.944   0.972   9.696
 7796SOL    HW235017   2.934   1.036   9.833
 7797SOL     OW35018   0.293   0.180   8.840
 7797SOL    HW135019   0.370   0.136   8.877
 7797SOL    HW235020   0.219   0.138   8.884
 7798SOL     OW35021   4.280   2.028  23.581
 7798SOL    HW135022   4.338   2.051  23.653
 7798SOL    HW235023   4.336   1.983  23.518
 7799SOL     OW35024   1.398   0.430   4.096
 7799SOL    HW135025   1.429   0.462   4.181
 7799SOL    HW235026   1.360   0.344   4.116
 7800SOL     OW35027   2.617   3.264  21.577
 7800SOL    HW135028   2.600   3.288  21.486
 7800SOL    HW235029   2.709   3.287  21.591
 7801SOL     OW35030   1.160   4.760  21.615
 7801SOL    HW135031   1.199   0.060  21.581
 7801SOL    HW235032   1.228   4.694  21.604
 7802SOL     OW35033   0.162   1.509  28.395
 7802SOL    HW135034   0.253   1.485  28.413
 7802SOL    HW235035   0.145   1.475  28.307
 7803SOL     OW35036   0.941   1.185  25.778
 7803SOL    HW135037   0.983   1.173  25.693
 7803SOL    HW235038   0.892   1.104  25.792
 7804SOL     OW35039   1.496   1.494   6.384
 7804SOL    HW135040   1.431   1.538   6.438
 7804SOL    HW235041   1.575   1.547   6.393
 7805SOL     OW35042   2.735   2.628  24.830
 7805SOL    HW135043   2.664   2.564  24.836
 7805SOL    HW235044   2.770   2.616  24.742
 7806SOL     OW35045   3.359   0.107  25.393
 7806SOL    HW135046   3.352   0.187  25.341
 7806SOL    HW235047   3.405   0.046  25.335
 7807SOL     OW35048   1.564   4.456   5.040
 7807SOL    HW135049   1.472   4.482   5.039
 7807SOL    HW235050   1.596   4.480   4.953
 7808SOL     OW35051   1.997   1.921  21.108
 7808SOL    HW135052   1.989   1.985  21.037
 7808SOL    HW235053   1.957   1.964  21.184
 7809SOL     OW35054   1.587   1.906   7.299
 7809SOL    HW135055   1.552   1.978   7.246
 7809SOL    HW235056   1.679   1.901   7.275
 7810SOL     OW35057   1.711   2.737  23.842
 7810SOL    HW135058   1.698   2.657  23.893
 7810SOL    HW235059   1.635   2.791  23.862
 7811SOL     OW35060   1.925   3.925  27.878
 7811SOL    HW135061   1.927   3.830  27.893
 7811SOL    HW235062   1.832   3.947  27.874
 7812SOL     OW35063   1.157   3.401   0.566
 7812SOL    HW135064   1.151   3.430   0.657
 7812SOL    HW235065   1.220   3.329   0.567
 7813SOL     OW35066   2.939   2.833   5.290
 7813SOL    HW135067   3.010   2.854   5.230
 7813SOL    HW235068   2.970   2.755   5.337
 7814SOL     OW35069   3.119   1.682   3.515
 7814SOL    HW135070   3.105   1.597   3.473
 7814SOL    HW235071   3.078   1.746   3.456
 7815SOL     OW35072   2.961   3.992   2.899
 7815SOL    HW135073   3.044   3.996   2.851
 7815SOL    HW235074   2.918   3.913   2.866
 7816SOL     OW35075   1.033   1.124  25.532
 7816SOL    HW135076   1.073   1.154  25.450
 7816SOL    HW235077   0.950   1.085  25.505
 7817SOL     OW35078   0.073   4.196  22.601
 7817SOL    HW135079   0.104   4.275  22.556
 7817SOL    HW235080   0.150   4.140  22.607
 7818SOL     OW35081   4.079   4.484  17.197
 7818SOL    HW135082   4.147   4.463  17.261
 7818SOL    HW235083   3.997   4.466  17.242
 7819SOL     OW35084   2.577   4.094  22.156
 7819SOL    HW135085   2.614   4.006  22.157
 7819SOL    HW235086   2.651   4.150  22.134
 7820SOL     OW35087   2.763   0.310  26.307
 7820SOL    HW135088   2.709   0.355  26.372
 7820SOL    HW235089   2.720   0.226  26.294
 7821SOL     OW35090   1.669   0.822  28.475
 7821SOL    HW135091   1.697   0.910  28.450
 7821SOL    HW235092   1.741   0.765  28.447
 7822SOL     OW35093   1.467   3.672   5.044
 7822SOL    HW135094   1.432   3.692   4.957
 7822SOL    HW235095   1.420   3.731   5.103
 7823SOL     OW35096   2.198   1.030  25.067
 7823SOL    HW135097   2.209   1.078  25.149
 7823SOL    HW235098   2.232   0.942  25.086
 7824SOL     OW35099   2.421   1.669  20.534
 7824SOL    HW135100   2.445   1.691  20.444
 7824SOL    HW235101   2.465   1.735  20.587
 7825SOL     OW35102   2.393   3.604   2.010
 7825SOL    HW135103   2.351   3.688   1.994
 7825SOL    HW235104   2.320   3.542   2.018
 7826SOL     OW35105   1.105   0.019   4.949
 7826SOL    HW135106   1.125   0.021   4.855
 7826SOL    HW235107   1.151   0.095   4.985
 7827SOL     OW35108   1.066   2.085   2.543
 7827SOL    HW135109   1.155   2.100   2.575
 7827SOL    HW235110   1.039   2.003   2.584
 7828SOL     OW35111   2.899   3.039   7.103
 7828SOL    HW135112   2.883   2.956   7.059
 7828SOL    HW235113   2.825   3.094   7.077
 7829SOL     OW35114   1.070   3.884  27.230
 7829SOL    HW135115   1.103   3.837  27.154
 7829SOL    HW235116   1.054   3.973  27.198
 7830SOL     OW35117   0.342   2.022  12.854
 7830SOL    HW135118   0.266   2.013  12.911
 7830SOL    HW235119   0.411   1.974  12.899
 7831SOL     OW35120   0.383   2.956  24.347
 7831SOL    HW135121   0.453   3.011  24.384
 7831SOL    HW235122   0.303   2.988  24.389
 7832SOL     OW35123   1.748   2.217   3.795
 7832SOL    HW135124   1.653   2.215   3.787
 7832SOL    HW235125   1.778   2.246   3.709
 7833SOL     OW35126   2.781   2.960   4.796
 7833SOL    HW135127   2.781   2.926   4.886
 7833SOL    HW235128   2.810   3.051   4.805
 7834SOL     OW35129   3.846   2.404  21.637
 7834SOL    HW135130   3.920   2.455  21.670
 7834SOL    HW235131   3.791   2.468  21.593
 7835SOL     OW35132   2.223   0.386   1.921
 7835SOL    HW135133   2.176   0.414   1.843
 7835SOL    HW235134   2.166   0.319   1.960
 7836SOL     OW35135   1.503   2.199  25.795
 7836SOL    HW135136   1.588   2.227  25.761
 7836SOL    HW235137   1.444   2.202  25.720
 7837SOL     OW35138   3.157   3.594   7.294
 7837SOL    HW135139   3.184   3.652   7.365
 7837SOL    HW235140   3.200   3.511   7.314
 7838SOL     OW35141   1.398   1.153   6.094
 7838SOL    HW135142   1.478   1.194   6.125
 7838SOL    HW235143   1.363   1.214   6.029
 7839SOL     OW35144   0.739   1.740   8.913
 7839SOL    HW135145   0.648   1.721   8.936
 7839SOL    HW235146   0.752   1.695   8.829
 7840SOL     OW35147   1.439   1.618   1.765
 7840SOL    HW135148   1.459   1.544   1.823
 7840SOL    HW235149   1.430   1.579   1.678
 7841SOL     OW35150   4.487   1.729  20.237
 7841SOL    HW135151   4.496   1.824  20.232
 7841SOL    HW235152   4.422   1.708  20.170
 7842SOL     OW35153   3.088   2.608  26.262
 7842SOL    HW135154   3.012   2.552  26.244
 7842SOL    HW235155   3.054   2.697  26.254
 7843SOL     OW35156   1.602   2.230   6.192
 7843SOL    HW135157   1.622   2.165   6.125
 7843SOL    HW235158   1.687   2.266   6.216
 7844SOL     OW35159   4.481   2.305   3.505
 7844SOL    HW135160   4.415   2.237   3.519
 7844SOL    HW235161   4.443   2.384   3.544
 7845SOL     OW35162   1.784   1.628  24.305
 7845SOL    HW135163   1.819   1.539  24.313
 7845SOL    HW235164   1.692   1.615  24.282
 7846SOL     OW35165   2.996   3.405  22.417
 7846SOL    HW135166   2.909   3.437  22.394
 7846SOL    HW235167   2.980   3.324  22.465
 7847SOL     OW35168   4.425   2.465   7.164
 7847SOL    HW135169   4.510   2.436   7.198
 7847SOL    HW235170   4.384   2.510   7.238
 7848SOL     OW35171   3.165   2.096   5.882
 7848SOL    HW135172   3.129   2.099   5.971
 7848SOL    HW235173   3.218   2.175   5.875
 7849SOL     OW35174   4.698   0.305  20.299
 7849SOL    HW135175   4.657   0.326  20.383
 7849SOL    HW235176   4.775   0.362  20.295
 7850SOL     OW35177   3.607   0.440   6.323
 7850SOL    HW135178   3.651   0.512   6.368
 7850SOL    HW235179   3.559   0.482   6.252
 7851SOL     OW35180   0.407   4.225   7.276
 7851SOL    HW135181   0.370   4.311   7.296
 7851SOL    HW235182   0.467   4.241   7.204
 7852SOL     OW35183   3.819   3.232   3.936
 7852SOL    HW135184   3.819   3.225   4.032
 7852SOL    HW235185   3.804   3.143   3.906
 7853SOL     OW35186   2.023   1.146  23.136
 7853SOL    HW135187   2.062   1.211  23.195
 7853SOL    HW235188   2.031   1.185  23.049
 7854SOL     OW35189   3.164   4.334   7.488
 7854SOL    HW135190   3.200   4.259   7.535
 7854SOL    HW235191   3.116   4.383   7.554
 7855SOL     OW35192   3.323   2.501  22.361
 7855SOL    HW135193   3.301   2.514  22.269
 7855SOL    HW235194   3.365   2.583  22.387
 7856SOL     OW35195   2.326   0.203   1.415
 7856SOL    HW135196   2.317   0.184   1.508
 7856SOL    HW235197   2.274   0.135   1.371
 7857SOL     OW35198   0.699   3.594  20.823
 7857SOL    HW135199   0.624   3.648  20.848
 7857SOL    HW235200   0.680   3.507  20.858
 7858SOL     OW35201   1.454   4.345  22.113
 7858SOL    HW135202   1.415   4.377  22.031
 7858SOL    HW235203   1.526   4.289  22.085
 7859SOL     OW35204   0.630   2.938  22.234
 7859SOL    HW135205   0.557   2.878  22.217
 7859SOL    HW235206   0.600   2.993  22.307
 7860SOL     OW35207   1.855   4.645   7.746
 7860SOL    HW135208   1.931   4.659   7.689
 7860SOL    HW235209   1.893   4.614   7.828
 7861SOL     OW35210   1.802   3.745   0.233
 7861SOL    HW135211   1.782   3.652   0.243
 7861SOL    HW235212   1.847   3.769   0.314
 7862SOL     OW35213   0.855   3.825  23.208
 7862SOL    HW135214   0.889   3.737  23.192
 7862SOL    HW235215   0.922   3.883  23.172
 7863SOL     OW35216   0.001   4.663  20.620
 7863SOL    HW135217   4.700   4.628  20.656
 7863SOL    HW235218   4.779   4.756  20.642
 7864SOL     OW35219   2.474   4.255  11.333
 7864SOL    HW135220   2.547   4.246  11.271
 7864SOL    HW235221   2.463   4.349  11.343
 7865SOL     OW35222   4.276   4.311   5.528
 7865SOL    HW135223   4.210   4.297   5.460
 7865SOL    HW235224   4.343   4.244   5.511
 7866SOL     OW35225   1.816   0.473  12.497
 7866SOL    HW135226   1.869   0.533  12.550
 7866SOL    HW235227   1.726   0.496  12.519
 7867SOL     OW35228   2.983   2.320   8.270
 7867SOL    HW135229   2.907   2.340   8.325
 7867SOL    HW235230   3.047   2.388   8.292
 7868SOL     OW35231   0.095   0.805  27.749
 7868SOL    HW135232   0.043   0.884  27.762
 7868SOL    HW235233   0.169   0.815  27.809
 7869SOL     OW35234   0.815   4.254  25.530
 7869SOL    HW135235   0.724   4.281  25.519
 7869SOL    HW235236   0.812   4.158  25.532
 7870SOL     OW35237   4.246   1.751   3.244
 7870SOL    HW135238   4.232   1.746   3.339
 7870SOL    HW235239   4.266   1.661   3.218
 7871SOL     OW35240   3.214   2.895  21.649
 7871SOL    HW135241   3.226   2.968  21.710
 7871SOL    HW235242   3.194   2.820  21.705
 7872SOL     OW35243   1.457   1.534   6.745
 7872SOL    HW135244   1.483   1.618   6.782
 7872SOL    HW235245   1.460   1.548   6.650
 7873SOL     OW35246   3.753   0.107  24.499
 7873SOL    HW135247   3.688   0.085  24.432
 7873SOL    HW235248   3.831   0.058  24.473
 7874SOL     OW35249   0.974   1.552  21.058
 7874SOL    HW135250   0.916   1.498  21.111
 7874SOL    HW235251   1.020   1.606  21.122
 7875SOL     OW35252   1.192   0.208  24.451
 7875SOL    HW135253   1.262   0.250  24.501
 7875SOL    HW235254   1.143   0.158  24.516
 7876SOL     OW35255   4.450   4.589   1.640
 7876SOL    HW135256   4.420   4.520   1.700
 7876SOL    HW235257   4.461   4.666   1.695
 7877SOL     OW35258   1.569   1.714  26.357
 7877SOL    HW135259   1.645   1.703  26.414
 7877SOL    HW235260   1.541   1.805  26.370
 7878SOL     OW35261   2.121   3.196  24.553
 7878SOL    HW135262   2.094   3.146  24.630
 7878SOL    HW235263   2.099   3.287  24.574
 7879SOL     OW35264   1.345   1.968  20.573
 7879SOL    HW135265   1.327   1.900  20.508
 7879SOL    HW235266   1.397   1.924  20.640
 7880SOL     OW35267   3.329   3.877   3.018
 7880SOL    HW135268   3.324   3.784   2.996
 7880SOL    HW235269   3.416   3.889   3.055
 7881SOL     OW35270   3.411   2.464  19.934
 7881SOL    HW135271   3.477   2.484  19.867
 7881SOL    HW235272   3.386   2.549  19.969
 7882SOL     OW35273   1.655   1.038  27.756
 7882SOL    HW135274   1.728   1.088  27.719
 7882SOL    HW235275   1.579   1.067  27.706
 7883SOL     OW35276   1.522   2.967  22.487
 7883SOL    HW135277   1.457   3.031  22.516
 7883SOL    HW235278   1.543   2.917  22.566
 7884SOL     OW35279   3.229   2.554   9.815
 7884SOL    HW135280   3.167   2.627   9.811
 7884SOL    HW235281   3.202   2.503   9.891
 7885SOL     OW35282   4.072   1.405   7.553
 7885SOL    HW135283   4.097   1.381   7.642
 7885SOL    HW235284   4.128   1.351   7.497
 7886SOL     OW35285   0.706   1.813   1.541
 7886SOL    HW135286   0.660   1.741   1.585
 7886SOL    HW235287   0.700   1.791   1.448
 7887SOL     OW35288   4.152   2.477   8.551
 7887SOL    HW135289   4.233   2.426   8.560
 7887SOL    HW235290   4.083   2.417   8.577
 7888SOL     OW35291   0.637   1.173   2.830
 7888SOL    HW135292   0.595   1.108   2.773
 7888SOL    HW235293   0.693   1.121   2.888
 7889SOL     OW35294   4.623   2.030   0.422
 7889SOL    HW135295   4.719   2.030   0.423
 7889SOL    HW235296   4.600   2.043   0.330
 7890SOL     OW35297   4.139   1.040   3.708
 7890SOL    HW135298   4.092   1.030   3.791
 7890SOL    HW235299   4.202   0.968   3.707
 7891SOL     OW35300   3.102   2.094  18.800
 7891SOL    HW135301   3.153   2.014  18.787
 7891SOL    HW235302   3.096   2.133  18.713
 7892SOL     OW35303   4.226   4.294   5.986
 7892SOL    HW135304   4.163   4.297   5.914
 7892SOL    HW235305   4.203   4.214   6.034
 7893SOL     OW35306   1.093   3.161  27.882
 7893SOL    HW135307   1.088   3.157  27.786
 7893SOL    HW235308   1.057   3.247  27.905
 7894SOL     OW35309   1.339   1.150  21.462
 7894SOL    HW135310   1.391   1.092  21.406
 7894SOL    HW235311   1.251   1.112  21.460
 7895SOL     OW35312   4.024   4.585   6.497
 7895SOL    HW135313   4.047   4.677   6.508
 7895SOL    HW235314   4.102   4.545   6.459
 7896SOL     OW35315   0.989   1.554   2.152
 7896SOL    HW135316   1.082   1.574   2.159
 7896SOL    HW235317   0.945   1.630   2.190
 7897SOL     OW35318   1.233   3.927  26.818
 7897SOL    HW135319   1.204   3.958  26.732
 7897SOL    HW235320   1.308   3.983  26.840
 7898SOL     OW35321   4.438   1.460   0.033
 7898SOL    HW135322   4.353   1.441   0.073
 7898SOL    HW235323   4.457   1.550   0.059
 7899SOL     OW35324   2.436   3.918  26.611
 7899SOL    HW135325   2.391   3.904  26.694
 7899SOL    HW235326   2.529   3.905  26.631
 7900SOL     OW35327   2.734   4.546  10.391
 7900SOL    HW135328   2.784   4.530  10.471
 7900SOL    HW235329   2.782   4.615  10.346
 7901SOL     OW35330   3.946   4.607   8.115
 7901SOL    HW135331   3.892   4.626   8.039
 7901SOL    HW235332   3.926   4.516   8.137
 7902SOL     OW35333   1.330   1.445   8.621
 7902SOL    HW135334   1.272   1.466   8.548
 7902SOL    HW235335   1.327   1.349   8.627
 7903SOL     OW35336   0.233   4.357  23.789
 7903SOL    HW135337   0.271   4.380  23.704
 7903SOL    HW235338   0.165   4.423  23.803
 7904SOL     OW35339   3.498   0.299  27.318
 7904SOL    HW135340   3.502   0.307  27.413
 7904SOL    HW235341   3.567   0.358  27.286
 7905SOL     OW35342   0.089   2.088   8.410
 7905SOL    HW135343   0.065   2.180   8.403
 7905SOL    HW235344   0.183   2.089   8.428
 7906SOL     OW35345   1.023   3.594   3.323
 7906SOL    HW135346   1.088   3.598   3.393
 7906SOL    HW235347   1.065   3.543   3.254
 7907SOL     OW35348   2.609   4.498  21.392
 7907SOL    HW135349   2.674   4.468  21.329
 7907SOL    HW235350   2.613   4.594  21.387
 7908SOL     OW35351   3.465   0.446   5.004
 7908SOL    HW135352   3.451   0.365   4.955
 7908SOL    HW235353   3.558   0.445   5.025
 7909SOL     OW35354   1.303   3.121   5.511
 7909SOL    HW135355   1.250   3.109   5.590
 7909SOL    HW235356   1.344   3.036   5.497
 7910SOL     OW35357   2.061   0.380   7.857
 7910SOL    HW135358   2.114   0.427   7.921
 7910SOL    HW235359   2.071   0.288   7.880
 7911SOL     OW35360   4.398   2.186  24.750
 7911SOL    HW135361   4.447   2.232  24.682
 7911SOL    HW235362   4.315   2.162  24.708
 7912SOL     OW35363   0.946   1.378   5.555
 7912SOL    HW135364   0.997   1.351   5.479
 7912SOL    HW235365   0.898   1.299   5.581
 7913SOL     OW35366   4.666   4.572   8.717
 7913SOL    HW135367   4.714   4.635   8.663
 7913SOL    HW235368   4.659   4.494   8.663
 7914SOL     OW35369   4.024   2.171   4.508
 7914SOL    HW135370   3.932   2.146   4.503
 7914SOL    HW235371   4.067   2.115   4.443
 7915SOL     OW35372   4.738   3.050  22.988
 7915SOL    HW135373   4.745   3.141  22.958
 7915SOL    HW235374   4.691   3.005  22.918
 7916SOL     OW35375   1.241   0.896   6.409
 7916SOL    HW135376   1.316   0.956   6.406
 7916SOL    HW235377   1.192   0.914   6.329
 7917SOL     OW35378   1.655   3.190  18.890
 7917SOL    HW135379   1.566   3.222  18.906
 7917SOL    HW235380   1.675   3.134  18.965
 7918SOL     OW35381   2.096   1.845   1.018
 7918SOL    HW135382   2.070   1.754   1.005
 7918SOL    HW235383   2.043   1.875   1.092
 7919SOL     OW35384   1.118   4.262   8.399
 7919SOL    HW135385   1.088   4.353   8.408
 7919SOL    HW235386   1.060   4.212   8.456
 7920SOL     OW35387   1.986   4.659   6.005
 7920SOL    HW135388   2.042   4.678   6.080
 7920SOL    HW235389   2.024   4.710   5.933
 7921SOL     OW35390   4.719   0.606  11.388
 7921SOL    HW135391   4.714   0.513  11.368
 7921SOL    HW235392   0.031   0.622  11.409
 7922SOL     OW35393   3.242   3.854   7.753
 7922SOL    HW135394   3.215   3.945   7.765
 7922SOL    HW235395   3.170   3.803   7.791
 7923SOL     OW35396   4.476   2.862  23.003
 7923SOL    HW135397   4.393   2.822  23.027
 7923SOL    HW235398   4.496   2.921  23.075
 7924SOL     OW35399   1.924   3.329   1.676
 7924SOL    HW135400   1.871   3.354   1.600
 7924SOL    HW235401   1.880   3.252   1.712
 7925SOL     OW35402   4.715   3.658  25.499
 7925SOL    HW135403   0.005   3.655  25.434
 7925SOL    HW235404   4.636   3.678  25.449
 7926SOL     OW35405   4.093   4.008   9.965
 7926SOL    HW135406   4.134   4.074  10.020
 7926SOL    HW235407   4.066   3.940  10.026
 7927SOL     OW35408   0.016   1.740   2.593
 7927SOL    HW135409   0.084   1.688   2.635
 7927SOL    HW235410   4.714   1.704   2.627
 7928SOL     OW35411   4.339   4.290  20.236
 7928SOL    HW135412   4.362   4.234  20.162
 7928SOL    HW235413   4.362   4.378  20.208
 7929SOL     OW35414   2.620   1.846  26.631
 7929SOL    HW135415   2.663   1.858  26.547
 7929SOL    HW235416   2.654   1.916  26.686
 7930SOL     OW35417   3.517   0.784   2.402
 7930SOL    HW135418   3.509   0.839   2.324
 7930SOL    HW235419   3.610   0.763   2.407
 7931SOL     OW35420   2.741   3.235  27.396
 7931SOL    HW135421   2.707   3.177  27.465
 7931SOL    HW235422   2.683   3.220  27.322
 7932SOL     OW35423   0.544   3.990  22.122
 7932SOL    HW135424   0.524   3.898  22.103
 7932SOL    HW235425   0.637   3.990  22.144
 7933SOL     OW35426   2.942   2.106   2.671
 7933SOL    HW135427   3.010   2.087   2.606
 7933SOL    HW235428   2.929   2.023   2.717
 7934SOL     OW35429   4.608   3.236   2.876
 7934SOL    HW135430   4.611   3.158   2.821
 7934SOL    HW235431   4.700   3.263   2.884
 7935SOL     OW35432   4.260   1.499  21.012
 7935SOL    HW135433   4.291   1.410  21.030
 7935SOL    HW235434   4.171   1.487  20.979
 7936SOL     OW35435   2.577   3.814  21.185
 7936SOL    HW135436   2.559   3.856  21.269
 7936SOL    HW235437   2.535   3.870  21.120
 7937SOL     OW35438   2.976   0.559  18.971
 7937SOL    HW135439   3.010   0.499  18.904
 7937SOL    HW235440   2.881   0.545  18.969
 7938SOL     OW35441   3.030   3.577  27.908
 7938SOL    HW135442   3.014   3.487  27.938
 7938SOL    HW235443   3.007   3.632  27.983
 7939SOL     OW35444   0.927   3.980   1.306
 7939SOL    HW135445   0.885   4.066   1.304
 7939SOL    HW235446   0.855   3.917   1.302
 7940SOL     OW35447   3.874   2.211  17.958
 7940SOL    HW135448   3.900   2.293  18.001
 7940SOL    HW235449   3.780   2.221  17.941
 7941SOL     OW35450   2.784   4.624  22.598
 7941SOL    HW135451   2.857   4.675  22.632
 7941SOL    HW235452   2.776   4.650  22.506
 7942SOL     OW35453   2.514   4.588   7.451
 7942SOL    HW135454   2.447   4.537   7.406
 7942SOL    HW235455   2.469   4.668   7.479
 7943SOL     OW35456   3.543   0.505   8.733
 7943SOL    HW135457   3.457   0.548   8.736
 7943SOL    HW235458   3.535   0.431   8.794
 7944SOL     OW35459   4.772   3.435  23.762
 7944SOL    HW135460   4.770   3.426  23.667
 7944SOL    HW235461   4.715   3.366  23.795
 7945SOL     OW35462   4.724   0.189  27.468
 7945SOL    HW135463   4.751   0.107  27.510
 7945SOL    HW235464   4.635   0.173  27.437
 7946SOL     OW35465   0.765   4.181   5.946
 7946SOL    HW135466   0.695   4.186   5.881
 7946SOL    HW235467   0.771   4.270   5.982
 7947SOL     OW35468   2.748   3.528   2.591
 7947SOL    HW135469   2.744   3.532   2.687
 7947SOL    HW235470   2.657   3.535   2.563
 7948SOL     OW35471   3.263   2.423   0.545
 7948SOL    HW135472   3.183   2.476   0.538
 7948SOL    HW235473   3.259   2.365   0.469
 7949SOL     OW35474   3.713   1.376  27.109
 7949SOL    HW135475   3.656   1.299  27.115
 7949SOL    HW235476   3.780   1.352  27.045
 7950SOL     OW35477   4.402   0.351  18.285
 7950SOL    HW135478   4.423   0.424  18.227
 7950SOL    HW235479   4.436   0.274  18.239
 7951SOL     OW35480   4.191   4.026   1.070
 7951SOL    HW135481   4.096   4.018   1.070
 7951SOL    HW235482   4.218   4.000   1.158
 7952SOL     OW35483   0.821   1.226   0.107
 7952SOL    HW135484   0.898   1.203   0.055
 7952SOL    HW235485   0.773   1.288   0.052
 7953SOL     OW35486   0.742   1.157   8.629
 7953SOL    HW135487   0.794   1.108   8.565
 7953SOL    HW235488   0.687   1.091   8.671
 7954SOL     OW35489   4.368   2.070  20.047
 7954SOL    HW135490   4.367   2.031  20.134
 7954SOL    HW235491   4.442   2.130  20.048
 7955SOL     OW35492   0.614   1.101  24.099
 7955SOL    HW135493   0.587   1.034  24.036
 7955SOL    HW235494   0.542   1.106  24.161
 7956SOL     OW35495   0.439   4.112   2.313
 7956SOL    HW135496   0.516   4.057   2.325
 7956SOL    HW235497   0.412   4.096   2.223
 7957SOL     OW35498   2.090   4.372   8.947
 7957SOL    HW135499   2.014   4.414   8.987
 7957SOL    HW235500   2.075   4.380   8.853
 7958SOL     OW35501   2.062   4.657   0.197
 7958SOL    HW135502   1.981   4.671   0.247
 7958SOL    HW235503   2.098   4.745   0.185
 7959SOL     OW35504   2.956   3.357  24.588
 7959SOL    HW135505   3.031   3.342  24.646
 7959SOL    HW235506   2.910   3.431  24.627
 7960SOL     OW35507   3.340   3.035   7.350
 7960SOL    HW135508   3.395   3.102   7.392
 7960SOL    HW235509   3.400   2.964   7.330
 7961SOL     OW35510   1.994   1.889  22.989
 7961SOL    HW135511   2.066   1.852  22.937
 7961SOL    HW235512   2.037   1.950  23.049
 7962SOL     OW35513   0.493   0.867  10.128
 7962SOL    HW135514   0.429   0.830  10.189
 7962SOL    HW235515   0.578   0.837  10.161
 7963SOL     OW35516   1.759   0.281   9.075
 7963SOL    HW135517   1.853   0.270   9.088
 7963SOL    HW235518   1.752   0.322   8.989
 7964SOL     OW35519   3.796   0.451  20.253
 7964SOL    HW135520   3.759   0.442  20.165
 7964SOL    HW235521   3.764   0.536  20.284
 7965SOL     OW35522   4.182   0.749   8.954
 7965SOL    HW135523   4.218   0.668   8.991
 7965SOL    HW235524   4.250   0.815   8.969
 7966SOL     OW35525   3.400   0.843  25.397
 7966SOL    HW135526   3.317   0.850  25.349
 7966SOL    HW235527   3.405   0.924  25.448
 7967SOL     OW35528   1.179   3.623  28.416
 7967SOL    HW135529   1.179   3.719  28.412
 7967SOL    HW235530   1.095   3.601  28.456
 7968SOL     OW35531   3.805   3.397   5.088
 7968SOL    HW135532   3.815   3.412   4.994
 7968SOL    HW235533   3.730   3.452   5.113
 7969SOL     OW35534   4.678   4.067   2.576
 7969SOL    HW135535   4.694   4.046   2.668
 7969SOL    HW235536   4.693   3.985   2.530
 7970SOL     OW35537   0.623   2.062   0.993
 7970SOL    HW135538   0.665   2.069   1.079
 7970SOL    HW235539   0.616   2.153   0.963
 7971SOL     OW35540   3.544   0.718  26.788
 7971SOL    HW135541   3.477   0.754  26.730
 7971SOL    HW235542   3.514   0.629  26.808
 7972SOL     OW35543   2.303   3.654   2.968
 7972SOL    HW135544   2.290   3.590   2.898
 7972SOL    HW235545   2.291   3.604   3.049
 7973SOL     OW35546   3.159   3.986   0.741
 7973SOL    HW135547   3.090   4.003   0.805
 7973SOL    HW235548   3.123   4.018   0.658
 7974SOL     OW35549   2.441   1.676   1.621
 7974SOL    HW135550   2.511   1.716   1.569
 7974SOL    HW235551   2.414   1.745   1.681
 7975SOL     OW35552   4.174   1.055   7.175
 7975SOL    HW135553   4.138   1.054   7.264
 7975SOL    HW235554   4.255   1.005   7.181
 7976SOL     OW35555   3.237   4.356  27.249
 7976SOL    HW135556   3.146   4.333  27.266
 7976SOL    HW235557   3.247   4.444  27.286
 7977SOL     OW35558   2.655   2.062   8.932
 7977SOL    HW135559   2.721   2.105   8.877
 7977SOL    HW235560   2.703   1.992   8.976
 7978SOL     OW35561   2.063   0.704   9.706
 7978SOL    HW135562   1.976   0.743   9.712
 7978SOL    HW235563   2.050   0.612   9.729
 7979SOL     OW35564   0.504   1.720  22.447
 7979SOL    HW135565   0.552   1.647  22.409
 7979SOL    HW235566   0.470   1.768  22.372
 7980SOL     OW35567   4.025   2.857   6.949
 7980SOL    HW135568   4.074   2.811   7.017
 7980SOL    HW235569   4.034   2.801   6.872
 7981SOL     OW35570   4.224   3.190  28.066
 7981SOL    HW135571   4.197   3.107  28.027
 7981SOL    HW235572   4.277   3.233  27.998
 7982SOL     OW35573   1.036   2.987   3.812
 7982SOL    HW135574   1.048   3.078   3.786
 7982SOL    HW235575   1.070   2.983   3.901
 7983SOL     OW35576   0.449   3.091   6.105
 7983SOL    HW135577   0.356   3.073   6.118
 7983SOL    HW235578   0.453   3.184   6.084
 7984SOL     OW35579   3.179   2.425   2.680
 7984SOL    HW135580   3.176   2.515   2.649
 7984SOL    HW235581   3.102   2.416   2.736
 7985SOL     OW35582   2.813   0.995   3.832
 7985SOL    HW135583   2.837   0.927   3.895
 7985SOL    HW235584   2.865   1.071   3.857
 7986SOL     OW35585   0.758   3.251  26.146
 7986SOL    HW135586   0.822   3.317  26.173
 7986SOL    HW235587   0.801   3.204  26.074
 7987SOL     OW35588   4.033   2.662  23.497
 7987SOL    HW135589   4.014   2.747  23.457
 7987SOL    HW235590   4.007   2.673  23.589
 7988SOL     OW35591   1.759   1.941   4.278
 7988SOL    HW135592   1.823   2.007   4.304
 7988SOL    HW235593   1.674   1.984   4.288
 7989SOL     OW35594   4.369   3.716  10.352
 7989SOL    HW135595   4.298   3.718  10.416
 7989SOL    HW235596   4.443   3.757  10.397
 7990SOL     OW35597   1.613   0.171  25.610
 7990SOL    HW135598   1.671   0.236  25.570
 7990SOL    HW235599   1.535   0.221  25.634
 7991SOL     OW35600   2.763   4.543  24.183
 7991SOL    HW135601   2.853   4.513  24.192
 7991SOL    HW235602   2.771   4.634  24.153
 7992SOL     OW35603   1.809   2.396   7.016
 7992SOL    HW135604   1.790   2.475   6.965
 7992SOL    HW235605   1.852   2.337   6.954
 7993SOL     OW35606   2.679   0.626   9.380
 7993SOL    HW135607   2.627   0.654   9.455
 7993SOL    HW235608   2.716   0.707   9.345
 7994SOL     OW35609   1.937   4.153   4.849
 7994SOL    HW135610   1.867   4.186   4.905
 7994SOL    HW235611   1.949   4.062   4.877
 7995SOL     OW35612   0.207   1.501  20.087
 7995SOL    HW135613   0.154   1.422  20.091
 7995SOL    HW235614   0.152   1.564  20.040
 7996SOL     OW35615   4.070   0.011  19.733
 7996SOL    HW135616   4.132   0.032  19.664
 7996SOL    HW235617   4.079   0.082  19.797
 7997SOL     OW35618   1.268   0.348  22.868
 7997SOL    HW135619   1.324   0.347  22.791
 7997SOL    HW235620   1.186   0.387  22.838
 7998SOL     OW35621   3.140   0.741  27.714
 7998SOL    HW135622   3.220   0.790  27.731
 7998SOL    HW235623   3.165   0.649  27.725
 7999SOL     OW35624   0.511   3.282   4.432
 7999SOL    HW135625   0.491   3.301   4.340
 7999SOL    HW235626   0.438   3.227   4.461
 8000SOL     OW35627   0.508   4.698  27.725
 8000SOL    HW135628   0.462   4.780  27.742
 8000SOL    HW235629   0.595   4.711  27.763
 8001SOL     OW35630   4.689   4.583  23.143
 8001SOL    HW135631   4.658   4.654  23.087
 8001SOL    HW235632   4.670   4.503  23.094
 8002SOL     OW35633   1.240   4.055  22.519
 8002SOL    HW135634   1.267   4.102  22.440
 8002SOL    HW235635   1.145   4.066  22.523
 8003SOL     OW35636   2.424   3.421  22.309
 8003SOL    HW135637   2.448   3.361  22.239
 8003SOL    HW235638   2.336   3.393  22.336
 8004SOL     OW35639   0.959   1.505  22.083
 8004SOL    HW135640   1.046   1.546  22.083
 8004SOL    HW235641   0.926   1.521  21.995
 8005SOL     OW35642   0.024   3.002  21.706
 8005SOL    HW135643   4.730   3.011  21.646
 8005SOL    HW235644   0.012   2.916  21.746
 8006SOL     OW35645   0.107   1.238   1.892
 8006SOL    HW135646   0.077   1.328   1.882
 8006SOL    HW235647   0.187   1.245   1.943
 8007SOL     OW35648   3.312   4.376   7.805
 8007SOL    HW135649   3.383   4.439   7.795
 8007SOL    HW235650   3.233   4.428   7.792
 8008SOL     OW35651   0.481   2.231   8.219
 8008SOL    HW135652   0.397   2.270   8.195
 8008SOL    HW235653   0.524   2.213   8.135
 8009SOL     OW35654   4.099   4.476  23.496
 8009SOL    HW135655   4.130   4.492  23.407
 8009SOL    HW235656   4.078   4.383  23.497
 8010SOL     OW35657   4.086   3.298  22.127
 8010SOL    HW135658   4.033   3.352  22.185
 8010SOL    HW235659   4.150   3.256  22.184
 8011SOL     OW35660   3.198   1.431  28.220
 8011SOL    HW135661   3.137   1.372  28.176
 8011SOL    HW235662   3.162   1.441  28.308
 8012SOL     OW35663   0.682   4.654  28.421
 8012SOL    HW135664   0.726   4.688  28.343
 8012SOL    HW235665   0.703   4.561  28.422
 8013SOL     OW35666   0.923   3.057  24.619
 8013SOL    HW135667   0.969   3.100  24.547
 8013SOL    HW235668   0.950   2.965  24.612
 8014SOL     OW35669   0.847   4.515   1.343
 8014SOL    HW135670   0.806   4.535   1.427
 8014SOL    HW235671   0.889   4.430   1.356
 8015SOL     OW35672   2.524   4.676   1.468
 8015SOL    HW135673   2.554   4.589   1.440
 8015SOL    HW235674   2.586   4.737   1.428
 8016SOL     OW35675   1.309   4.354  21.876
 8016SOL    HW135676   1.231   4.312  21.840
 8016SOL    HW235677   1.377   4.340  21.810
 8017SOL     OW35678   0.704   2.168   4.542
 8017SOL    HW135679   0.704   2.160   4.637
 8017SOL    HW235680   0.796   2.164   4.517
 8018SOL     OW35681   0.507   1.535  22.818
 8018SOL    HW135682   0.580   1.476  22.836
 8018SOL    HW235683   0.528   1.614  22.868
 8019SOL     OW35684   4.041   3.530   5.600
 8019SOL    HW135685   3.967   3.577   5.561
 8019SOL    HW235686   4.024   3.532   5.694
 8020SOL     OW35687   1.152   3.484   3.101
 8020SOL    HW135688   1.166   3.545   3.028
 8020SOL    HW235689   1.238   3.475   3.143
 8021SOL     OW35690   1.056   0.206  28.427
 8021SOL    HW135691   1.075   0.279  28.368
 8021SOL    HW235692   0.960   0.203  28.432
 8022SOL     OW35693   4.190   3.678   1.636
 8022SOL    HW135694   4.240   3.603   1.668
 8022SOL    HW235695   4.120   3.639   1.584
 8023SOL     OW35696   1.630   3.870   0.972
 8023SOL    HW135697   1.716   3.913   0.968
 8023SOL    HW235698   1.633   3.817   1.052
 8024SOL     OW35699   3.396   1.989   8.333
 8024SOL    HW135700   3.420   2.043   8.408
 8024SOL    HW235701   3.303   2.008   8.318
 8025SOL     OW35702   0.300   1.057  23.609
 8025SOL    HW135703   0.349   1.122  23.659
 8025SOL    HW235704   0.287   1.098  23.523
 8026SOL     OW35705   0.736   3.245   1.269
 8026SOL    HW135706   0.830   3.254   1.286
 8026SOL    HW235707   0.699   3.219   1.353
 8027SOL     OW35708   1.562   0.284  20.763
 8027SOL    HW135709   1.503   0.306  20.691
 8027SOL    HW235710   1.641   0.250  20.720
 8028SOL     OW35711   0.723   3.310  25.321
 8028SOL    HW135712   0.790   3.363  25.278
 8028SOL    HW235713   0.737   3.326  25.414
 8029SOL     OW35714   2.469   2.481   4.531
 8029SOL    HW135715   2.534   2.531   4.580
 8029SOL    HW235716   2.517   2.404   4.501
 8030SOL     OW35717   2.811   2.777   7.013
 8030SOL    HW135718   2.840   2.690   7.040
 8030SOL    HW235719   2.872   2.802   6.944
 8031SOL     OW35720   2.896   1.278  20.209
 8031SOL    HW135721   2.968   1.220  20.187
 8031SOL    HW235722   2.817   1.229  20.184
 8032SOL     OW35723   2.720   3.277   3.283
 8032SOL    HW135724   2.740   3.208   3.220
 8032SOL    HW235725   2.766   3.251   3.363
 8033SOL     OW35726   3.292   4.771  21.344
 8033SOL    HW135727   3.240   4.705  21.298
 8033SOL    HW235728   3.374   4.726  21.366
 8034SOL     OW35729   1.180   0.855   0.405
 8034SOL    HW135730   1.155   0.767   0.432
 8034SOL    HW235731   1.115   0.912   0.445
 8035SOL     OW35732   2.477   0.401   7.997
 8035SOL    HW135733   2.410   0.455   8.038
 8035SOL    HW235734   2.560   0.445   8.017
 8036SOL     OW35735   4.511   4.731   3.428
 8036SOL    HW135736   4.556   0.032   3.404
 8036SOL    HW235737   4.524   4.673   3.353
 8037SOL     OW35738   4.140   3.656  10.935
 8037SOL    HW135739   4.171   3.655  11.025
 8037SOL    HW235740   4.217   3.680  10.883
 8038SOL     OW35741   3.175   2.661   3.077
 8038SOL    HW135742   3.268   2.657   3.099
 8038SOL    HW235743   3.154   2.573   3.046
 8039SOL     OW35744   3.629   0.409   8.461
 8039SOL    HW135745   3.603   0.415   8.553
 8039SOL    HW235746   3.568   0.347   8.423
 8040SOL     OW35747   0.574   0.260   3.540
 8040SOL    HW135748   0.562   0.331   3.603
 8040SOL    HW235749   0.571   0.303   3.455
 8041SOL     OW35750   4.334   1.050   6.394
 8041SOL    HW135751   4.367   1.073   6.481
 8041SOL    HW235752   4.407   1.070   6.335
 8042SOL     OW35753   1.312   1.695   7.885
 8042SOL    HW135754   1.374   1.622   7.878
 8042SOL    HW235755   1.367   1.773   7.885
 8043SOL     OW35756   2.465   0.306  24.152
 8043SOL    HW135757   2.446   0.392  24.188
 8043SOL    HW235758   2.537   0.273  24.205
 8044SOL     OW35759   2.952   2.985  18.596
 8044SOL    HW135760   3.034   2.935  18.596
 8044SOL    HW235761   2.958   3.041  18.519
 8045SOL     OW35762   3.206   3.682  26.720
 8045SOL    HW135763   3.194   3.604  26.666
 8045SOL    HW235764   3.282   3.726  26.681
 8046SOL     OW35765   0.693   3.991  11.348
 8046SOL    HW135766   0.734   3.925  11.404
 8046SOL    HW235767   0.671   4.063  11.407
 8047SOL     OW35768   2.897   0.362  11.208
 8047SOL    HW135769   2.834   0.399  11.269
 8047SOL    HW235770   2.924   0.280  11.249
 8048SOL     OW35771   4.765   0.451   0.759
 8048SOL    HW135772   4.763   0.451   0.855
 8048SOL    HW235773   4.680   0.487   0.733
 8049SOL     OW35774   2.200   2.008  22.552
 8049SOL    HW135775   2.192   1.925  22.504
 8049SOL    HW235776   2.264   2.059  22.502
 8050SOL     OW35777   1.254   2.102  17.343
 8050SOL    HW135778   1.260   2.009  17.322
 8050SOL    HW235779   1.282   2.146  17.263
 8051SOL     OW35780   1.561   1.416  21.852
 8051SOL    HW135781   1.497   1.378  21.912
 8051SOL    HW235782   1.524   1.401  21.765
 8052SOL     OW35783   1.769   3.550   5.859
 8052SOL    HW135784   1.702   3.482   5.849
 8052SOL    HW235785   1.720   3.630   5.878
 8053SOL     OW35786   4.426   2.798  28.121
 8053SOL    HW135787   4.423   2.726  28.059
 8053SOL    HW235788   4.334   2.818  28.139
 8054SOL     OW35789   4.246   2.070  20.927
 8054SOL    HW135790   4.282   1.998  20.875
 8054SOL    HW235791   4.220   2.029  21.009
 8055SOL     OW35792   1.330   3.118  24.753
 8055SOL    HW135793   1.294   3.031  24.738
 8055SOL    HW235794   1.402   3.104  24.815
 8056SOL     OW35795   4.413   4.414  26.112
 8056SOL    HW135796   4.358   4.382  26.183
 8056SOL    HW235797   4.352   4.441  26.044
 8057SOL     OW35798   2.745   0.338   4.294
 8057SOL    HW135799   2.817   0.350   4.356
 8057SOL    HW235800   2.778   0.274   4.231
 8058SOL     OW35801   4.044   2.397  23.131
 8058SOL    HW135802   4.098   2.353  23.065
 8058SOL    HW235803   3.956   2.397  23.093
 8059SOL     OW35804   3.287   2.007   1.796
 8059SOL    HW135805   3.356   1.972   1.852
 8059SOL    HW235806   3.323   2.001   1.707
 8060SOL     OW35807   0.955   4.400  24.529
 8060SOL    HW135808   0.934   4.427  24.440
 8060SOL    HW235809   0.962   4.482  24.578
 8061SOL     OW35810   1.738   3.910  23.699
 8061SOL    HW135811   1.755   3.818  23.679
 8061SOL    HW235812   1.643   3.915  23.712
 8062SOL     OW35813   3.055   3.981   1.032
 8062SOL    HW135814   3.030   3.889   1.024
 8062SOL    HW235815   2.975   4.025   1.060
 8063SOL     OW35816   1.790   2.345  23.207
 8063SOL    HW135817   1.770   2.339  23.300
 8063SOL    HW235818   1.789   2.254  23.176
 8064SOL     OW35819   2.842   2.604   5.770
 8064SOL    HW135820   2.824   2.698   5.768
 8064SOL    HW235821   2.789   2.568   5.698
 8065SOL     OW35822   1.939   4.592   0.824
 8065SOL    HW135823   1.882   4.583   0.748
 8065SOL    HW235824   1.941   4.505   0.863
 8066SOL     OW35825   4.393   3.216  24.808
 8066SOL    HW135826   4.396   3.312  24.807
 8066SOL    HW235827   4.380   3.191  24.717
 8067SOL     OW35828   4.669   4.604  26.067
 8067SOL    HW135829   4.597   4.544  26.086
 8067SOL    HW235830   4.747   4.561  26.102
 8068SOL     OW35831   1.318   2.329  20.993
 8068SOL    HW135832   1.327   2.265  20.923
 8068SOL    HW235833   1.307   2.277  21.072
 8069SOL     OW35834   0.474   4.426  27.666
 8069SOL    HW135835   0.546   4.399  27.609
 8069SOL    HW235836   0.489   4.519  27.681
 8070SOL     OW35837   2.530   2.284  28.063
 8070SOL    HW135838   2.620   2.316  28.057
 8070SOL    HW235839   2.487   2.320  27.985
 8071SOL     OW35840   4.239   2.012  17.603
 8071SOL    HW135841   4.200   1.941  17.552
 8071SOL    HW235842   4.174   2.033  17.670
 8072SOL     OW35843   1.610   2.641   1.235
 8072SOL    HW135844   1.531   2.677   1.276
 8072SOL    HW235845   1.639   2.573   1.296
 8073SOL     OW35846   3.835   2.442   7.413
 8073SOL    HW135847   3.758   2.429   7.357
 8073SOL    HW235848   3.803   2.423   7.501
 8074SOL     OW35849   0.522   1.366   3.943
 8074SOL    HW135850   0.518   1.337   4.034
 8074SOL    HW235851   0.438   1.340   3.905
 8075SOL     OW35852   4.636   3.552  27.076
 8075SOL    HW135853   4.729   3.535  27.061
 8075SOL    HW235854   4.622   3.640  27.040
 8076SOL     OW35855   4.648   3.773   7.377
 8076SOL    HW135856   4.718   3.711   7.359
 8076SOL    HW235857   4.583   3.723   7.426
 8077SOL     OW35858   2.930   2.681  20.015
 8077SOL    HW135859   2.946   2.685  19.921
 8077SOL    HW235860   3.016   2.664  20.053
 8078SOL     OW35861   4.481   3.959   7.999
 8078SOL    HW135862   4.553   3.948   7.937
 8078SOL    HW235863   4.457   3.870   8.023
 8079SOL     OW35864   2.096   1.837   9.004
 8079SOL    HW135865   2.086   1.892   9.082
 8079SOL    HW235866   2.187   1.850   8.976
 8080SOL     OW35867   1.488   0.917   1.647
 8080SOL    HW135868   1.543   0.865   1.706
 8080SOL    HW235869   1.549   0.952   1.582
 8081SOL     OW35870   3.060   4.673   1.071
 8081SOL    HW135871   3.106   4.595   1.041
 8081SOL    HW235872   3.018   4.646   1.153
 8082SOL     OW35873   0.891   0.542  27.047
 8082SOL    HW135874   0.945   0.490  26.987
 8082SOL    HW235875   0.815   0.567  26.995
 8083SOL     OW35876   2.397   4.555  26.829
 8083SOL    HW135877   2.478   4.581  26.785
 8083SOL    HW235878   2.344   4.635  26.832
 8084SOL     OW35879   0.087   1.916  19.149
 8084SOL    HW135880   0.176   1.893  19.174
 8084SOL    HW235881   0.033   1.845  19.184
 8085SOL     OW35882   0.771   1.769  18.162
 8085SOL    HW135883   0.744   1.782  18.253
 8085SOL    HW235884   0.802   1.679  18.158
 8086SOL     OW35885   0.041   2.081  23.484
 8086SOL    HW135886   0.116   2.091  23.426
 8086SOL    HW235887   4.745   2.083  23.426
 8087SOL     OW35888   3.703   3.043   9.750
 8087SOL    HW135889   3.739   3.104   9.814
 8087SOL    HW235890   3.767   3.041   9.679
 8088SOL     OW35891   0.866   3.299  10.436
 8088SOL    HW135892   0.825   3.273  10.353
 8088SOL    HW235893   0.890   3.391  10.424
 8089SOL     OW35894   1.093   2.481  27.959
 8089SOL    HW135895   1.064   2.438  28.040
 8089SOL    HW235896   1.179   2.443  27.941
 8090SOL     OW35897   3.440   4.278   9.370
 8090SOL    HW135898   3.411   4.251   9.283
 8090SOL    HW235899   3.482   4.200   9.407
 8091SOL     OW35900   3.999   0.861  19.751
 8091SOL    HW135901   3.932   0.870  19.684
 8091SOL    HW235902   4.022   0.951  19.773
 8092SOL     OW35903   3.782   3.142   0.908
 8092SOL    HW135904   3.760   3.182   0.824
 8092SOL    HW235905   3.872   3.170   0.925
 8093SOL     OW35906   4.425   3.886   9.133
 8093SOL    HW135907   4.519   3.882   9.115
 8093SOL    HW235908   4.385   3.906   9.048
 8094SOL     OW35909   3.593   2.144  21.485
 8094SOL    HW135910   3.543   2.073  21.446
 8094SOL    HW235911   3.584   2.130  21.579
 8095SOL     OW35912   3.172   4.650   4.304
 8095SOL    HW135913   3.086   4.679   4.335
 8095SOL    HW235914   3.165   4.555   4.302
 8096SOL     OW35915   1.240   4.064  21.636
 8096SOL    HW135916   1.234   4.155  21.607
 8096SOL    HW235917   1.257   4.014  21.556
 8097SOL     OW35918   0.032   1.147   2.570
 8097SOL    HW135919   0.067   1.094   2.498
 8097SOL    HW235920   0.043   1.237   2.540
 8098SOL     OW35921   3.652   3.144  25.573
 8098SOL    HW135922   3.571   3.094  25.582
 8098SOL    HW235923   3.713   3.101  25.633
 8099SOL     OW35924   0.636   1.861   7.964
 8099SOL    HW135925   0.667   1.778   8.001
 8099SOL    HW235926   0.665   1.927   8.027
 8100SOL     OW35927   3.900   1.976   7.684
 8100SOL    HW135928   3.831   1.922   7.646
 8100SOL    HW235929   3.964   1.913   7.718
 8101SOL     OW35930   3.581   4.249  25.210
 8101SOL    HW135931   3.515   4.301  25.163
 8101SOL    HW235932   3.542   4.162  25.218
 8102SOL     OW35933   3.621   3.715  18.452
 8102SOL    HW135934   3.601   3.761  18.533
 8102SOL    HW235935   3.712   3.738  18.433
 8103SOL     OW35936   2.882   3.531   9.173
 8103SOL    HW135937   2.926   3.564   9.251
 8103SOL    HW235938   2.893   3.436   9.177
 8104SOL     OW35939   1.529   2.843  25.694
 8104SOL    HW135940   1.505   2.929  25.729
 8104SOL    HW235941   1.475   2.833  25.616
 8105SOL     OW35942   4.502   0.703  19.542
 8105SOL    HW135943   4.424   0.648  19.551
 8105SOL    HW235944   4.575   0.642  19.549
 8106SOL     OW35945   2.750   3.634   7.065
 8106SOL    HW135946   2.830   3.633   7.118
 8106SOL    HW235947   2.688   3.580   7.113
 8107SOL     OW35948   2.462   3.270   9.913
 8107SOL    HW135949   2.390   3.329   9.937
 8107SOL    HW235950   2.458   3.264   9.818
 8108SOL     OW35951   1.162   1.055  26.436
 8108SOL    HW135952   1.153   0.995  26.510
 8108SOL    HW235953   1.096   1.122  26.451
 8109SOL     OW35954   0.849   3.220   2.574
 8109SOL    HW135955   0.943   3.240   2.570
 8109SOL    HW235956   0.810   3.274   2.505
 8110SOL     OW35957   0.600   2.524  26.945
 8110SOL    HW135958   0.600   2.437  26.984
 8110SOL    HW235959   0.540   2.517  26.871
 8111SOL     OW35960   1.023   3.988   9.995
 8111SOL    HW135961   0.959   4.058  10.007
 8111SOL    HW235962   1.049   3.964  10.084
 8112SOL     OW35963   2.477   1.020  26.900
 8112SOL    HW135964   2.385   1.001  26.920
 8112SOL    HW235965   2.525   0.993  26.978
 8113SOL     OW35966   0.169   4.282   7.849
 8113SOL    HW135967   0.172   4.376   7.830
 8113SOL    HW235968   0.173   4.240   7.763
 8114SOL     OW35969   0.033   3.991   5.005
 8114SOL    HW135970   0.068   3.903   5.019
 8114SOL    HW235971   0.067   4.042   5.078
 8115SOL     OW35972   1.535   0.657   3.588
 8115SOL    HW135973   1.539   0.633   3.680
 8115SOL    HW235974   1.607   0.609   3.547
 8116SOL     OW35975   1.170   1.045   6.154
 8116SOL    HW135976   1.121   1.103   6.212
 8116SOL    HW235977   1.252   1.091   6.138
 8117SOL     OW35978   3.785   3.338   3.345
 8117SOL    HW135979   3.846   3.343   3.271
 8117SOL    HW235980   3.734   3.419   3.339
 8118SOL     OW35981   1.535   0.066  23.666
 8118SOL    HW135982   1.490   0.133  23.718
 8118SOL    HW235983   1.548   0.106  23.580
 8119SOL     OW35984   0.866   4.182   3.841
 8119SOL    HW135985   0.859   4.191   3.746
 8119SOL    HW235986   0.899   4.093   3.855
 8120SOL     OW35987   2.093   1.696  27.247
 8120SOL    HW135988   2.002   1.724  27.254
 8120SOL    HW235989   2.106   1.680  27.154
 8121SOL     OW35990   0.104   2.580  20.254
 8121SOL    HW135991   0.160   2.522  20.305
 8121SOL    HW235992   0.155   2.660  20.245
 8122SOL     OW35993   0.420   2.489  24.273
 8122SOL    HW135994   0.405   2.542  24.195
 8122SOL    HW235995   0.403   2.549  24.346
 8123SOL     OW35996   3.529   0.649   7.414
 8123SOL    HW135997   3.624   0.642   7.402
 8123SOL    HW235998   3.517   0.725   7.471
 8124SOL     OW35999   0.222   0.199   3.047
 8124SOL    HW136000   0.133   0.169   3.028
 8124SOL    HW236001   0.279   0.135   3.003
 8125SOL     OW36002   0.018   2.149   1.425
 8125SOL    HW136003   4.763   2.169   1.512
 8125SOL    HW236004   4.756   2.067   1.400
 8126SOL     OW36005   0.335   2.641   0.192
 8126SOL    HW136006   0.283   2.602   0.122
 8126SOL    HW236007   0.370   2.722   0.155
 8127SOL     OW36008   1.083   2.469  22.155
 8127SOL    HW136009   1.143   2.486  22.227
 8127SOL    HW236010   1.075   2.553  22.110
 8128SOL     OW36011   1.073   3.048  24.364
 8128SOL    HW136012   1.130   3.125  24.361
 8128SOL    HW236013   1.041   3.039  24.274
 8129SOL     OW36014   2.349   1.484  22.540
 8129SOL    HW136015   2.278   1.421  22.531
 8129SOL    HW236016   2.353   1.502  22.634
 8130SOL     OW36017   1.610   2.422  27.396
 8130SOL    HW136018   1.680   2.473  27.436
 8130SOL    HW236019   1.541   2.419  27.462
 8131SOL     OW36020   3.253   3.456   9.499
 8131SOL    HW136021   3.344   3.432   9.516
 8131SOL    HW236022   3.212   3.375   9.469
 8132SOL     OW36023   0.450   4.162   5.226
 8132SOL    HW136024   0.390   4.228   5.261
 8132SOL    HW236025   0.455   4.095   5.295
 8133SOL     OW36026   2.939   0.086  19.574
 8133SOL    HW136027   2.924   0.011  19.631
 8133SOL    HW236028   3.027   0.116  19.598
 8134SOL     OW36029   4.026   1.765  20.550
 8134SOL    HW136030   3.971   1.817  20.492
 8134SOL    HW236031   4.112   1.764  20.507
 8135SOL     OW36032   2.469   3.613   1.437
 8135SOL    HW136033   2.447   3.654   1.521
 8135SOL    HW236034   2.521   3.679   1.391
 8136SOL     OW36035   0.974   1.673  21.610
 8136SOL    HW136036   0.999   1.612  21.541
 8136SOL    HW236037   0.906   1.727  21.570
 8137SOL     OW36038   0.191   1.145   3.111
 8137SOL    HW136039   0.180   1.139   3.016
 8137SOL    HW236040   0.269   1.199   3.123
 8138SOL     OW36041   2.424   4.193   1.224
 8138SOL    HW136042   2.467   4.250   1.161
 8138SOL    HW236043   2.432   4.105   1.186
 8139SOL     OW36044   2.371   2.467  28.501
 8139SOL    HW136045   2.414   2.435  28.422
 8139SOL    HW236046   2.414   2.551  28.519
 8140SOL     OW36047   4.497   1.528  11.144
 8140SOL    HW136048   4.560   1.458  11.161
 8140SOL    HW236049   4.414   1.494  11.178
 8141SOL     OW36050   2.689   1.760  24.510
 8141SOL    HW136051   2.767   1.706  24.524
 8141SOL    HW236052   2.721   1.850  24.513
 8142SOL     OW36053   0.019   1.518  25.959
 8142SOL    HW136054   0.068   1.600  25.961
 8142SOL    HW236055   0.085   1.451  25.943
 8143SOL     OW36056   0.947   4.703   0.357
 8143SOL    HW136057   0.967   4.743   0.272
 8143SOL    HW236058   1.027   4.656   0.380
 8144SOL     OW36059   0.211   1.778  19.574
 8144SOL    HW136060   0.244   1.840  19.639
 8144SOL    HW236061   0.224   1.692  19.614
 8145SOL     OW36062   1.305   2.306  26.422
 8145SOL    HW136063   1.236   2.294  26.487
 8145SOL    HW236064   1.262   2.352  26.350
 8146SOL     OW36065   4.106   0.091   9.059
 8146SOL    HW136066   4.150   0.007   9.069
 8146SOL    HW236067   4.118   0.134   9.143
 8147SOL     OW36068   0.523   1.090  24.567
 8147SOL    HW136069   0.519   1.004  24.525
 8147SOL    HW236070   0.591   1.137  24.519
 8148SOL     OW36071   4.746   3.991  20.479
 8148SOL    HW136072   0.040   4.051  20.470
 8148SOL    HW236073   4.671   4.040  20.446
 8149SOL     OW36074   0.988   4.009  26.963
 8149SOL    HW136075   0.931   3.940  26.929
 8149SOL    HW236076   1.054   4.022  26.895
 8150SOL     OW36077   1.525   0.359  25.913
 8150SOL    HW136078   1.507   0.371  25.820
 8150SOL    HW236079   1.456   0.301  25.944
 8151SOL     OW36080   1.106   1.847   1.740
 8151SOL    HW136081   1.036   1.814   1.797
 8151SOL    HW236082   1.155   1.908   1.795
 8152SOL     OW36083   1.056   2.980  19.786
 8152SOL    HW136084   1.080   3.072  19.799
 8152SOL    HW236085   1.128   2.943  19.735
 8153SOL     OW36086   2.609   0.020   0.022
 8153SOL    HW136087   2.680   0.076  28.508
 8153SOL    HW236088   2.635   4.779   0.111
 8154SOL     OW36089   2.935   2.917   4.211
 8154SOL    HW136090   2.846   2.901   4.180
 8154SOL    HW236091   2.971   2.830   4.228
 8155SOL     OW36092   1.166   2.014  22.806
 8155SOL    HW136093   1.097   2.029  22.742
 8155SOL    HW236094   1.229   2.085  22.790
 8156SOL     OW36095   3.987   4.168   2.120
 8156SOL    HW136096   4.005   4.258   2.146
 8156SOL    HW236097   4.067   4.138   2.077
 8157SOL     OW36098   3.669   2.345   1.776
 8157SOL    HW136099   3.696   2.403   1.704
 8157SOL    HW236100   3.730   2.365   1.847
 8158SOL     OW36101   4.412   2.244  27.407
 8158SOL    HW136102   4.456   2.160  27.398
 8158SOL    HW236103   4.336   2.238  27.350
 8159SOL     OW36104   1.249   0.805  21.677
 8159SOL    HW136105   1.260   0.743  21.605
 8159SOL    HW236106   1.163   0.844  21.662
 8160SOL     OW36107   3.379   4.187  26.861
 8160SOL    HW136108   3.472   4.178  26.882
 8160SOL    HW236109   3.355   4.273  26.894
 8161SOL     OW36110   3.158   3.231  26.702
 8161SOL    HW136111   3.202   3.204  26.782
 8161SOL    HW236112   3.152   3.151  26.650
 8162SOL     OW36113   2.681   2.822  27.273
 8162SOL    HW136114   2.609   2.843  27.332
 8162SOL    HW236115   2.688   2.898  27.216
 8163SOL     OW36116   3.258   1.519  21.760
 8163SOL    HW136117   3.233   1.511  21.668
 8163SOL    HW236118   3.181   1.488  21.808
 8164SOL     OW36119   0.631   4.070  26.855
 8164SOL    HW136120   0.725   4.082  26.870
 8164SOL    HW236121   0.615   4.113  26.771
 8165SOL     OW36122   3.617   1.706  28.420
 8165SOL    HW136123   3.571   1.787  28.441
 8165SOL    HW236124   3.660   1.723  28.336
 8166SOL     OW36125   3.681   4.417  23.228
 8166SOL    HW136126   3.753   4.432  23.167
 8166SOL    HW236127   3.615   4.371  23.176
 8167SOL     OW36128   1.466   2.273  23.285
 8167SOL    HW136129   1.411   2.310  23.215
 8167SOL    HW236130   1.510   2.199  23.244
 8168SOL     OW36131   2.699   1.987  18.652
 8168SOL    HW136132   2.628   2.000  18.715
 8168SOL    HW236133   2.703   2.069  18.604
 8169SOL     OW36134   0.443   0.295  25.988
 8169SOL    HW136135   0.440   0.220  26.048
 8169SOL    HW236136   0.432   0.256  25.901
 8170SOL     OW36137   3.370   4.216   4.330
 8170SOL    HW136138   3.412   4.292   4.371
 8170SOL    HW236139   3.437   4.179   4.273
 8171SOL     OW36140   1.084   0.915  27.650
 8171SOL    HW136141   1.113   0.955  27.568
 8171SOL    HW236142   1.144   0.949  27.716
 8172SOL     OW36143   3.759   4.702  22.466
 8172SOL    HW136144   3.725   4.685  22.378
 8172SOL    HW236145   3.741   0.014  22.482
 8173SOL     OW36146   3.576   0.643  25.502
 8173SOL    HW136147   3.665   0.671  25.524
 8173SOL    HW236148   3.534   0.722  25.468
 8174SOL     OW36149   0.337   3.574   0.117
 8174SOL    HW136150   0.311   3.554   0.027
 8174SOL    HW236151   0.305   3.500   0.169
 8175SOL     OW36152   1.156   1.688  25.843
 8175SOL    HW136153   1.216   1.741  25.896
 8175SOL    HW236154   1.112   1.631  25.906
 8176SOL     OW36155   4.152   2.068   7.093
 8176SOL    HW136156   4.201   2.034   7.168
 8176SOL    HW236157   4.193   2.153   7.075
 8177SOL     OW36158   1.064   1.659   3.614
 8177SOL    HW136159   1.084   1.570   3.583
 8177SOL    HW236160   1.082   1.715   3.538
 8178SOL     OW36161   3.766   4.164  21.335
 8178SOL    HW136162   3.788   4.180  21.427
 8178SOL    HW236163   3.685   4.113  21.338
 8179SOL     OW36164   0.482   0.223  21.978
 8179SOL    HW136165   0.398   0.187  21.950
 8179SOL    HW236166   0.459   0.299  22.031
 8180SOL     OW36167   2.119   4.166  25.743
 8180SOL    HW136168   2.192   4.186  25.801
 8180SOL    HW236169   2.093   4.250  25.706
 8181SOL     OW36170   2.997   1.954   3.080
 8181SOL    HW136171   3.076   1.930   3.128
 8181SOL    HW236172   2.927   1.949   3.145
 8182SOL     OW36173   2.866   2.165  23.084
 8182SOL    HW136174   2.782   2.206  23.061
 8182SOL    HW236175   2.872   2.176  23.179
 8183SOL     OW36176   2.443   2.631   6.218
 8183SOL    HW136177   2.388   2.707   6.235
 8183SOL    HW236178   2.441   2.621   6.123
 8184SOL     OW36179   3.088   2.270   3.643
 8184SOL    HW136180   3.078   2.260   3.548
 8184SOL    HW236181   3.055   2.358   3.661
 8185SOL     OW36182   0.218   1.411  12.262
 8185SOL    HW136183   0.311   1.389  12.266
 8185SOL    HW236184   0.189   1.380  12.176
 8186SOL     OW36185   0.978   2.996   6.704
 8186SOL    HW136186   0.995   3.083   6.669
 8186SOL    HW236187   1.028   2.937   6.647
 8187SOL     OW36188   3.617   1.519  11.965
 8187SOL    HW136189   3.531   1.545  11.933
 8187SOL    HW236190   3.609   1.521  12.060
 8188SOL     OW36191   1.655   2.907   4.101
 8188SOL    HW136192   1.718   2.836   4.084
 8188SOL    HW236193   1.682   2.943   4.185
 8189SOL     OW36194   2.963   0.202  10.320
 8189SOL    HW136195   3.007   0.272  10.368
 8189SOL    HW236196   2.909   0.248  10.255
 8190SOL     OW36197   0.660   4.293   5.043
 8190SOL    HW136198   0.576   4.324   5.077
 8190SOL    HW236199   0.691   4.230   5.109
 8191SOL     OW36200   3.239   0.480   5.185
 8191SOL    HW136201   3.234   0.391   5.220
 8191SOL    HW236202   3.311   0.477   5.122
 8192SOL     OW36203   2.494   4.395  10.543
 8192SOL    HW136204   2.485   4.450  10.621
 8192SOL    HW236205   2.572   4.429  10.499
 8193SOL     OW36206   3.487   3.008  23.232
 8193SOL    HW136207   3.446   2.931  23.271
 8193SOL    HW236208   3.575   2.979  23.207
 8194SOL     OW36209   2.941   4.304   3.208
 8194SOL    HW136210   3.006   4.234   3.203
 8194SOL    HW236211   2.877   4.272   3.271
 8195SOL     OW36212   4.035   1.905   3.897
 8195SOL    HW136213   4.012   1.998   3.889
 8195SOL    HW236214   4.130   1.904   3.909
 8196SOL     OW36215   2.568   2.252  25.083
 8196SOL    HW136216   2.608   2.223  25.001
 8196SOL    HW236217   2.637   2.300  25.128
 8197SOL     OW36218   4.618   3.674  27.782
 8197SOL    HW136219   4.561   3.749  27.798
 8197SOL    HW236220   4.636   3.676  27.688
 8198SOL     OW36221   2.733   4.426   8.948
 8198SOL    HW136222   2.658   4.376   8.979
 8198SOL    HW236223   2.752   4.488   9.019
 8199SOL     OW36224   4.286   0.725  21.387
 8199SOL    HW136225   4.307   0.632  21.374
 8199SOL    HW236226   4.205   0.724  21.437
 8200SOL     OW36227   2.481   2.703  20.542
 8200SOL    HW136228   2.524   2.736  20.621
 8200SOL    HW236229   2.402   2.660  20.574
 8201SOL     OW36230   4.670   0.574   3.087
 8201SOL    HW136231   4.649   0.481   3.083
 8201SOL    HW236232   4.743   0.585   3.026
 8202SOL     OW36233   4.154   4.524  19.839
 8202SOL    HW136234   4.127   4.606  19.798
 8202SOL    HW236235   4.232   4.498  19.791
 8203SOL     OW36236   2.185   3.679   8.246
 8203SOL    HW136237   2.142   3.594   8.252
 8203SOL    HW236238   2.275   3.659   8.221
 8204SOL     OW36239   4.016   3.981  27.591
 8204SOL    HW136240   4.043   4.070  27.612
 8204SOL    HW236241   4.096   3.939  27.558
 8205SOL     OW36242   0.711   3.833   1.311
 8205SOL    HW136243   0.616   3.822   1.313
 8205SOL    HW236244   0.744   3.747   1.286
 8206SOL     OW36245   1.716   1.705   6.201
 8206SOL    HW136246   1.790   1.725   6.144
 8206SOL    HW236247   1.756   1.687   6.286
 8207SOL     OW36248   3.283   2.749   8.644
 8207SOL    HW136249   3.360   2.739   8.588
 8207SOL    HW236250   3.319   2.754   8.733
 8208SOL     OW36251   1.015   0.270  20.598
 8208SOL    HW136252   1.089   0.251  20.541
 8208SOL    HW236253   1.055   0.292  20.682
 8209SOL     OW36254   0.380   1.084   8.609
 8209SOL    HW136255   0.376   1.043   8.695
 8209SOL    HW236256   0.405   1.175   8.627
 8210SOL     OW36257   0.835   0.629  23.141
 8210SOL    HW136258   0.812   0.538  23.124
 8210SOL    HW236259   0.902   0.649  23.076
 8211SOL     OW36260   1.881   0.942   3.425
 8211SOL    HW136261   1.855   0.955   3.516
 8211SOL    HW236262   1.925   0.857   3.424
 8212SOL     OW36263   0.596   3.252  24.585
 8212SOL    HW136264   0.621   3.160  24.588
 8212SOL    HW236265   0.676   3.299  24.609
 8213SOL     OW36266   3.465   1.836   2.452
 8213SOL    HW136267   3.378   1.837   2.413
 8213SOL    HW236268   3.520   1.884   2.390
 8214SOL     OW36269   4.584   1.342   6.541
 8214SOL    HW136270   4.491   1.352   6.523
 8214SOL    HW236271   4.615   1.431   6.559
 8215SOL     OW36272   0.362   1.966   1.647
 8215SOL    HW136273   0.364   2.060   1.630
 8215SOL    HW236274   0.296   1.955   1.716
 8216SOL     OW36275   2.859   2.953  19.873
 8216SOL    HW136276   2.794   2.892  19.838
 8216SOL    HW236277   2.912   2.901  19.933
 8217SOL     OW36278   2.646   2.441  21.276
 8217SOL    HW136279   2.551   2.435  21.286
 8217SOL    HW236280   2.663   2.400  21.191
 8218SOL     OW36281   0.612   1.733  27.456
 8218SOL    HW136282   0.690   1.709  27.505
 8218SOL    HW236283   0.586   1.818  27.492
 8219SOL     OW36284   2.936   3.324   1.468
 8219SOL    HW136285   2.923   3.418   1.476
 8219SOL    HW236286   2.848   3.287   1.473
 8220SOL     OW36287   0.719   3.967  10.444
 8220SOL    HW136288   0.680   3.927  10.521
 8220SOL    HW236289   0.707   4.061  10.457
 8221SOL     OW36290   2.118   0.401   2.914
 8221SOL    HW136291   2.197   0.402   2.968
 8221SOL    HW236292   2.131   0.328   2.854
 8222SOL     OW36293   1.231   3.204   2.583
 8222SOL    HW136294   1.214   3.112   2.561
 8222SOL    HW236295   1.282   3.200   2.664
 8223SOL     OW36296   2.284   0.342  20.375
 8223SOL    HW136297   2.321   0.254  20.372
 8223SOL    HW236298   2.345   0.395  20.323
 8224SOL     OW36299   0.080   1.317   4.327
 8224SOL    HW136300   0.141   1.252   4.361
 8224SOL    HW236301   0.012   1.265   4.283
 8225SOL     OW36302   1.315   3.693  22.774
 8225SOL    HW136303   1.313   3.668  22.866
 8225SOL    HW236304   1.353   3.618  22.729
 8226SOL     OW36305   0.387   0.472  21.214
 8226SOL    HW136306   0.348   0.389  21.241
 8226SOL    HW236307   0.380   0.471  21.119
 8227SOL     OW36308   3.925   1.416  27.343
 8227SOL    HW136309   3.963   1.482  27.286
 8227SOL    HW236310   3.852   1.380  27.293
 8228SOL     OW36311   2.319   2.080   1.859
 8228SOL    HW136312   2.330   2.134   1.937
 8228SOL    HW236313   2.277   2.138   1.795
 8229SOL     OW36314   3.328   1.131  21.951
 8229SOL    HW136315   3.303   1.198  22.015
 8229SOL    HW236316   3.270   1.147  21.876
 8230SOL     OW36317   3.538   4.540   2.842
 8230SOL    HW136318   3.542   4.494   2.926
 8230SOL    HW236319   3.527   4.632   2.866
 8231SOL     OW36320   1.471   0.290   1.940
 8231SOL    HW136321   1.496   0.260   2.028
 8231SOL    HW236322   1.376   0.281   1.938
 8232SOL     OW36323   0.625   2.112  19.676
 8232SOL    HW136324   0.600   2.052  19.606
 8232SOL    HW236325   0.703   2.072  19.715
 8233SOL     OW36326   0.395   3.183  21.423
 8233SOL    HW136327   0.313   3.218  21.458
 8233SOL    HW236328   0.370   3.099  21.385
 8234SOL     OW36329   4.166   0.566   9.581
 8234SOL    HW136330   4.169   0.487   9.635
 8234SOL    HW236331   4.253   0.571   9.542
 8235SOL     OW36332   4.455   0.281   2.244
 8235SOL    HW136333   4.438   0.293   2.337
 8235SOL    HW236334   4.478   0.369   2.213
 8236SOL     OW36335   4.266   2.861   7.938
 8236SOL    HW136336   4.222   2.944   7.920
 8236SOL    HW236337   4.226   2.831   8.020
 8237SOL     OW36338   1.055   1.993   3.099
 8237SOL    HW136339   0.966   2.027   3.086
 8237SOL    HW236340   1.110   2.071   3.100
 8238SOL     OW36341   0.664   4.365   9.130
 8238SOL    HW136342   0.586   4.361   9.074
 8238SOL    HW236343   0.630   4.356   9.219
 8239SOL     OW36344   1.230   4.406  10.296
 8239SOL    HW136345   1.265   4.461  10.226
 8239SOL    HW236346   1.287   4.329  10.298
 8240SOL     OW36347   1.015   1.928  26.255
 8240SOL    HW136348   0.954   1.951  26.185
 8240SOL    HW236349   1.053   1.844  26.228
 8241SOL     OW36350   0.356   2.261  11.029
 8241SOL    HW136351   0.366   2.252  11.124
 8241SOL    HW236352   0.327   2.351  11.016
 8242SOL     OW36353   3.965   0.207   8.604
 8242SOL    HW136354   3.920   0.290   8.619
 8242SOL    HW236355   3.965   0.164   8.689
 8243SOL     OW36356   3.536   2.368   2.169
 8243SOL    HW136357   3.483   2.303   2.215
 8243SOL    HW236358   3.574   2.421   2.239
 8244SOL     OW36359   3.164   1.786   3.270
 8244SOL    HW136360   3.212   1.706   3.291
 8244SOL    HW236361   3.167   1.791   3.174
 8245SOL     OW36362   1.079   3.533  24.644
 8245SOL    HW136363   1.132   3.576  24.577
 8245SOL    HW236364   1.141   3.479  24.693
 8246SOL     OW36365   3.976   1.086  24.635
 8246SOL    HW136366   4.052   1.047  24.678
 8246SOL    HW236367   3.961   1.168  24.683
 8247SOL     OW36368   4.766   1.210   4.831
 8247SOL    HW136369   0.027   1.233   4.748
 8247SOL    HW236370   4.761   1.292   4.880
 8248SOL     OW36371   3.089   2.269  11.037
 8248SOL    HW136372   3.048   2.252  10.952
 8248SOL    HW236373   3.096   2.183  11.078
 8249SOL     OW36374   0.494   2.626  26.675
 8249SOL    HW136375   0.587   2.646  26.684
 8249SOL    HW236376   0.490   2.530  26.680
 8250SOL     OW36377   0.733   3.028  27.484
 8250SOL    HW136378   0.771   3.104  27.440
 8250SOL    HW236379   0.722   3.055  27.575
 8251SOL     OW36380   4.468   1.593  17.148
 8251SOL    HW136381   4.552   1.598  17.102
 8251SOL    HW236382   4.402   1.605  17.080
 8252SOL     OW36383   2.597   0.795  24.724
 8252SOL    HW136384   2.515   0.826  24.685
 8252SOL    HW236385   2.664   0.820  24.660
 8253SOL     OW36386   4.561   0.997   3.232
 8253SOL    HW136387   4.566   1.003   3.137
 8253SOL    HW236388   4.629   0.934   3.256
 8254SOL     OW36389   4.010   0.924  26.766
 8254SOL    HW136390   4.021   0.890  26.677
 8254SOL    HW236391   3.937   0.986  26.759
 8255SOL     OW36392   3.728   2.138  26.234
 8255SOL    HW136393   3.653   2.179  26.277
 8255SOL    HW236394   3.718   2.045  26.253
 8256SOL     OW36395   3.571   3.763   1.180
 8256SOL    HW136396   3.642   3.772   1.116
 8256SOL    HW236397   3.526   3.683   1.155
 8257SOL     OW36398   1.016   2.106   4.974
 8257SOL    HW136399   1.051   2.189   5.006
 8257SOL    HW236400   1.091   2.046   4.974
 8258SOL     OW36401   1.690   3.147   4.786
 8258SOL    HW136402   1.686   3.243   4.787
 8258SOL    HW236403   1.601   3.119   4.807
 8259SOL     OW36404   0.944   4.430   8.900
 8259SOL    HW136405   0.949   4.452   8.993
 8259SOL    HW236406   0.851   4.438   8.879
 8260SOL     OW36407   1.874   4.014  21.643
 8260SOL    HW136408   1.815   4.007  21.567
 8260SOL    HW236409   1.880   3.925  21.676
 8261SOL     OW36410   1.859   4.364   6.410
 8261SOL    HW136411   1.807   4.297   6.454
 8261SOL    HW236412   1.799   4.438   6.398
 8262SOL     OW36413   4.763   1.635  10.385
 8262SOL    HW136414   0.049   1.607  10.322
 8262SOL    HW236415   0.016   1.717  10.421
 8263SOL     OW36416   2.693   1.092   8.173
 8263SOL    HW136417   2.702   1.168   8.115
 8263SOL    HW236418   2.783   1.070   8.197
 8264SOL     OW36419   1.369   3.621   4.537
 8264SOL    HW136420   1.448   3.615   4.483
 8264SOL    HW236421   1.303   3.659   4.479
 8265SOL     OW36422   3.791   3.276  27.341
 8265SOL    HW136423   3.699   3.274  27.316
 8265SOL    HW236424   3.827   3.195  27.306
 8266SOL     OW36425   2.605   1.052  18.295
 8266SOL    HW136426   2.554   1.080  18.371
 8266SOL    HW236427   2.562   1.094  18.220
 8267SOL     OW36428   3.040   4.454   4.912
 8267SOL    HW136429   2.953   4.436   4.875
 8267SOL    HW236430   3.101   4.433   4.841
 8268SOL     OW36431   4.107   0.029  24.095
 8268SOL    HW136432   4.019   0.052  24.066
 8268SOL    HW236433   4.158   0.023  24.014
 8269SOL     OW36434   0.963   2.867   1.036
 8269SOL    HW136435   0.898   2.808   1.073
 8269SOL    HW236436   1.018   2.811   0.981
 8270SOL     OW36437   2.573   0.060   8.962
 8270SOL    HW136438   2.540   4.756   8.930
 8270SOL    HW236439   2.507   0.124   8.935
 8271SOL     OW36440   0.529   0.930  16.801
 8271SOL    HW136441   0.442   0.969  16.804
 8271SOL    HW236442   0.525   0.869  16.728
 8272SOL     OW36443   1.633   2.770   0.481
 8272SOL    HW136444   1.582   2.770   0.562
 8272SOL    HW236445   1.595   2.841   0.429
 8273SOL     OW36446   0.008   0.972  24.779
 8273SOL    HW136447   4.730   0.993  24.852
 8273SOL    HW236448   0.022   1.056  24.735
 8274SOL     OW36449   4.499   0.840  23.314
 8274SOL    HW136450   4.447   0.889  23.378
 8274SOL    HW236451   4.573   0.898  23.295
 8275SOL     OW36452   2.102   3.396  27.093
 8275SOL    HW136453   2.033   3.422  27.155
 8275SOL    HW236454   2.076   3.309  27.062
 8276SOL     OW36455   1.825   4.687   3.889
 8276SOL    HW136456   1.858   4.663   3.976
 8276SOL    HW236457   1.745   4.635   3.879
 8277SOL     OW36458   4.391   2.819  27.276
 8277SOL    HW136459   4.458   2.758  27.244
 8277SOL    HW236460   4.418   2.904  27.242
 8278SOL     OW36461   0.892   0.025   8.647
 8278SOL    HW136462   0.905   0.053   8.556
 8278SOL    HW236463   0.970   4.755   8.668
 8279SOL     OW36464   3.863   4.532   5.642
 8279SOL    HW136465   3.880   4.625   5.626
 8279SOL    HW236466   3.819   4.502   5.563
 8280SOL     OW36467   3.510   4.544  25.024
 8280SOL    HW136468   3.453   4.467  25.033
 8280SOL    HW236469   3.560   4.527  24.944
 8281SOL     OW36470   0.678   3.408  24.285
 8281SOL    HW136471   0.729   3.328  24.301
 8281SOL    HW236472   0.705   3.468  24.355
 8282SOL     OW36473   0.154   1.749  25.960
 8282SOL    HW136474   0.211   1.768  26.035
 8282SOL    HW236475   0.146   1.832  25.914
 8283SOL     OW36476   2.089   0.425  19.649
 8283SOL    HW136477   2.164   0.416  19.590
 8283SOL    HW236478   2.013   0.430  19.591
 8284SOL     OW36479   1.173   3.736  26.998
 8284SOL    HW136480   1.234   3.666  26.974
 8284SOL    HW236481   1.194   3.807  26.937
 8285SOL     OW36482   1.557   1.202   3.237
 8285SOL    HW136483   1.587   1.116   3.207
 8285SOL    HW236484   1.503   1.236   3.166
 8286SOL     OW36485   4.608   1.562  26.514
 8286SOL    HW136486   4.675   1.502  26.481
 8286SOL    HW236487   4.570   1.601  26.435
 8287SOL     OW36488   4.247   3.378  20.893
 8287SOL    HW136489   4.254   3.398  20.986
 8287SOL    HW236490   4.326   3.327  20.874
 8288SOL     OW36491   3.666   1.152  24.908
 8288SOL    HW136492   3.626   1.118  24.828
 8288SOL    HW236493   3.594   1.194  24.955
 8289SOL     OW36494   4.596   2.831  24.494
 8289SOL    HW136495   4.512   2.866  24.523
 8289SOL    HW236496   4.583   2.808  24.402
 8290SOL     OW36497   0.112   2.432  23.504
 8290SOL    HW136498   0.192   2.404  23.548
 8290SOL    HW236499   0.133   2.428  23.411
 8291SOL     OW36500   4.565   4.015   4.611
 8291SOL    HW136501   4.619   3.937   4.598
 8291SOL    HW236502   4.623   4.088   4.592
 8292SOL     OW36503   2.436   3.211   9.298
 8292SOL    HW136504   2.363   3.231   9.356
 8292SOL    HW236505   2.513   3.244   9.344
 8293SOL     OW36506   3.321   2.031   4.082
 8293SOL    HW136507   3.282   2.070   4.160
 8293SOL    HW236508   3.326   2.103   4.019
 8294SOL     OW36509   0.004   0.854  22.934
 8294SOL    HW136510   0.069   0.806  22.883
 8294SOL    HW236511   4.734   0.902  22.869
 8295SOL     OW36512   1.769   4.391  12.034
 8295SOL    HW136513   1.816   4.412  11.954
 8295SOL    HW236514   1.771   4.472  12.085
 8296SOL     OW36515   3.056   0.748  26.640
 8296SOL    HW136516   3.012   0.666  26.664
 8296SOL    HW236517   2.986   0.803  26.604
 8297SOL     OW36518   1.708   1.999   2.309
 8297SOL    HW136519   1.664   2.083   2.321
 8297SOL    HW236520   1.698   1.980   2.216
 8298SOL     OW36521   1.867   0.702  19.677
 8298SOL    HW136522   1.843   0.654  19.756
 8298SOL    HW236523   1.898   0.787  19.709
 8299SOL     OW36524   0.873   3.977   9.774
 8299SOL    HW136525   0.919   3.960   9.856
 8299SOL    HW236526   0.923   4.047   9.732
 8300SOL     OW36527   0.786   1.294  21.123
 8300SOL    HW136528   0.754   1.349  21.195
 8300SOL    HW236529   0.726   1.313  21.051
 8301SOL     OW36530   0.656   4.139   4.399
 8301SOL    HW136531   0.601   4.202   4.353
 8301SOL    HW236532   0.665   4.174   4.487
 8302SOL     OW36533   1.042   3.194  26.291
 8302SOL    HW136534   1.047   3.222  26.200
 8302SOL    HW236535   1.009   3.270  26.338
 8303SOL     OW36536   3.716   1.126  20.266
 8303SOL    HW136537   3.716   1.095  20.357
 8303SOL    HW236538   3.630   1.165  20.253
 8304SOL     OW36539   0.739   1.042  18.364
 8304SOL    HW136540   0.829   1.011  18.367
 8304SOL    HW236541   0.706   1.030  18.453
 8305SOL     OW36542   3.145   4.241   5.695
 8305SOL    HW136543   3.152   4.322   5.746
 8305SOL    HW236544   3.051   4.221   5.694
 8306SOL     OW36545   4.632   3.044  22.026
 8306SOL    HW136546   4.585   3.127  22.030
 8306SOL    HW236547   4.596   2.992  22.098
 8307SOL     OW36548   1.731   0.041  20.345
 8307SOL    HW136549   1.794   4.753  20.322
 8307SOL    HW236550   1.747   0.059  20.438
 8308SOL     OW36551   0.067   4.676   2.576
 8308SOL    HW136552   4.769   4.729   2.586
 8308SOL    HW236553   0.075   4.662   2.482
 8309SOL     OW36554   1.268   4.492  26.541
 8309SOL    HW136555   1.230   4.509  26.627
 8309SOL    HW236556   1.205   4.433  26.499
 8310SOL     OW36557   2.809   2.991  10.185
 8310SOL    HW136558   2.791   2.902  10.215
 8310SOL    HW236559   2.847   3.035  10.261
 8311SOL     OW36560   2.907   2.896  27.479
 8311SOL    HW136561   2.990   2.849  27.484
 8311SOL    HW236562   2.848   2.835  27.435
 8312SOL     OW36563   0.274   3.593   4.597
 8312SOL    HW136564   0.355   3.589   4.547
 8312SOL    HW236565   0.287   3.532   4.670
 8313SOL     OW36566   2.979   1.349   6.324
 8313SOL    HW136567   3.034   1.427   6.333
 8313SOL    HW236568   2.914   1.358   6.393
 8314SOL     OW36569   2.854   3.355  25.448
 8314SOL    HW136570   2.935   3.355  25.397
 8314SOL    HW236571   2.882   3.375  25.537
 8315SOL     OW36572   1.628   2.016  22.643
 8315SOL    HW136573   1.705   1.960  22.637
 8315SOL    HW236574   1.657   2.101  22.610
 8316SOL     OW36575   0.650   3.500  20.481
 8316SOL    HW136576   0.680   3.468  20.566
 8316SOL    HW236577   0.597   3.428  20.445
 8317SOL     OW36578   0.749   0.131  22.032
 8317SOL    HW136579   0.795   0.206  21.994
 8317SOL    HW236580   0.657   0.158  22.036
 8318SOL     OW36581   0.547   1.121   3.753
 8318SOL    HW136582   0.458   1.130   3.787
 8318SOL    HW236583   0.603   1.125   3.830
 8319SOL     OW36584   3.039   1.803  26.959
 8319SOL    HW136585   3.111   1.810  27.021
 8319SOL    HW236586   3.048   1.879  26.902
 8320SOL     OW36587   3.446   3.607   5.782
 8320SOL    HW136588   3.427   3.693   5.746
 8320SOL    HW236589   3.533   3.585   5.749
 8321SOL     OW36590   1.110   3.348   7.946
 8321SOL    HW136591   1.179   3.394   7.899
 8321SOL    HW236592   1.071   3.415   8.002
 8322SOL     OW36593   0.944   2.126  23.634
 8322SOL    HW136594   1.001   2.093  23.703
 8322SOL    HW236595   0.856   2.096  23.659
 8323SOL     OW36596   1.418   0.882   7.641
 8323SOL    HW136597   1.325   0.904   7.652
 8323SOL    HW236598   1.455   0.892   7.729
 8324SOL     OW36599   2.374   3.777   6.393
 8324SOL    HW136600   2.338   3.688   6.400
 8324SOL    HW236601   2.306   3.826   6.346
 8325SOL     OW36602   0.391   0.179  10.988
 8325SOL    HW136603   0.376   0.175  11.082
 8325SOL    HW236604   0.312   0.220  10.953
 8326SOL     OW36605   2.355   2.731   8.149
 8326SOL    HW136606   2.444   2.723   8.182
 8326SOL    HW236607   2.333   2.823   8.160
 8327SOL     OW36608   2.747   1.256   5.438
 8327SOL    HW136609   2.741   1.278   5.531
 8327SOL    HW236610   2.687   1.317   5.395
 8328SOL     OW36611   2.014   2.050   4.590
 8328SOL    HW136612   2.109   2.040   4.583
 8328SOL    HW236613   1.984   2.063   4.500
 8329SOL     OW36614   0.928   2.592  25.077
 8329SOL    HW136615   0.942   2.517  25.135
 8329SOL    HW236616   0.854   2.566  25.021
 8330SOL     OW36617   0.378   0.286   7.597
 8330SOL    HW136618   0.403   0.199   7.565
 8330SOL    HW236619   0.384   0.343   7.520
 8331SOL     OW36620   2.189   0.442  11.218
 8331SOL    HW136621   2.249   0.433  11.292
 8331SOL    HW236622   2.121   0.376  11.233
 8332SOL     OW36623   4.207   0.567  10.348
 8332SOL    HW136624   4.251   0.586  10.431
 8332SOL    HW236625   4.158   0.647  10.328
 8333SOL     OW36626   1.163   1.062   5.338
 8333SOL    HW136627   1.235   1.012   5.377
 8333SOL    HW236628   1.110   0.997   5.293
 8334SOL     OW36629   4.520   3.797   6.471
 8334SOL    HW136630   4.566   3.842   6.400
 8334SOL    HW236631   4.456   3.861   6.502
 8335SOL     OW36632   3.339   4.220  24.097
 8335SOL    HW136633   3.378   4.198  24.012
 8335SOL    HW236634   3.282   4.146  24.117
 8336SOL     OW36635   0.763   2.252   5.377
 8336SOL    HW136636   0.724   2.171   5.409
 8336SOL    HW236637   0.842   2.262   5.430
 8337SOL     OW36638   0.895   4.226   5.629
 8337SOL    HW136639   0.982   4.222   5.669
 8337SOL    HW236640   0.911   4.211   5.536
 8338SOL     OW36641   0.764   2.181   0.661
 8338SOL    HW136642   0.721   2.191   0.576
 8338SOL    HW236643   0.782   2.087   0.668
 8339SOL     OW36644   1.247   3.908  11.412
 8339SOL    HW136645   1.257   3.861  11.329
 8339SOL    HW236646   1.158   3.942  11.409
 8340SOL     OW36647   0.153   3.583   6.889
 8340SOL    HW136648   0.202   3.513   6.931
 8340SOL    HW236649   0.211   3.659   6.893
 8341SOL     OW36650   0.764   2.152   4.828
 8341SOL    HW136651   0.777   2.246   4.818
 8341SOL    HW236652   0.851   2.118   4.850
 8342SOL     OW36653   4.009   2.664  12.150
 8342SOL    HW136654   3.985   2.623  12.233
 8342SOL    HW236655   4.013   2.758  12.169
 8343SOL     OW36656   4.521   2.244   6.703
 8343SOL    HW136657   4.463   2.171   6.725
 8343SOL    HW236658   4.600   2.202   6.668
 8344SOL     OW36659   0.164   3.828  23.809
 8344SOL    HW136660   0.232   3.820  23.742
 8344SOL    HW236661   0.151   3.922  23.819
 8345SOL     OW36662   3.495   3.312  25.802
 8345SOL    HW136663   3.493   3.387  25.862
 8345SOL    HW236664   3.587   3.285  25.800
 8346SOL     OW36665   2.722   4.672   6.311
 8346SOL    HW136666   2.787   4.730   6.351
 8346SOL    HW236667   2.699   4.715   6.228
 8347SOL     OW36668   1.103   4.346   1.630
 8347SOL    HW136669   1.155   4.266   1.624
 8347SOL    HW236670   1.164   4.411   1.665
 8348SOL     OW36671   1.455   4.067   7.073
 8348SOL    HW136672   1.519   4.037   7.138
 8348SOL    HW236673   1.507   4.095   6.998
 8349SOL     OW36674   4.084   0.077   6.495
 8349SOL    HW136675   4.028   0.115   6.428
 8349SOL    HW236676   4.172   0.081   6.458
 8350SOL     OW36677   1.897   3.829  10.769
 8350SOL    HW136678   1.847   3.755  10.803
 8350SOL    HW236679   1.939   3.867  10.846
 8351SOL     OW36680   3.653   3.397   4.354
 8351SOL    HW136681   3.689   3.459   4.290
 8351SOL    HW236682   3.728   3.343   4.380
 8352SOL     OW36683   3.120   3.402  20.869
 8352SOL    HW136684   3.091   3.469  20.931
 8352SOL    HW236685   3.162   3.336  20.924
 8353SOL     OW36686   0.800   2.526   4.959
 8353SOL    HW136687   0.784   2.439   4.995
 8353SOL    HW236688   0.892   2.543   4.978
 8354SOL     OW36689   4.093   1.284  23.151
 8354SOL    HW136690   4.155   1.283  23.078
 8354SOL    HW236691   4.120   1.358  23.205
 8355SOL     OW36692   0.599   0.373   7.001
 8355SOL    HW136693   0.567   0.283   7.010
 8355SOL    HW236694   0.691   0.369   7.027
 8356SOL     OW36695   4.023   0.554   7.820
 8356SOL    HW136696   4.098   0.496   7.830
 8356SOL    HW236697   4.052   0.637   7.859
 8357SOL     OW36698   0.717   1.266  19.009
 8357SOL    HW136699   0.757   1.329  19.068
 8357SOL    HW236700   0.790   1.232  18.957
 8358SOL     OW36701   1.265   0.652  24.630
 8358SOL    HW136702   1.239   0.615  24.714
 8358SOL    HW236703   1.359   0.633  24.623
 8359SOL     OW36704   4.334   1.243  11.523
 8359SOL    HW136705   4.423   1.269  11.499
 8359SOL    HW236706   4.325   1.268  11.615
 8360SOL     OW36707   4.579   4.578   6.494
 8360SOL    HW136708   4.613   4.501   6.539
 8360SOL    HW236709   4.487   4.557   6.477
 8361SOL     OW36710   4.154   1.699   1.770
 8361SOL    HW136711   4.110   1.715   1.854
 8361SOL    HW236712   4.192   1.611   1.779
 8362SOL     OW36713   4.074   3.341   9.773
 8362SOL    HW136714   4.097   3.420   9.823
 8362SOL    HW236715   4.139   3.337   9.703
 8363SOL     OW36716   3.812   0.739  27.890
 8363SOL    HW136717   3.727   0.733  27.847
 8363SOL    HW236718   3.866   0.789  27.829
 8364SOL     OW36719   0.017   3.063   3.278
 8364SOL    HW136720   4.740   2.999   3.319
 8364SOL    HW236721   0.039   3.124   3.349
 8365SOL     OW36722   3.741   0.024  20.682
 8365SOL    HW136723   3.723   4.773  20.770
 8365SOL    HW236724   3.704   4.737  20.624
 8366SOL     OW36725   3.201   0.903   0.173
 8366SOL    HW136726   3.273   0.843   0.190
 8366SOL    HW236727   3.238   0.968   0.114
 8367SOL     OW36728   3.456   0.100  26.832
 8367SOL    HW136729   3.477   0.141  26.748
 8367SOL    HW236730   3.531   0.121  26.888
 8368SOL     OW36731   4.146   4.014   7.900
 8368SOL    HW136732   4.055   4.022   7.871
 8368SOL    HW236733   4.179   3.938   7.852
 8369SOL     OW36734   0.492   0.027   7.532
 8369SOL    HW136735   0.456   4.729   7.574
 8369SOL    HW236736   0.558   4.773   7.471
 8370SOL     OW36737   2.191   2.638  27.022
 8370SOL    HW136738   2.181   2.677  26.935
 8370SOL    HW236739   2.277   2.669  27.052
 8371SOL     OW36740   2.832   0.997   0.940
 8371SOL    HW136741   2.766   0.959   0.882
 8371SOL    HW236742   2.837   0.937   1.014
 8372SOL     OW36743   0.412   1.372  21.587
 8372SOL    HW136744   0.344   1.309  21.613
 8372SOL    HW236745   0.412   1.369  21.491
 8373SOL     OW36746   1.491   2.494  11.935
 8373SOL    HW136747   1.587   2.490  11.940
 8373SOL    HW236748   1.463   2.497  12.026
 8374SOL     OW36749   2.703   3.830  22.175
 8374SOL    HW136750   2.641   3.766  22.211
 8374SOL    HW236751   2.789   3.793  22.194
 8375SOL     OW36752   1.537   2.947  10.440
 8375SOL    HW136753   1.516   2.882  10.373
 8375SOL    HW236754   1.495   2.913  10.519
 8376SOL     OW36755   1.899   1.499   1.593
 8376SOL    HW136756   1.890   1.414   1.551
 8376SOL    HW236757   1.984   1.532   1.564
 8377SOL     OW36758   1.934   3.798   3.770
 8377SOL    HW136759   2.017   3.801   3.722
 8377SOL    HW236760   1.903   3.888   3.769
 8378SOL     OW36761   3.798   1.989  26.548
 8378SOL    HW136762   3.805   1.972  26.454
 8378SOL    HW236763   3.886   2.016  26.574
 8379SOL     OW36764   0.945   2.943   5.047
 8379SOL    HW136765   0.857   2.974   5.027
 8379SOL    HW236766   1.001   3.019   5.030
 8380SOL     OW36767   4.043   1.953  18.603
 8380SOL    HW136768   3.992   1.985  18.528
 8380SOL    HW236769   4.027   1.859  18.605
 8381SOL     OW36770   1.554   4.638  24.862
 8381SOL    HW136771   1.548   4.655  24.956
 8381SOL    HW236772   1.644   4.661  24.839
 8382SOL     OW36773   2.888   0.801   9.589
 8382SOL    HW136774   2.932   0.720   9.563
 8382SOL    HW236775   2.847   0.833   9.509
 8383SOL     OW36776   4.257   2.298  22.387
 8383SOL    HW136777   4.197   2.288  22.313
 8383SOL    HW236778   4.267   2.209  22.422
 8384SOL     OW36779   3.001   0.538   5.065
 8384SOL    HW136780   2.939   0.517   5.135
 8384SOL    HW236781   3.087   0.523   5.104
 8385SOL     OW36782   1.016   2.997   2.163
 8385SOL    HW136783   0.995   3.012   2.071
 8385SOL    HW236784   1.102   3.037   2.175
 8386SOL     OW36785   1.858   1.231  24.608
 8386SOL    HW136786   1.828   1.155  24.658
 8386SOL    HW236787   1.787   1.249  24.546
 8387SOL     OW36788   3.158   0.897  25.268
 8387SOL    HW136789   3.104   0.869  25.194
 8387SOL    HW236790   3.207   0.972  25.235
 8388SOL     OW36791   1.150   4.355   3.031
 8388SOL    HW136792   1.240   4.324   3.026
 8388SOL    HW236793   1.153   4.428   3.093
 8389SOL     OW36794   3.499   0.022   9.060
 8389SOL    HW136795   3.426   4.761   9.107
 8389SOL    HW236796   3.556   0.056   9.129
 8390SOL     OW36797   2.635   1.557  18.266
 8390SOL    HW136798   2.697   1.573  18.195
 8390SOL    HW236799   2.637   1.637  18.318
 8391SOL     OW36800   0.356   2.079  25.707
 8391SOL    HW136801   0.344   2.133  25.629
 8391SOL    HW236802   0.440   2.107  25.742
 8392SOL     OW36803   4.432   1.472  10.839
 8392SOL    HW136804   4.454   1.483  10.932
 8392SOL    HW236805   4.336   1.467  10.838
 8393SOL     OW36806   0.328   0.638   6.870
 8393SOL    HW136807   0.239   0.603   6.867
 8393SOL    HW236808   0.382   0.570   6.830
 8394SOL     OW36809   4.158   2.430  20.905
 8394SOL    HW136810   4.219   2.411  20.834
 8394SOL    HW236811   4.085   2.369  20.891
 8395SOL     OW36812   1.929   2.526  24.631
 8395SOL    HW136813   1.982   2.577  24.569
 8395SOL    HW236814   1.968   2.439  24.629
 8396SOL     OW36815   1.998   4.363   3.222
 8396SOL    HW136816   1.941   4.437   3.200
 8396SOL    HW236817   2.043   4.342   3.140
 8397SOL     OW36818   1.966   1.860   8.058
 8397SOL    HW136819   1.987   1.800   8.130
 8397SOL    HW236820   1.880   1.895   8.081
 8398SOL     OW36821   2.864   2.125  25.728
 8398SOL    HW136822   2.784   2.116  25.676
 8398SOL    HW236823   2.836   2.110  25.818
 8399SOL     OW36824   2.130   4.009  18.462
 8399SOL    HW136825   2.093   3.975  18.544
 8399SOL    HW236826   2.223   3.985  18.467
 8400SOL     OW36827   2.077   0.308  12.446
 8400SOL    HW136828   2.164   0.346  12.462
 8400SOL    HW236829   2.016   0.376  12.476
 8401SOL     OW36830   3.937   2.150   5.207
 8401SOL    HW136831   3.878   2.077   5.226
 8401SOL    HW236832   3.939   2.155   5.111
 8402SOL     OW36833   0.571   3.398   6.458
 8402SOL    HW136834   0.600   3.310   6.433
 8402SOL    HW236835   0.599   3.454   6.386
 8403SOL     OW36836   1.767   2.628  21.376
 8403SOL    HW136837   1.850   2.668  21.401
 8403SOL    HW236838   1.775   2.612  21.282
 8404SOL     OW36839   2.184   0.553   1.335
 8404SOL    HW136840   2.279   0.566   1.340
 8404SOL    HW236841   2.161   0.581   1.247
 8405SOL     OW36842   3.818   2.962  26.565
 8405SOL    HW136843   3.727   2.939  26.581
 8405SOL    HW236844   3.850   2.996  26.649
 8406SOL     OW36845   2.257   1.347   8.171
 8406SOL    HW136846   2.227   1.303   8.251
 8406SOL    HW236847   2.176   1.370   8.125
 8407SOL     OW36848   3.153   3.687  28.477
 8407SOL    HW136849   3.167   3.700  28.383
 8407SOL    HW236850   3.225   3.734  28.518
 8408SOL     OW36851   2.878   0.762   4.014
 8408SOL    HW136852   2.825   0.775   4.092
 8408SOL    HW236853   2.849   0.678   3.978
 8409SOL     OW36854   3.164   0.213   2.587
 8409SOL    HW136855   3.199   0.151   2.523
 8409SOL    HW236856   3.117   0.278   2.535
 8410SOL     OW36857   4.449   2.966  10.032
 8410SOL    HW136858   4.430   3.059  10.046
 8410SOL    HW236859   4.422   2.949   9.942
 8411SOL     OW36860   2.467   2.838  24.200
 8411SOL    HW136861   2.513   2.910  24.158
 8411SOL    HW236862   2.485   2.762  24.145
 8412SOL     OW36863   3.998   2.245  20.189
 8412SOL    HW136864   4.035   2.302  20.122
 8412SOL    HW236865   4.020   2.156  20.161
 8413SOL     OW36866   1.405   0.581   5.971
 8413SOL    HW136867   1.499   0.581   5.990
 8413SOL    HW236868   1.380   0.488   5.971
 8414SOL     OW36869   2.447   4.585   8.881
 8414SOL    HW136870   2.423   4.498   8.913
 8414SOL    HW236871   2.466   4.572   8.788
 8415SOL     OW36872   1.099   2.473   6.733
 8415SOL    HW136873   1.159   2.423   6.788
 8415SOL    HW236874   1.150   2.494   6.655
 8416SOL     OW36875   3.138   1.027   6.044
 8416SOL    HW136876   3.044   1.021   6.028
 8416SOL    HW236877   3.148   1.106   6.098
 8417SOL     OW36878   1.983   3.844   1.451
 8417SOL    HW136879   1.983   3.912   1.518
 8417SOL    HW236880   2.076   3.826   1.436
 8418SOL     OW36881   4.532   3.335   1.907
 8418SOL    HW136882   4.513   3.402   1.973
 8418SOL    HW236883   4.540   3.254   1.957
 8419SOL     OW36884   0.638   1.306  22.175
 8419SOL    HW136885   0.647   1.338  22.085
 8419SOL    HW236886   0.555   1.258  22.176
 8420SOL     OW36887   2.103   0.441  24.170
 8420SOL    HW136888   2.010   0.428  24.190
 8420SOL    HW236889   2.118   0.388  24.092
 8421SOL     OW36890   0.772   0.386  12.209
 8421SOL    HW136891   0.838   0.326  12.173
 8421SOL    HW236892   0.787   0.384  12.303
 8422SOL     OW36893   0.040   3.587  22.777
 8422SOL    HW136894   0.106   3.568  22.711
 8422SOL    HW236895   0.079   3.656  22.831
 8423SOL     OW36896   1.973   2.122  20.916
 8423SOL    HW136897   1.887   2.164  20.919
 8423SOL    HW236898   2.034   2.191  20.940
 8424SOL     OW36899   3.242   2.880  24.983
 8424SOL    HW136900   3.286   2.909  25.063
 8424SOL    HW236901   3.238   2.785  24.991
 8425SOL     OW36902   2.889   3.687   7.336
 8425SOL    HW136903   2.982   3.666   7.327
 8425SOL    HW236904   2.884   3.782   7.328
 8426SOL     OW36905   2.612   0.609   5.004
 8426SOL    HW136906   2.674   0.583   4.936
 8426SOL    HW236907   2.547   0.662   4.958
 8427SOL     OW36908   2.794   3.129   8.052
 8427SOL    HW136909   2.882   3.091   8.050
 8427SOL    HW236910   2.809   3.224   8.052
 8428SOL     OW36911   0.549   2.024   4.960
 8428SOL    HW136912   0.624   2.041   4.903
 8428SOL    HW236913   0.546   1.929   4.968
 8429SOL     OW36914   1.559   2.673  11.496
 8429SOL    HW136915   1.470   2.684  11.464
 8429SOL    HW236916   1.565   2.580  11.516
 8430SOL     OW36917   0.167   2.243  19.881
 8430SOL    HW136918   0.102   2.312  19.864
 8430SOL    HW236919   0.115   2.165  19.900
 8431SOL     OW36920   2.216   2.057  19.961
 8431SOL    HW136921   2.260   2.046  20.045
 8431SOL    HW236922   2.140   2.111  19.981
 8432SOL     OW36923   0.759   4.093  21.835
 8432SOL    HW136924   0.680   4.138  21.804
 8432SOL    HW236925   0.726   4.011  21.873
 8433SOL     OW36926   0.152   2.752   4.911
 8433SOL    HW136927   0.159   2.705   4.994
 8433SOL    HW236928   0.058   2.762   4.898
 8434SOL     OW36929   3.913   3.625  11.381
 8434SOL    HW136930   3.942   3.628  11.472
 8434SOL    HW236931   3.893   3.533  11.365
 8435SOL     OW36932   2.393   0.138   1.052
 8435SOL    HW136933   2.447   0.186   1.115
 8435SOL    HW236934   2.335   0.204   1.015
 8436SOL     OW36935   4.248   2.309  12.160
 8436SOL    HW136936   4.300   2.231  12.139
 8436SOL    HW236937   4.294   2.349  12.234
 8437SOL     OW36938   2.104   2.679   3.443
 8437SOL    HW136939   2.164   2.745   3.409
 8437SOL    HW236940   2.019   2.724   3.447
 8438SOL     OW36941   0.111   1.303   1.229
 8438SOL    HW136942   0.170   1.378   1.223
 8438SOL    HW236943   0.158   1.232   1.185
 8439SOL     OW36944   2.888   0.117   9.891
 8439SOL    HW136945   2.973   0.085   9.861
 8439SOL    HW236946   2.847   0.041   9.934
 8440SOL     OW36947   1.203   1.226   8.400
 8440SOL    HW136948   1.125   1.202   8.350
 8440SOL    HW236949   1.187   1.190   8.487
 8441SOL     OW36950   0.770   3.466   1.646
 8441SOL    HW136951   0.721   3.478   1.727
 8441SOL    HW236952   0.760   3.549   1.600
 8442SOL     OW36953   1.904   2.623  25.102
 8442SOL    HW136954   1.911   2.541  25.053
 8442SOL    HW236955   1.913   2.597  25.194
 8443SOL     OW36956   4.532   1.871   9.757
 8443SOL    HW136957   4.501   1.916   9.835
 8443SOL    HW236958   4.594   1.805   9.790
 8444SOL     OW36959   4.131   2.160  21.374
 8444SOL    HW136960   4.193   2.151  21.446
 8444SOL    HW236961   4.045   2.167  21.416
 8445SOL     OW36962   2.602   3.744  28.263
 8445SOL    HW136963   2.531   3.735  28.327
 8445SOL    HW236964   2.678   3.771  28.315
 8446SOL     OW36965   2.690   0.338   1.950
 8446SOL    HW136966   2.690   0.427   1.915
 8446SOL    HW236967   2.782   0.312   1.948
 8447SOL     OW36968   3.774   4.247   1.438
 8447SOL    HW136969   3.727   4.164   1.425
 8447SOL    HW236970   3.705   4.314   1.436
 8448SOL     OW36971   0.669   3.140  19.177
 8448SOL    HW136972   0.673   3.059  19.228
 8448SOL    HW236973   0.589   3.131  19.126
 8449SOL     OW36974   4.029   0.752   4.681
 8449SOL    HW136975   4.000   0.826   4.735
 8449SOL    HW236976   3.972   0.755   4.604
 8450SOL     OW36977   2.327   2.682  23.626
 8450SOL    HW136978   2.346   2.767  23.586
 8450SOL    HW236979   2.382   2.620  23.578
 8451SOL     OW36980   4.537   2.853  10.264
 8451SOL    HW136981   4.619   2.903  10.261
 8451SOL    HW236982   4.502   2.859  10.175
 8452SOL     OW36983   2.473   0.263  14.294
 8452SOL    HW136984   2.490   0.354  14.269
 8452SOL    HW236985   2.484   0.214  14.213
 8453SOL     OW36986   4.230   3.791  10.563
 8453SOL    HW136987   4.150   3.844  10.565
 8453SOL    HW236988   4.200   3.702  10.582
 8454SOL     OW36989   1.334   1.351   0.578
 8454SOL    HW136990   1.411   1.310   0.617
 8454SOL    HW236991   1.339   1.327   0.485
 8455SOL     OW36992   4.656   0.011   7.038
 8455SOL    HW136993   4.606   0.089   7.013
 8455SOL    HW236994   4.634   4.727   6.971
 8456SOL     OW36995   4.276   2.775  22.190
 8456SOL    HW136996   4.218   2.814  22.256
 8456SOL    HW236997   4.263   2.681  22.199
 8457SOL     OW36998   2.194   3.976  24.111
 8457SOL    HW136999   2.194   4.064  24.148
 8457SOL    HW237000   2.103   3.948  24.114
 8458SOL     OW37001   4.308   3.034  10.435
 8458SOL    HW137002   4.274   3.121  10.454
 8458SOL    HW237003   4.403   3.044  10.437
 8459SOL     OW37004   3.753   4.233   7.947
 8459SOL    HW137005   3.790   4.145   7.951
 8459SOL    HW237006   3.662   4.219   7.920
 8460SOL     OW37007   3.046   1.370   9.976
 8460SOL    HW137008   2.981   1.440   9.969
 8460SOL    HW237009   3.066   1.366  10.070
 8461SOL     OW37010   3.706   0.095   8.102
 8461SOL    HW137011   3.678   0.004   8.105
 8461SOL    HW237012   3.791   0.095   8.146
 8462SOL     OW37013   2.833   3.996  23.091
 8462SOL    HW137014   2.880   4.072  23.058
 8462SOL    HW237015   2.789   4.027  23.170
 8463SOL     OW37016   2.714   3.653   6.319
 8463SOL    HW137017   2.798   3.615   6.344
 8463SOL    HW237018   2.671   3.674   6.402
 8464SOL     OW37019   3.624   4.409  20.789
 8464SOL    HW137020   3.628   4.495  20.831
 8464SOL    HW237021   3.711   4.398  20.750
 8465SOL     OW37022   3.769   2.003   3.637
 8465SOL    HW137023   3.702   2.069   3.656
 8465SOL    HW237024   3.733   1.921   3.671
 8466SOL     OW37025   4.524   2.576  10.375
 8466SOL    HW137026   4.534   2.668  10.350
 8466SOL    HW237027   4.537   2.528  10.293
 8467SOL     OW37028   4.716   0.556  18.773
 8467SOL    HW137029   4.699   0.462  18.782
 8467SOL    HW237030   0.031   0.564  18.772
 8468SOL     OW37031   4.092   1.714   4.695
 8468SOL    HW137032   4.083   1.743   4.604
 8468SOL    HW237033   4.128   1.625   4.688
 8469SOL     OW37034   3.482   0.665   4.352
 8469SOL    HW137035   3.534   0.605   4.405
 8469SOL    HW237036   3.466   0.617   4.271
 8470SOL     OW37037   4.579   0.862   8.036
 8470SOL    HW137038   4.491   0.895   8.018
 8470SOL    HW237039   4.582   0.778   7.990
 8471SOL     OW37040   4.197   1.983  24.676
 8471SOL    HW137041   4.274   1.927  24.669
 8471SOL    HW237042   4.167   1.994  24.586
 8472SOL     OW37043   0.656   0.100  23.776
 8472SOL    HW137044   0.704   0.020  23.754
 8472SOL    HW237045   0.594   0.073  23.844
 8473SOL     OW37046   0.682   1.715   5.449
 8473SOL    HW137047   0.625   1.737   5.522
 8473SOL    HW237048   0.759   1.771   5.460
 8474SOL     OW37049   2.877   3.817  23.934
 8474SOL    HW137050   2.816   3.757  23.891
 8474SOL    HW237051   2.825   3.895  23.952
 8475SOL     OW37052   0.433   1.049   6.426
 8475SOL    HW137053   0.474   1.076   6.344
 8475SOL    HW237054   0.339   1.057   6.410
 8476SOL     OW37055   3.656   1.996   1.022
 8476SOL    HW137056   3.624   2.084   1.040
 8476SOL    HW237057   3.691   2.001   0.933
 8477SOL     OW37058   3.895   4.020   7.763
 8477SOL    HW137059   3.876   4.081   7.692
 8477SOL    HW237060   3.810   3.983   7.787
 8478SOL     OW37061   4.201   0.434   5.768
 8478SOL    HW137062   4.196   0.499   5.698
 8478SOL    HW237063   4.291   0.401   5.764
 8479SOL     OW37064   3.533   3.496  10.486
 8479SOL    HW137065   3.543   3.480  10.580
 8479SOL    HW237066   3.438   3.493  10.471
 8480SOL     OW37067   3.536   3.846  11.013
 8480SOL    HW137068   3.445   3.848  11.042
 8480SOL    HW237069   3.581   3.794  11.079
 8481SOL     OW37070   1.983   1.121  24.300
 8481SOL    HW137071   1.896   1.081  24.301
 8481SOL    HW237072   2.023   1.094  24.382
 8482SOL     OW37073   3.972   3.595  11.656
 8482SOL    HW137074   3.920   3.534  11.708
 8482SOL    HW237075   4.060   3.590  11.693
 8483SOL     OW37076   4.250   1.368  21.422
 8483SOL    HW137077   4.257   1.280  21.460
 8483SOL    HW237078   4.169   1.366  21.371
 8484SOL     OW37079   1.795   3.031  10.435
 8484SOL    HW137080   1.812   2.981  10.355
 8484SOL    HW237081   1.701   3.021  10.450
 8485SOL     OW37082   2.559   4.717  22.725
 8485SOL    HW137083   2.534   4.766  22.647
 8485SOL    HW237084   2.636   4.667  22.698
 8486SOL     OW37085   0.970   3.889  12.153
 8486SOL    HW137086   1.045   3.917  12.206
 8486SOL    HW237087   0.920   3.831  12.211
 8487SOL     OW37088   0.862   3.884  11.885
 8487SOL    HW137089   0.792   3.856  11.826
 8487SOL    HW237090   0.819   3.943  11.947
 8488SOL     OW37091   4.107   4.345   3.000
 8488SOL    HW137092   4.171   4.302   3.057
 8488SOL    HW237093   4.089   4.280   2.932
 8489SOL     OW37094   1.803   2.370   4.380
 8489SOL    HW137095   1.738   2.317   4.427
 8489SOL    HW237096   1.846   2.422   4.448
 8490SOL     OW37097   4.557   1.465  19.168
 8490SOL    HW137098   4.628   1.529  19.176
 8490SOL    HW237099   4.593   1.385  19.206
 8491SOL     OW37100   0.231   3.889   2.630
 8491SOL    HW137101   0.311   3.843   2.605
 8491SOL    HW237102   0.160   3.829   2.606
 8492SOL     OW37103   2.804   4.185   6.013
 8492SOL    HW137104   2.755   4.151   6.088
 8492SOL    HW237105   2.883   4.130   6.009
 8493SOL     OW37106   2.065   4.341  23.490
 8493SOL    HW137107   2.091   4.330  23.581
 8493SOL    HW237108   2.079   4.255  23.450
 8494SOL     OW37109   3.817   1.696   4.527
 8494SOL    HW137110   3.884   1.762   4.510
 8494SOL    HW237111   3.780   1.721   4.612
 8495SOL     OW37112   4.627   2.522   8.559
 8495SOL    HW137113   4.666   2.600   8.520
 8495SOL    HW237114   4.549   2.555   8.604
 8496SOL     OW37115   3.406   3.515   6.205
 8496SOL    HW137116   3.500   3.501   6.213
 8496SOL    HW237117   3.370   3.488   6.290
 8497SOL     OW37118   0.644   0.396  23.731
 8497SOL    HW137119   0.720   0.442  23.695
 8497SOL    HW237120   0.678   0.310  23.755
 8498SOL     OW37121   3.445   4.623  11.810
 8498SOL    HW137122   3.480   4.537  11.788
 8498SOL    HW237123   3.453   4.629  11.905
 8499SOL     OW37124   3.900   0.402  12.892
 8499SOL    HW137125   3.928   0.453  12.968
 8499SOL    HW237126   3.892   0.313  12.925
 8500SOL     OW37127   3.872   3.606  13.312
 8500SOL    HW137128   3.911   3.694  13.314
 8500SOL    HW237129   3.823   3.600  13.394
 8501SOL     OW37130   0.328   4.179  12.496
 8501SOL    HW137131   0.409   4.220  12.527
 8501SOL    HW237132   0.276   4.252  12.461
 8502SOL     OW37133   2.559   0.424  11.807
 8502SOL    HW137134   2.536   0.477  11.884
 8502SOL    HW237135   2.627   0.475  11.763
 8503SOL     OW37136   4.536   2.824  10.525
 8503SOL    HW137137   4.519   2.836  10.432
 8503SOL    HW237138   4.492   2.742  10.547
 8504SOL     OW37139   3.439   2.546   6.958
 8504SOL    HW137140   3.473   2.575   7.042
 8504SOL    HW237141   3.350   2.516   6.977
 8505SOL     OW37142   4.013   3.867  10.186
 8505SOL    HW137143   4.009   3.814  10.265
 8505SOL    HW237144   3.981   3.953  10.213
 8506SOL     OW37145   4.145   0.848  12.496
 8506SOL    HW137146   4.050   0.862  12.495
 8506SOL    HW237147   4.182   0.931  12.466
 8507SOL     OW37148   3.689   2.718  11.758
 8507SOL    HW137149   3.729   2.781  11.818
 8507SOL    HW237150   3.651   2.651  11.815
 8508SOL     OW37151   4.372   3.021  11.591
 8508SOL    HW137152   4.415   3.080  11.653
 8508SOL    HW237153   4.430   3.020  11.515
 8509SOL     OW37154   4.586   4.622  12.829
 8509SOL    HW137155   4.628   4.655  12.908
 8509SOL    HW237156   4.492   4.623  12.850
 8510SOL     OW37157   3.906   2.691  12.887
 8510SOL    HW137158   3.826   2.644  12.909
 8510SOL    HW237159   3.876   2.767  12.836
 8511SOL     OW37160   4.670   3.313  11.541
 8511SOL    HW137161   4.763   3.296  11.528
 8511SOL    HW237162   4.630   3.226  11.545
 8512SOL     OW37163   4.610   4.502  12.558
 8512SOL    HW137164   4.705   4.496  12.568
 8512SOL    HW237165   4.579   4.530  12.644
 8513SOL     OW37166   4.003   4.584  12.203
 8513SOL    HW137167   3.947   4.518  12.162
 8513SOL    HW237168   4.084   4.538  12.223
 8514SOL     OW37169   1.339   3.675  13.293
 8514SOL    HW137170   1.347   3.689  13.387
 8514SOL    HW237171   1.393   3.597  13.276
 8515SOL     OW37172   0.457   2.268  12.257
 8515SOL    HW137173   0.509   2.336  12.301
 8515SOL    HW237174   0.415   2.220  12.328
 8516SOL     OW37175   4.117   3.979  11.746
 8516SOL    HW137176   4.159   4.045  11.690
 8516SOL    HW237177   4.048   4.027  11.791
 8517SOL     OW37178   3.944   3.516  12.891
 8517SOL    HW137179   3.860   3.484  12.859
 8517SOL    HW237180   3.976   3.447  12.949
 8518SOL     OW37181   3.521   3.841  11.364
 8518SOL    HW137182   3.500   3.748  11.368
 8518SOL    HW237183   3.607   3.844  11.322
 8519SOL     OW37184   0.141   3.344  12.391
 8519SOL    HW137185   0.185   3.425  12.416
 8519SOL    HW237186   0.208   3.294  12.344
 8520SOL     OW37187   0.446   3.490  13.122
 8520SOL    HW137188   0.433   3.403  13.085
 8520SOL    HW237189   0.370   3.540  13.092
 8521SOL     OW37190   0.141   4.335  12.362
 8521SOL    HW137191   0.104   4.376  12.284
 8521SOL    HW237192   0.068   4.285  12.400
 8522SOL     OW37193   4.159   2.598  11.054
 8522SOL    HW137194   4.083   2.582  11.110
 8522SOL    HW237195   4.207   2.669  11.098
 8523SOL     OW37196   4.527   3.687  12.945
 8523SOL    HW137197   4.507   3.766  12.894
 8523SOL    HW237198   4.572   3.629  12.884
 8524SOL     OW37199   0.353   3.707   3.299
 8524SOL    HW137200   0.295   3.717   3.224
 8524SOL    HW237201   0.438   3.737   3.268
 8525SOL     OW37202   4.619   3.576  11.544
 8525SOL    HW137203   4.546   3.551  11.600
 8525SOL    HW237204   4.658   3.493  11.518
 8526SOL     OW37205   1.995   0.276   6.028
 8526SOL    HW137206   1.922   0.251   5.972
 8526SOL    HW237207   1.992   0.215   6.101
 8527SOL     OW37208   3.889   2.840  11.138
 8527SOL    HW137209   3.887   2.744  11.137
 8527SOL    HW237210   3.868   2.863  11.229
 8528SOL     OW37211   4.649   3.591  12.725
 8528SOL    HW137212   4.706   3.666  12.707
 8528SOL    HW237213   4.680   3.523  12.666
 8529SOL     OW37214   4.558   3.680  13.208
 8529SOL    HW137215   4.553   3.701  13.115
 8529SOL    HW237216   4.493   3.738  13.248
 8530SOL     OW37217   3.810   0.472  11.900
 8530SOL    HW137218   3.790   0.445  11.810
 8530SOL    HW237219   3.854   0.396  11.938
 8531SOL     OW37220   3.837   4.338  12.088
 8531SOL    HW137221   3.928   4.316  12.109
 8531SOL    HW237222   3.790   4.255  12.095
 8532SOL     OW37223   3.785   4.051  12.676
 8532SOL    HW137224   3.769   3.996  12.753
 8532SOL    HW237225   3.875   4.082  12.687
 8533SOL     OW37226   4.327   1.973  13.026
 8533SOL    HW137227   4.295   1.999  13.112
 8533SOL    HW237228   4.390   2.041  13.003
 8534SOL     OW37229   3.922   3.731  12.395
 8534SOL    HW137230   3.940   3.732  12.489
 8534SOL    HW237231   3.958   3.648  12.364
 8535SOL     OW37232   1.682   0.329   1.308
 8535SOL    HW137233   1.671   0.332   1.403
 8535SOL    HW237234   1.611   0.272   1.278
 8536SOL     OW37235   4.004   3.277  12.223
 8536SOL    HW137236   3.989   3.339  12.295
 8536SOL    HW237237   4.028   3.195  12.266
 8537SOL     OW37238   3.958   3.172  12.866
 8537SOL    HW137239   3.973   3.141  12.955
 8537SOL    HW237240   3.870   3.140  12.844
 8538SOL     OW37241   3.637   4.281  12.760
 8538SOL    HW137242   3.548   4.253  12.784
 8538SOL    HW237243   3.684   4.199  12.744
 8539SOL     OW37244   3.750   4.094  12.066
 8539SOL    HW137245   3.673   4.046  12.035
 8539SOL    HW237246   3.790   4.036  12.131
 8540SOL     OW37247   3.314   4.080  12.673
 8540SOL    HW137248   3.352   4.119  12.752
 8540SOL    HW237249   3.238   4.134  12.654
 8541SOL     OW37250   0.989   2.734  19.897
 8541SOL    HW137251   1.009   2.797  19.828
 8541SOL    HW237252   1.074   2.696  19.920
 8542SOL     OW37253   3.715   3.708  13.114
 8542SOL    HW137254   3.759   3.791  13.097
 8542SOL    HW237255   3.780   3.656  13.161
 8543SOL     OW37256   0.562   3.517   9.163
 8543SOL    HW137257   0.516   3.445   9.206
 8543SOL    HW237258   0.579   3.485   9.074
 8544SOL     OW37259   3.076   3.478  12.677
 8544SOL    HW137260   3.080   3.386  12.704
 8544SOL    HW237261   3.046   3.524  12.755
 8545SOL     OW37262   3.586   2.358  13.099
 8545SOL    HW137263   3.622   2.282  13.144
 8545SOL    HW237264   3.537   2.404  13.167
 8546SOL     OW37265   2.838   2.192   0.892
 8546SOL    HW137266   2.886   2.272   0.870
 8546SOL    HW237267   2.803   2.162   0.808
 8547SOL     OW37268   3.860   2.898  12.712
 8547SOL    HW137269   3.817   2.983  12.707
 8547SOL    HW237270   3.934   2.905  12.651
 8548SOL     OW37271   3.368   4.484  13.370
 8548SOL    HW137272   3.369   4.574  13.404
 8548SOL    HW237273   3.459   4.455  13.376
 8549SOL     OW37274   3.346   3.817  12.046
 8549SOL    HW137275   3.413   3.859  12.100
 8549SOL    HW237276   3.364   3.723  12.054
 8550SOL     OW37277   4.417   1.898  12.789
 8550SOL    HW137278   4.334   1.868  12.751
 8550SOL    HW237279   4.393   1.932  12.875
 8551SOL     OW37280   0.545   3.113  11.779
 8551SOL    HW137281   0.636   3.085  11.774
 8551SOL    HW237282   0.513   3.076  11.861
 8552SOL     OW37283   4.183   4.196  11.613
 8552SOL    HW137284   4.101   4.229  11.577
 8552SOL    HW237285   4.238   4.274  11.624
 8553SOL     OW37286   4.161   4.202  14.267
 8553SOL    HW137287   4.086   4.198  14.207
 8553SOL    HW237288   4.236   4.223  14.211
 8554SOL     OW37289   4.774   0.498  13.483
 8554SOL    HW137290   4.689   0.458  13.500
 8554SOL    HW237291   0.013   0.549  13.562
 8555SOL     OW37292   0.905   0.800  13.116
 8555SOL    HW137293   0.904   0.743  13.192
 8555SOL    HW237294   0.993   0.790  13.079
 8556SOL     OW37295   3.761   0.642  15.235
 8556SOL    HW137296   3.827   0.638  15.304
 8556SOL    HW237297   3.810   0.666  15.156
 8557SOL     OW37298   3.473   2.718  11.563
 8557SOL    HW137299   3.539   2.736  11.630
 8557SOL    HW237300   3.517   2.736  11.480
 8558SOL     OW37301   0.275   4.636  14.424
 8558SOL    HW137302   0.297   4.638  14.331
 8558SOL    HW237303   0.348   4.589  14.464
 8559SOL     OW37304   0.354   4.162  14.100
 8559SOL    HW137305   0.310   4.231  14.150
 8559SOL    HW237306   0.294   4.143  14.028
 8560SOL     OW37307   4.266   3.310  14.240
 8560SOL    HW137308   4.342   3.322  14.297
 8560SOL    HW237309   4.199   3.272  14.297
 8561SOL     OW37310   4.256   0.094  15.273
 8561SOL    HW137311   4.200   0.124  15.201
 8561SOL    HW237312   4.198   0.090  15.349
 8562SOL     OW37313   0.279   3.133  14.845
 8562SOL    HW137314   0.192   3.149  14.881
 8562SOL    HW237315   0.316   3.065  14.901
 8563SOL     OW37316   4.405   3.857  13.344
 8563SOL    HW137317   4.328   3.913  13.332
 8563SOL    HW237318   4.448   3.891  13.423
 8564SOL     OW37319   0.216   3.568  13.876
 8564SOL    HW137320   0.255   3.484  13.899
 8564SOL    HW237321   0.190   3.607  13.960
 8565SOL     OW37322   0.873   1.748  12.908
 8565SOL    HW137323   0.883   1.660  12.943
 8565SOL    HW237324   0.892   1.806  12.982
 8566SOL     OW37325   3.477   3.254  13.071
 8566SOL    HW137326   3.387   3.255  13.102
 8566SOL    HW237327   3.472   3.288  12.982
 8567SOL     OW37328   4.557   4.235  14.192
 8567SOL    HW137329   4.470   4.244  14.154
 8567SOL    HW237330   4.609   4.193  14.124
 8568SOL     OW37331   3.573   3.693  14.057
 8568SOL    HW137332   3.487   3.680  14.096
 8568SOL    HW237333   3.581   3.788  14.049
 8569SOL     OW37334   0.447   3.807  14.965
 8569SOL    HW137335   0.434   3.820  14.871
 8569SOL    HW237336   0.371   3.849  15.005
 8570SOL     OW37337   3.887   4.101  15.069
 8570SOL    HW137338   3.845   4.018  15.044
 8570SOL    HW237339   3.936   4.127  14.991
 8571SOL     OW37340   0.162   3.307  14.132
 8571SOL    HW137341   0.233   3.303  14.068
 8571SOL    HW237342   0.200   3.270  14.212
 8572SOL     OW37343   3.723   0.151  13.982
 8572SOL    HW137344   3.657   0.092  13.945
 8572SOL    HW237345   3.708   0.149  14.076
 8573SOL     OW37346   2.811   3.418  13.892
 8573SOL    HW137347   2.800   3.401  13.798
 8573SOL    HW237348   2.905   3.411  13.907
 8574SOL     OW37349   4.085   3.106  14.955
 8574SOL    HW137350   4.051   3.150  15.033
 8574SOL    HW237351   4.125   3.026  14.988
 8575SOL     OW37352   3.910   4.586  14.476
 8575SOL    HW137353   3.891   4.651  14.408
 8575SOL    HW237354   3.841   4.598  14.541
 8576SOL     OW37355   4.492   3.423  14.332
 8576SOL    HW137356   4.545   3.405  14.254
 8576SOL    HW237357   4.451   3.508  14.313
 8577SOL     OW37358   4.051   2.923  12.188
 8577SOL    HW137359   4.069   2.994  12.127
 8577SOL    HW237360   4.048   2.965  12.274
 8578SOL     OW37361   1.863   1.905  14.208
 8578SOL    HW137362   1.917   1.885  14.284
 8578SOL    HW237363   1.774   1.911  14.242
 8579SOL     OW37364   3.978   3.394  13.167
 8579SOL    HW137365   3.967   3.470  13.224
 8579SOL    HW237366   3.889   3.362  13.153
 8580SOL     OW37367   4.661   0.041  12.674
 8580SOL    HW137368   4.661   4.731  12.705
 8580SOL    HW237369   4.610   0.089  12.739
 8581SOL     OW37370   4.705   3.847  13.651
 8581SOL    HW137371   4.610   3.849  13.643
 8581SOL    HW237372   4.734   3.787  13.583
 8582SOL     OW37373   4.743   4.711  13.036
 8582SOL    HW137374   0.020   4.770  13.085
 8582SOL    HW237375   4.710   4.650  13.102
 8583SOL     OW37376   4.178   4.040  13.371
 8583SOL    HW137377   4.115   3.969  13.362
 8583SOL    HW237378   4.140   4.098  13.438
 8584SOL     OW37379   4.076   0.257  14.256
 8584SOL    HW137380   4.146   0.295  14.203
 8584SOL    HW237381   4.120   0.226  14.335
 8585SOL     OW37382   0.759   2.696  12.588
 8585SOL    HW137383   0.667   2.690  12.615
 8585SOL    HW237384   0.803   2.625  12.635
 8586SOL     OW37385   4.266   4.639  15.109
 8586SOL    HW137386   4.302   4.713  15.159
 8586SOL    HW237387   4.331   4.623  15.040
 8587SOL     OW37388   4.099   4.212  13.579
 8587SOL    HW137389   4.155   4.290  13.576
 8587SOL    HW237390   4.093   4.190  13.672
 8588SOL     OW37391   4.614   3.390  13.090
 8588SOL    HW137392   4.590   3.483  13.095
 8588SOL    HW237393   4.689   3.382  13.148
 8589SOL     OW37394   4.172   3.461  14.037
 8589SOL    HW137395   4.215   3.424  13.960
 8589SOL    HW237396   4.201   3.406  14.110
 8590SOL     OW37397   4.687   3.400  14.110
 8590SOL    HW137398   4.688   3.490  14.079
 8590SOL    HW237399   4.777   3.370  14.099
 8591SOL     OW37400   0.323   3.291  13.920
 8591SOL    HW137401   0.260   3.257  13.857
 8591SOL    HW237402   0.382   3.217  13.938
 8592SOL     OW37403   4.043   2.696  15.060
 8592SOL    HW137404   3.961   2.745  15.068
 8592SOL    HW237405   4.019   2.616  15.014
 8593SOL     OW37406   4.499   4.375  15.772
 8593SOL    HW137407   4.539   4.291  15.794
 8593SOL    HW237408   4.569   4.425  15.730
 8594SOL     OW37409   4.325   2.923  16.194
 8594SOL    HW137410   4.321   2.855  16.261
 8594SOL    HW237411   4.416   2.923  16.165
 8595SOL     OW37412   0.379   4.586  14.836
 8595SOL    HW137413   0.412   4.602  14.748
 8595SOL    HW237414   0.286   4.607  14.831
 8596SOL     OW37415   4.475   2.128  18.534
 8596SOL    HW137416   4.396   2.182  18.542
 8596SOL    HW237417   4.497   2.130  18.441
 8597SOL     OW37418   4.510   0.783  16.666
 8597SOL    HW137419   4.427   0.776  16.620
 8597SOL    HW237420   4.574   0.800  16.597
 8598SOL     OW37421   0.624   4.305  15.393
 8598SOL    HW137422   0.616   4.387  15.345
 8598SOL    HW237423   0.714   4.276  15.375
 8599SOL     OW37424   3.683   3.256  17.268
 8599SOL    HW137425   3.760   3.201  17.254
 8599SOL    HW237426   3.669   3.300  17.184
 8600SOL     OW37427   4.029   0.141  15.438
 8600SOL    HW137428   3.999   0.208  15.377
 8600SOL    HW237429   4.010   0.177  15.525
 8601SOL     OW37430   4.278   4.199  14.896
 8601SOL    HW137431   4.186   4.188  14.873
 8601SOL    HW237432   4.294   4.134  14.965
 8602SOL     OW37433   4.202   4.467  14.756
 8602SOL    HW137434   4.221   4.395  14.817
 8602SOL    HW237435   4.288   4.501  14.732
 8603SOL     OW37436   4.736   0.858  14.383
 8603SOL    HW137437   4.721   0.909  14.463
 8603SOL    HW237438   4.718   0.919  14.312
 8604SOL     OW37439   0.142   3.127  15.338
 8604SOL    HW137440   0.225   3.108  15.295
 8604SOL    HW237441   0.100   3.193  15.283
 8605SOL     OW37442   0.938   4.473  16.018
 8605SOL    HW137443   0.874   4.483  16.089
 8605SOL    HW237444   0.885   4.469  15.938
 8606SOL     OW37445   4.545   3.860  14.948
 8606SOL    HW137446   4.584   3.778  14.916
 8606SOL    HW237447   4.607   3.892  15.014
 8607SOL     OW37448   0.797   4.594  15.569
 8607SOL    HW137449   0.733   4.653  15.529
 8607SOL    HW237450   0.882   4.632  15.547
 8608SOL     OW37451   4.740   3.498  15.278
 8608SOL    HW137452   4.659   3.511  15.327
 8608SOL    HW237453   4.735   3.408  15.246
 8609SOL     OW37454   4.054   0.057  14.595
 8609SOL    HW137455   4.111   0.115  14.545
 8609SOL    HW237456   4.034   4.766  14.535
 8610SOL     OW37457   0.765   0.222  14.838
 8610SOL    HW137458   0.712   0.149  14.870
 8610SOL    HW237459   0.803   0.260  14.917
 8611SOL     OW37460   3.607   2.254  18.418
 8611SOL    HW137461   3.574   2.287  18.334
 8611SOL    HW237462   3.699   2.232  18.401
 8612SOL     OW37463   3.774   0.266  16.106
 8612SOL    HW137464   3.753   0.346  16.154
 8612SOL    HW237465   3.689   0.228  16.086
 8613SOL     OW37466   0.111   2.761  15.283
 8613SOL    HW137467   0.023   2.790  15.258
 8613SOL    HW237468   0.101   2.667  15.298
 8614SOL     OW37469   3.796   4.221  15.391
 8614SOL    HW137470   3.876   4.210  15.339
 8614SOL    HW237471   3.764   4.308  15.366
 8615SOL     OW37472   4.235   1.766  14.995
 8615SOL    HW137473   4.296   1.839  14.992
 8615SOL    HW237474   4.150   1.806  15.010
 8616SOL     OW37475   4.203   2.889  15.154
 8616SOL    HW137476   4.140   2.826  15.119
 8616SOL    HW237477   4.284   2.839  15.164
 8617SOL     OW37478   0.031   3.564  16.450
 8617SOL    HW137479   0.041   3.636  16.388
 8617SOL    HW237480   0.003   3.606  16.531
 8618SOL     OW37481   0.183   0.332  14.590
 8618SOL    HW137482   0.089   0.350  14.585
 8618SOL    HW237483   0.190   0.237  14.593
 8619SOL     OW37484   4.117   4.410  15.130
 8619SOL    HW137485   4.166   4.490  15.110
 8619SOL    HW237486   4.033   4.421  15.085
 8620SOL     OW37487   4.244   3.127  15.596
 8620SOL    HW137488   4.230   3.155  15.506
 8620SOL    HW237489   4.199   3.193  15.649
 8621SOL     OW37490   3.841   3.836  15.011
 8621SOL    HW137491   3.791   3.768  14.965
 8621SOL    HW237492   3.930   3.829  14.976
 8622SOL     OW37493   0.848   4.217  15.266
 8622SOL    HW137494   0.805   4.239  15.183
 8622SOL    HW237495   0.858   4.122  15.263
 8623SOL     OW37496   1.418   3.571  15.080
 8623SOL    HW137497   1.501   3.564  15.034
 8623SOL    HW237498   1.380   3.653  15.050
 8624SOL     OW37499   4.347   3.631  15.775
 8624SOL    HW137500   4.382   3.656  15.690
 8624SOL    HW237501   4.259   3.668  15.776
 8625SOL     OW37502   3.205   1.615  18.573
 8625SOL    HW137503   3.124   1.611  18.624
 8625SOL    HW237504   3.238   1.525  18.572
 8626SOL     OW37505   0.007   4.627  15.030
 8626SOL    HW137506   0.043   4.589  14.950
 8626SOL    HW237507   4.759   4.552  15.082
 8627SOL     OW37508   0.094   3.318  16.396
 8627SOL    HW137509   0.060   3.406  16.415
 8627SOL    HW237510   0.051   3.293  16.314
 8628SOL     OW37511   4.490   0.445  16.597
 8628SOL    HW137512   4.576   0.458  16.637
 8628SOL    HW237513   4.506   0.382  16.526
 8629SOL     OW37514   4.518   4.308  14.908
 8629SOL    HW137515   4.503   4.403  14.910
 8629SOL    HW237516   4.431   4.270  14.898
 8630SOL     OW37517   0.348   2.854  15.382
 8630SOL    HW137518   0.360   2.939  15.340
 8630SOL    HW237519   0.270   2.817  15.341
 8631SOL     OW37520   4.315   3.972  15.015
 8631SOL    HW137521   4.388   3.924  14.976
 8631SOL    HW237522   4.275   3.910  15.076
 8632SOL     OW37523   4.539   3.515  15.500
 8632SOL    HW137524   4.450   3.480  15.494
 8632SOL    HW237525   4.527   3.606  15.526
 8633SOL     OW37526   0.405   3.181  14.606
 8633SOL    HW137527   0.336   3.171  14.672
 8633SOL    HW237528   0.486   3.182  14.656
 8634SOL     OW37529   1.589   3.724  14.916
 8634SOL    HW137530   1.666   3.739  14.862
 8634SOL    HW237531   1.517   3.764  14.867
 8635SOL     OW37532   0.026   3.120  14.925
 8635SOL    HW137533   4.717   3.128  14.891
 8635SOL    HW237534   0.031   3.030  14.958
 8636SOL     OW37535   4.112   3.809  15.773
 8636SOL    HW137536   4.090   3.858  15.852
 8636SOL    HW237537   4.052   3.842  15.706
 8637SOL     OW37538   4.019   4.365  14.601
 8637SOL    HW137539   4.000   4.434  14.538
 8637SOL    HW237540   4.093   4.398  14.652
 8638SOL     OW37541   4.242   2.519  15.102
 8638SOL    HW137542   4.161   2.566  15.122
 8638SOL    HW237543   4.311   2.584  15.114
 8639SOL     OW37544   1.285   4.527  17.616
 8639SOL    HW137545   1.320   4.601  17.567
 8639SOL    HW237546   1.212   4.564  17.666
 8640SOL     OW37547   4.725   1.324  15.437
 8640SOL    HW137548   4.766   1.243  15.468
 8640SOL    HW237549   4.752   1.330  15.345
 8641SOL     OW37550   0.157   0.061  14.613
 8641SOL    HW137551   0.194   0.003  14.679
 8641SOL    HW237552   0.137   0.004  14.539
 8642SOL     OW37553   3.934   4.763  16.686
 8642SOL    HW137554   3.934   0.067  16.642
 8642SOL    HW237555   3.846   4.754  16.722
 8643SOL     OW37556   4.639   0.920  15.534
 8643SOL    HW137557   4.585   0.977  15.479
 8643SOL    HW237558   4.643   0.837  15.486
 8644SOL     OW37559   4.359   0.450  15.186
 8644SOL    HW137560   4.396   0.523  15.235
 8644SOL    HW237561   4.326   0.489  15.105
 8645SOL     OW37562   0.079   3.821  15.722
 8645SOL    HW137563   4.774   3.863  15.736
 8645SOL    HW237564   0.081   3.803  15.628
 8646SOL     OW37565   4.106   3.843  14.876
 8646SOL    HW137566   4.178   3.901  14.901
 8646SOL    HW237567   4.117   3.831  14.782
 8647SOL     OW37568   4.424   3.328  15.789
 8647SOL    HW137569   4.388   3.414  15.768
 8647SOL    HW237570   4.349   3.278  15.821
 8648SOL     OW37571   1.060   3.258  14.605
 8648SOL    HW137572   1.148   3.240  14.571
 8648SOL    HW237573   1.068   3.248  14.700
 8649SOL     OW37574   4.774   3.817  15.446
 8649SOL    HW137575   4.740   3.855  15.365
 8649SOL    HW237576   0.087   3.835  15.444
 8650SOL     OW37577   4.741   3.787  15.173
 8650SOL    HW137578   4.754   3.699  15.209
 8650SOL    HW237579   4.775   3.781  15.084
 8651SOL     OW37580   3.849   0.051  14.338
 8651SOL    HW137581   3.906   0.105  14.283
 8651SOL    HW237582   3.761   0.082  14.318
 8652SOL     OW37583   3.411   2.928  15.035
 8652SOL    HW137584   3.316   2.925  15.047
 8652SOL    HW237585   3.445   2.877  15.109
 8653SOL     OW37586   3.487   2.944  14.776
 8653SOL    HW137587   3.537   3.024  14.761
 8653SOL    HW237588   3.450   2.955  14.863
 8654SOL     OW37589   0.236   4.673  15.270
 8654SOL    HW137590   0.274   4.629  15.194
 8654SOL    HW237591   0.179   4.607  15.310
 8655SOL     OW37592   4.622   3.255  15.609
 8655SOL    HW137593   4.547   3.266  15.668
 8655SOL    HW237594   4.644   3.344  15.581
 8656SOL     OW37595   0.043   3.780  14.929
 8656SOL    HW137596   0.062   3.691  14.900
 8656SOL    HW237597   0.088   3.836  14.865
 8657SOL     OW37598   0.044   3.963  16.648
 8657SOL    HW137599   0.138   3.955  16.635
 8657SOL    HW237600   0.026   4.057  16.640
 8658SOL     OW37601   0.359   1.435  15.894
 8658SOL    HW137602   0.430   1.463  15.952
 8658SOL    HW237603   0.400   1.427  15.808
 8659SOL     OW37604   2.595   0.475  17.047
 8659SOL    HW137605   2.582   0.441  17.135
 8659SOL    HW237606   2.546   0.557  17.045
 8660SOL     OW37607   4.122   4.437  15.446
 8660SOL    HW137608   4.062   4.367  15.471
 8660SOL    HW237609   4.077   4.483  15.375
 8661SOL     OW37610   0.210   2.973  18.386
 8661SOL    HW137611   0.234   2.885  18.415
 8661SOL    HW237612   0.274   2.994  18.318
 8662SOL     OW37613   0.655   0.249  16.162
 8662SOL    HW137614   0.599   0.229  16.087
 8662SOL    HW237615   0.711   0.172  16.172
 8663SOL     OW37616   1.241   3.893  16.929
 8663SOL    HW137617   1.253   3.801  16.952
 8663SOL    HW237618   1.297   3.907  16.853
 8664SOL     OW37619   3.430   3.076  21.421
 8664SOL    HW137620   3.525   3.068  21.424
 8664SOL    HW237621   3.398   3.007  21.479
 8665SOL     OW37622   4.501   1.107  17.345
 8665SOL    HW137623   4.428   1.053  17.375
 8665SOL    HW237624   4.463   1.162  17.277
 8666SOL     OW37625   0.175   3.935  17.493
 8666SOL    HW137626   0.263   3.903  17.512
 8666SOL    HW237627   0.173   3.943  17.398
 8667SOL     OW37628   1.273   1.967  16.237
 8667SOL    HW137629   1.253   1.984  16.145
 8667SOL    HW237630   1.212   1.898  16.262
 8668SOL     OW37631   0.553   4.541   8.630
 8668SOL    HW137632   0.596   4.543   8.715
 8668SOL    HW237633   0.460   4.531   8.650
 8669SOL     OW37634   4.365   4.755  18.449
 8669SOL    HW137635   4.446   0.002  18.405
 8669SOL    HW237636   4.296   4.769  18.384
 8670SOL     OW37637   3.234   3.380  15.878
 8670SOL    HW137638   3.249   3.299  15.926
 8670SOL    HW237639   3.317   3.427  15.885
 8671SOL     OW37640   0.726   1.486  19.692
 8671SOL    HW137641   0.754   1.450  19.608
 8671SOL    HW237642   0.730   1.581  19.680
 8672SOL     OW37643   2.098   1.153   0.264
 8672SOL    HW137644   2.086   1.110   0.179
 8672SOL    HW237645   2.177   1.114   0.300
 8673SOL     OW37646   2.403   2.835  27.991
 8673SOL    HW137647   2.327   2.777  27.982
 8673SOL    HW237648   2.430   2.825  28.082
 8674SOL     OW37649   3.730   3.836  16.710
 8674SOL    HW137650   3.795   3.771  16.737
 8674SOL    HW237651   3.669   3.841  16.784
 8675SOL     OW37652   3.119   3.812  15.972
 8675SOL    HW137653   3.205   3.789  16.008
 8675SOL    HW237654   3.139   3.870  15.898
 8676SOL     OW37655   3.435   4.750  24.116
 8676SOL    HW137656   3.397   4.662  24.117
 8676SOL    HW237657   3.511   4.743  24.058
 8677SOL     OW37658   1.499   0.951   2.996
 8677SOL    HW137659   1.584   0.955   3.040
 8677SOL    HW237660   1.502   1.022   2.931
 8678SOL     OW37661   4.415   3.742  17.020
 8678SOL    HW137662   4.402   3.788  16.937
 8678SOL    HW237663   4.502   3.770  17.049
 8679SOL     OW37664   4.500   4.571  14.925
 8679SOL    HW137665   4.559   4.579  15.000
 8679SOL    HW237666   4.534   4.633  14.861
 8680SOL     OW37667   3.407   2.264  19.727
 8680SOL    HW137668   3.404   2.336  19.790
 8680SOL    HW237669   3.500   2.249  19.711
 8681SOL     OW37670   4.419   2.609  17.005
 8681SOL    HW137671   4.446   2.592  17.095
 8681SOL    HW237672   4.458   2.538  16.954
 8682SOL     OW37673   4.266   3.254  27.290
 8682SOL    HW137674   4.337   3.306  27.326
 8682SOL    HW237675   4.198   3.318  27.267
 8683SOL     OW37676   2.662   2.958  17.609
 8683SOL    HW137677   2.707   3.022  17.664
 8683SOL    HW237678   2.587   3.005  17.574
 8684SOL     OW37679   0.191   4.429  18.101
 8684SOL    HW137680   0.138   4.419  18.180
 8684SOL    HW237681   0.209   4.340  18.072
 8685SOL     OW37682   2.623   1.101   2.204
 8685SOL    HW137683   2.565   1.141   2.139
 8685SOL    HW237684   2.655   1.022   2.161
 8686SOL     OW37685   3.360   3.688  24.760
 8686SOL    HW137686   3.360   3.733  24.676
 8686SOL    HW237687   3.451   3.691  24.789
 8687SOL     OW37688   2.822   4.640  15.639
 8687SOL    HW137689   2.795   4.564  15.587
 8687SOL    HW237690   2.853   4.603  15.722
 8688SOL     OW37691   3.943   1.267  17.560
 8688SOL    HW137692   3.879   1.286  17.629
 8688SOL    HW237693   3.890   1.233  17.488
 8689SOL     OW37694   0.322   3.313  18.051
 8689SOL    HW137695   0.402   3.319  18.103
 8689SOL    HW237696   0.351   3.329  17.961
 8690SOL     OW37697   4.423   3.966  16.500
 8690SOL    HW137698   4.436   4.061  16.493
 8690SOL    HW237699   4.496   3.928  16.451
 8691SOL     OW37700   4.385   3.919  16.818
 8691SOL    HW137701   4.451   3.933  16.750
 8691SOL    HW237702   4.333   3.999  16.818
 8692SOL     OW37703   4.406   0.351  25.767
 8692SOL    HW137704   4.315   0.323  25.772
 8692SOL    HW237705   4.445   0.320  25.849
 8693SOL     OW37706   2.906   0.209  26.753
 8693SOL    HW137707   2.837   0.186  26.691
 8693SOL    HW237708   2.923   0.302  26.736
 8694SOL     OW37709   1.575   4.055  18.196
 8694SOL    HW137710   1.486   4.072  18.227
 8694SOL    HW237711   1.563   4.024  18.106
 8695SOL     OW37712   1.530   0.897  16.177
 8695SOL    HW137713   1.560   0.972  16.126
 8695SOL    HW237714   1.559   0.821  16.127
 8696SOL     OW37715   4.464   3.815  20.511
 8696SOL    HW137716   4.437   3.764  20.588
 8696SOL    HW237717   4.466   3.906  20.542
 8697SOL     OW37718   0.083   1.439  14.753
 8697SOL    HW137719   0.028   1.493  14.696
 8697SOL    HW237720   0.130   1.381  14.693
 8698SOL     OW37721   3.579   3.181  16.042
 8698SOL    HW137722   3.597   3.275  16.044
 8698SOL    HW237723   3.662   3.142  16.016
 8699SOL     OW37724   4.658   3.016  17.944
 8699SOL    HW137725   4.734   3.023  18.002
 8699SOL    HW237726   4.587   3.058  17.992
 8700SOL     OW37727   3.515   3.857  21.981
 8700SOL    HW137728   3.453   3.897  22.042
 8700SOL    HW237729   3.538   3.927  21.920
 8701SOL     OW37730   1.153   3.460  17.174
 8701SOL    HW137731   1.157   3.533  17.112
 8701SOL    HW237732   1.231   3.408  17.154
 8702SOL     OW37733   4.301   0.403  16.817
 8702SOL    HW137734   4.347   0.341  16.873
 8702SOL    HW237735   4.362   0.420  16.745
 8703SOL     OW37736   4.675   2.591   9.204
 8703SOL    HW137737   4.730   2.566   9.129
 8703SOL    HW237738   4.604   2.526   9.205
 8704SOL     OW37739   2.565   0.824   1.598
 8704SOL    HW137740   2.593   0.899   1.650
 8704SOL    HW237741   2.488   0.790   1.644
 8705SOL     OW37742   4.415   0.971  21.345
 8705SOL    HW137743   4.507   0.946  21.352
 8705SOL    HW237744   4.368   0.888  21.339
 8706SOL     OW37745   1.340   3.238  17.113
 8706SOL    HW137746   1.378   3.196  17.191
 8706SOL    HW237747   1.270   3.179  17.086
 8707SOL     OW37748   3.998   1.751  21.969
 8707SOL    HW137749   4.030   1.830  21.926
 8707SOL    HW237750   3.993   1.686  21.899
 8708SOL     OW37751   0.296   1.924  18.286
 8708SOL    HW137752   0.350   1.972  18.223
 8708SOL    HW237753   0.251   1.992  18.336
 8709SOL     OW37754   2.151   0.822  16.769
 8709SOL    HW137755   2.156   0.892  16.704
 8709SOL    HW237756   2.237   0.781  16.766
 8710SOL     OW37757   0.289   3.734  18.736
 8710SOL    HW137758   0.247   3.761  18.817
 8710SOL    HW237759   0.260   3.643  18.724
 8711SOL     OW37760   3.362   3.987  16.768
 8711SOL    HW137761   3.385   4.048  16.698
 8711SOL    HW237762   3.445   3.964  16.809
 8712SOL     OW37763   3.280   2.616  18.008
 8712SOL    HW137764   3.271   2.578  17.921
 8712SOL    HW237765   3.355   2.675  18.001
 8713SOL     OW37766   1.515   3.172   0.757
 8713SOL    HW137767   1.461   3.113   0.705
 8713SOL    HW237768   1.476   3.258   0.744
 8714SOL     OW37769   1.870   1.100  15.617
 8714SOL    HW137770   1.933   1.049  15.566
 8714SOL    HW237771   1.826   1.155  15.552
 8715SOL     OW37772   3.273   3.920  27.473
 8715SOL    HW137773   3.303   3.969  27.396
 8715SOL    HW237774   3.185   3.954  27.490
 8716SOL     OW37775   0.278   3.146  26.271
 8716SOL    HW137776   0.351   3.191  26.228
 8716SOL    HW237777   0.216   3.129  26.200
 8717SOL     OW37778   2.918   4.225  16.461
 8717SOL    HW137779   2.875   4.142  16.442
 8717SOL    HW237780   2.887   4.249  16.548
 8718SOL     OW37781   0.864   2.202  20.141
 8718SOL    HW137782   0.795   2.135  20.139
 8718SOL    HW237783   0.885   2.211  20.234
 8719SOL     OW37784   2.516   3.318  21.293
 8719SOL    HW137785   2.583   3.385  21.301
 8719SOL    HW237786   2.433   3.365  21.305
 8720SOL     OW37787   3.839   1.531  16.415
 8720SOL    HW137788   3.785   1.514  16.492
 8720SOL    HW237789   3.781   1.514  16.341
 8721SOL     OW37790   4.163   1.982  14.704
 8721SOL    HW137791   4.147   1.982  14.610
 8721SOL    HW237792   4.079   2.006  14.743
 8722SOL     OW37793   0.345   4.326  25.068
 8722SOL    HW137794   0.287   4.256  25.097
 8722SOL    HW237795   0.408   4.337  25.139
 8723SOL     OW37796   4.642   3.732  17.316
 8723SOL    HW137797   4.654   3.758  17.225
 8723SOL    HW237798   4.633   3.637  17.312
 8724SOL     OW37799   1.747   1.699   2.182
 8724SOL    HW137800   1.786   1.654   2.107
 8724SOL    HW237801   1.803   1.776   2.195
 8725SOL     OW37802   2.161   3.248   0.914
 8725SOL    HW137803   2.125   3.269   0.828
 8725SOL    HW237804   2.086   3.218   0.965
 8726SOL     OW37805   3.360   4.765  17.132
 8726SOL    HW137806   3.283   4.711  17.151
 8726SOL    HW237807   3.325   0.061  17.086
 8727SOL     OW37808   0.255   0.133   5.405
 8727SOL    HW137809   0.167   0.124   5.441
 8727SOL    HW237810   0.242   0.158   5.313
 8728SOL     OW37811   1.929   2.003  16.561
 8728SOL    HW137812   1.862   1.935  16.560
 8728SOL    HW237813   1.880   2.085  16.553
 8729SOL     OW37814   1.522   3.615  20.783
 8729SOL    HW137815   1.534   3.534  20.833
 8729SOL    HW237816   1.588   3.610  20.714
 8730SOL     OW37817   0.416   1.470  19.802
 8730SOL    HW137818   0.500   1.471  19.757
 8730SOL    HW237819   0.439   1.461  19.894
 8731SOL     OW37820   3.366   1.591  17.823
 8731SOL    HW137821   3.346   1.569  17.914
 8731SOL    HW237822   3.461   1.585  17.817
 8732SOL     OW37823   3.406   0.661  16.211
 8732SOL    HW137824   3.391   0.753  16.190
 8732SOL    HW237825   3.405   0.657  16.307
 8733SOL     OW37826   1.921   1.340  16.711
 8733SOL    HW137827   1.882   1.253  16.717
 8733SOL    HW237828   2.003   1.326  16.663
 8734SOL     OW37829   2.724   1.994   3.573
 8734SOL    HW137830   2.742   2.051   3.648
 8734SOL    HW237831   2.747   2.047   3.496
 8735SOL     OW37832   4.159   3.129  16.155
 8735SOL    HW137833   4.198   3.161  16.073
 8735SOL    HW237834   4.198   3.042  16.167
 8736SOL     OW37835   4.145   0.530  18.204
 8736SOL    HW137836   4.165   0.544  18.111
 8736SOL    HW237837   4.197   0.453  18.228
 8737SOL     OW37838   1.939   3.086  15.292
 8737SOL    HW137839   1.925   3.124  15.378
 8737SOL    HW237840   2.026   3.046  15.298
 8738SOL     OW37841   1.775   4.134  25.766
 8738SOL    HW137842   1.722   4.114  25.843
 8738SOL    HW237843   1.718   4.186  25.710
 8739SOL     OW37844   1.229   3.891  23.840
 8739SOL    HW137845   1.307   3.836  23.849
 8739SOL    HW237846   1.172   3.842  23.781
 8740SOL     OW37847   2.936   4.468  26.733
 8740SOL    HW137848   2.989   4.540  26.700
 8740SOL    HW237849   2.995   4.419  26.790
 8741SOL     OW37850   2.579   3.653  27.294
 8741SOL    HW137851   2.638   3.712  27.247
 8741SOL    HW237852   2.568   3.578  27.235
 8742SOL     OW37853   0.152   2.399   5.490
 8742SOL    HW137854   0.096   2.415   5.414
 8742SOL    HW237855   0.240   2.391   5.453
 8743SOL     OW37856   2.776   1.344  21.907
 8743SOL    HW137857   2.720   1.316  21.835
 8743SOL    HW237858   2.783   1.267  21.963
 8744SOL     OW37859   3.978   3.712   4.835
 8744SOL    HW137860   3.925   3.633   4.841
 8744SOL    HW237861   4.067   3.683   4.855
 8745SOL     OW37862   3.608   0.104   2.449
 8745SOL    HW137863   3.603   0.199   2.440
 8745SOL    HW237864   3.661   0.075   2.375
 8746SOL     OW37865   1.412   2.072  27.910
 8746SOL    HW137866   1.489   2.086  27.964
 8746SOL    HW237867   1.391   1.979  27.922
 8747SOL     OW37868   3.454   3.607   6.517
 8747SOL    HW137869   3.383   3.546   6.497
 8747SOL    HW237870   3.491   3.575   6.599
 8748SOL     OW37871   3.803   1.379   2.143
 8748SOL    HW137872   3.860   1.437   2.093
 8748SOL    HW237873   3.814   1.293   2.101
 8749SOL     OW37874   2.264   0.132  26.809
 8749SOL    HW137875   2.228   0.114  26.896
 8749SOL    HW237876   2.270   0.227  26.805
 8750SOL     OW37877   0.406   3.781  26.696
 8750SOL    HW137878   0.352   3.853  26.728
 8750SOL    HW237879   0.453   3.750  26.774
 8751SOL     OW37880   2.268   2.784  22.605
 8751SOL    HW137881   2.358   2.752  22.605
 8751SOL    HW237882   2.232   2.751  22.687
 8752SOL     OW37883   1.563   3.968   3.638
 8752SOL    HW137884   1.561   4.054   3.597
 8752SOL    HW237885   1.576   3.986   3.731
 8753SOL     OW37886   4.001   0.230   5.287
 8753SOL    HW137887   4.033   0.312   5.249
 8753SOL    HW237888   3.916   0.216   5.245
 8754SOL     OW37889   2.763   2.152   7.300
 8754SOL    HW137890   2.740   2.059   7.294
 8754SOL    HW237891   2.680   2.197   7.315
 8755SOL     OW37892   0.296   0.317   7.068
 8755SOL    HW137893   0.223   0.263   7.098
 8755SOL    HW237894   0.348   0.334   7.147
 8756SOL     OW37895   1.715   2.253  24.032
 8756SOL    HW137896   1.764   2.246  24.114
 8756SOL    HW237897   1.649   2.184  24.038
 8757SOL     OW37898   0.343   3.709  21.318
 8757SOL    HW137899   0.298   3.792  21.335
 8757SOL    HW237900   0.284   3.642  21.352
 8758SOL     OW37901   0.043   2.485  18.373
 8758SOL    HW137902   0.027   2.571  18.412
 8758SOL    HW237903   0.016   2.423  18.441
 8759SOL     OW37904   0.645   1.422   8.684
 8759SOL    HW137905   0.670   1.332   8.665
 8759SOL    HW237906   0.728   1.468   8.694
 8760SOL     OW37907   0.796   0.375  23.021
 8760SOL    HW137908   0.883   0.353  22.987
 8760SOL    HW237909   0.773   0.301  23.077
 8761SOL     OW37910   4.280   0.148  17.541
 8761SOL    HW137911   4.209   0.194  17.495
 8761SOL    HW237912   4.292   0.067  17.492
 8762SOL     OW37913   1.532   1.550   0.062
 8762SOL    HW137914   1.535   1.594   0.147
 8762SOL    HW237915   1.496   1.616   0.002
 8763SOL     OW37916   0.567   3.804  20.594
 8763SOL    HW137917   0.544   3.897  20.597
 8763SOL    HW237918   0.559   3.774  20.685
 8764SOL     OW37919   4.673   1.300   8.062
 8764SOL    HW137920   4.767   1.306   8.047
 8764SOL    HW237921   4.665   1.279   8.155
 8765SOL     OW37922   1.296   1.319  19.471
 8765SOL    HW137923   1.270   1.248  19.530
 8765SOL    HW237924   1.300   1.278  19.385
 8766SOL     OW37925   0.377   1.858   2.262
 8766SOL    HW137926   0.334   1.936   2.298
 8766SOL    HW237927   0.423   1.889   2.184
 8767SOL     OW37928   2.957   2.770   2.187
 8767SOL    HW137929   2.869   2.736   2.204
 8767SOL    HW237930   2.945   2.836   2.119
 8768SOL     OW37931   3.635   2.784   1.789
 8768SOL    HW137932   3.587   2.803   1.870
 8768SOL    HW237933   3.573   2.735   1.736
 8769SOL     OW37934   4.740   3.677   0.675
 8769SOL    HW137935   0.013   3.616   0.726
 8769SOL    HW237936   4.666   3.698   0.732
 8770SOL     OW37937   4.233   3.492  18.800
 8770SOL    HW137938   4.326   3.500  18.778
 8770SOL    HW237939   4.196   3.439  18.729
 8771SOL     OW37940   4.023   3.019   2.980
 8771SOL    HW137941   3.929   3.036   2.985
 8771SOL    HW237942   4.049   3.005   3.071
 8772SOL     OW37943   2.833   1.569  21.095
 8772SOL    HW137944   2.863   1.496  21.041
 8772SOL    HW237945   2.878   1.558  21.179
 8773SOL     OW37946   2.237   3.751  26.262
 8773SOL    HW137947   2.296   3.826  26.274
 8773SOL    HW237948   2.287   3.676  26.295
 8774SOL     OW37949   2.804   2.861   2.878
 8774SOL    HW137950   2.817   2.774   2.841
 8774SOL    HW237951   2.712   2.861   2.906
 8775SOL     OW37952   0.645   0.799   4.173
 8775SOL    HW137953   0.582   0.870   4.166
 8775SOL    HW237954   0.668   0.796   4.266
 8776SOL     OW37955   0.698   3.789  21.140
 8776SOL    HW137956   0.673   3.700  21.166
 8776SOL    HW237957   0.615   3.836  21.131
 8777SOL     OW37958   3.625   1.612   7.127
 8777SOL    HW137959   3.543   1.649   7.094
 8777SOL    HW237960   3.609   1.518   7.131
 8778SOL     OW37961   1.600   1.293  15.611
 8778SOL    HW137962   1.517   1.284  15.563
 8778SOL    HW237963   1.667   1.268  15.548
 8779SOL     OW37964   3.323   2.999   6.676
 8779SOL    HW137965   3.389   3.008   6.745
 8779SOL    HW237966   3.329   3.080   6.626
 8780SOL     OW37967   3.654   0.890  18.482
 8780SOL    HW137968   3.624   0.845  18.403
 8780SOL    HW237969   3.743   0.857  18.496
 8781SOL     OW37970   1.323   4.218   8.875
 8781SOL    HW137971   1.344   4.308   8.901
 8781SOL    HW237972   1.230   4.209   8.895
 8782SOL     OW37973   2.435   0.300   9.618
 8782SOL    HW137974   2.530   0.297   9.606
 8782SOL    HW237975   2.424   0.329   9.709
 8783SOL     OW37976   1.915   1.598  23.736
 8783SOL    HW137977   1.929   1.633  23.824
 8783SOL    HW237978   1.921   1.503  23.747
 8784SOL     OW37979   1.911   1.106   0.822
 8784SOL    HW137980   1.958   1.042   0.769
 8784SOL    HW237981   1.978   1.170   0.847
 8785SOL     OW37982   4.132   3.629  27.024
 8785SOL    HW137983   4.092   3.561  27.078
 8785SOL    HW237984   4.183   3.581  26.959
 8786SOL     OW37985   0.646   1.342  28.460
 8786SOL    HW137986   0.650   1.409  28.391
 8786SOL    HW237987   0.552   1.332  28.478
 8787SOL     OW37988   4.676   0.571   1.918
 8787SOL    HW137989   4.742   0.603   1.857
 8787SOL    HW237990   4.720   0.571   2.003
 8788SOL     OW37991   4.382   3.241  10.049
 8788SOL    HW137992   4.379   3.314  10.111
 8788SOL    HW237993   4.409   3.281   9.966
 8789SOL     OW37994   1.322   1.822  19.379
 8789SOL    HW137995   1.267   1.744  19.384
 8789SOL    HW237996   1.412   1.789  19.384
 8790SOL     OW37997   2.932   2.873  26.606
 8790SOL    HW137998   2.945   2.801  26.668
 8790SOL    HW237999   2.876   2.836  26.537
 8791SOL     OW38000   0.887   0.274  27.467
 8791SOL    HW138001   0.906   0.261  27.374
 8791SOL    HW238002   0.798   0.240  27.479
 8792SOL     OW38003   2.483   3.895   5.915
 8792SOL    HW138004   2.489   3.805   5.882
 8792SOL    HW238005   2.508   3.888   6.007
 8793SOL     OW38006   0.302   2.477   8.248
 8793SOL    HW138007   0.350   2.531   8.185
 8793SOL    HW238008   0.225   2.446   8.200
 8794SOL     OW38009   3.328   1.276   9.593
 8794SOL    HW138010   3.336   1.181   9.603
 8794SOL    HW238011   3.241   1.297   9.627
 8795SOL     OW38012   2.649   0.515  11.256
 8795SOL    HW138013   2.698   0.578  11.309
 8795SOL    HW238014   2.609   0.567  11.187
 8796SOL     OW38015   4.462   2.839   1.061
 8796SOL    HW138016   4.401   2.808   1.127
 8796SOL    HW238017   4.523   2.766   1.049
 8797SOL     OW38018   2.214   3.117   9.526
 8797SOL    HW138019   2.232   3.167   9.606
 8797SOL    HW238020   2.273   3.042   9.531
 8798SOL     OW38021   1.158   1.464  20.647
 8798SOL    HW138022   1.125   1.479  20.736
 8798SOL    HW238023   1.122   1.379  20.622
 8799SOL     OW38024   2.642   4.123   4.842
 8799SOL    HW138025   2.580   4.098   4.911
 8799SOL    HW238026   2.676   4.208   4.870
 8800SOL     OW38027   0.414   4.151   0.020
 8800SOL    HW138028   0.467   4.160   0.099
 8800SOL    HW238029   0.457   4.207  28.475
 8801SOL     OW38030   4.072   0.457  27.345
 8801SOL    HW138031   4.070   0.552  27.331
 8801SOL    HW238032   4.028   0.445  27.429
 8802SOL     OW38033   3.511   2.766   5.168
 8802SOL    HW138034   3.576   2.816   5.218
 8802SOL    HW238035   3.554   2.683   5.149
 8803SOL     OW38036   3.555   1.917   3.814
 8803SOL    HW138037   3.487   1.975   3.781
 8803SOL    HW238038   3.615   1.975   3.861
 8804SOL     OW38039   3.545   4.082   7.645
 8804SOL    HW138040   3.571   4.031   7.722
 8804SOL    HW238041   3.471   4.134   7.675
 8805SOL     OW38042   2.594   3.060  24.771
 8805SOL    HW138043   2.608   3.065  24.866
 8805SOL    HW238044   2.680   3.077  24.733
 8806SOL     OW38045   0.464   0.993   4.172
 8806SOL    HW138046   0.386   1.034   4.135
 8806SOL    HW238047   0.496   1.056   4.236
 8807SOL     OW38048   3.198   1.341   0.841
 8807SOL    HW138049   3.196   1.305   0.929
 8807SOL    HW238050   3.177   1.267   0.784
 8808SOL     OW38051   3.996   1.320   1.322
 8808SOL    HW138052   3.998   1.282   1.410
 8808SOL    HW238053   3.915   1.372   1.321
 8809SOL     OW38054   4.257   2.087  18.987
 8809SOL    HW138055   4.249   2.182  18.992
 8809SOL    HW238056   4.326   2.072  18.923
 8810SOL     OW38057   3.039   3.138   3.034
 8810SOL    HW138058   3.106   3.170   3.095
 8810SOL    HW238059   3.079   3.149   2.947
 8811SOL     OW38060   2.992   1.386  28.026
 8811SOL    HW138061   2.946   1.421  28.103
 8811SOL    HW238062   2.944   1.422  27.951
 8812SOL     OW38063   0.578   0.659   8.492
 8812SOL    HW138064   0.518   0.662   8.566
 8812SOL    HW238065   0.603   0.567   8.485
 8813SOL     OW38066   1.884   3.292  10.341
 8813SOL    HW138067   1.871   3.228  10.411
 8813SOL    HW238068   1.796   3.307  10.306
 8814SOL     OW38069   0.084   0.416  11.109
 8814SOL    HW138070   0.137   0.493  11.088
 8814SOL    HW238071   0.126   0.379  11.186
 8815SOL     OW38072   4.203   2.185  27.644
 8815SOL    HW138073   4.138   2.192  27.574
 8815SOL    HW238074   4.264   2.257  27.627
 8816SOL     OW38075   0.913   1.363  21.836
 8816SOL    HW138076   0.934   1.270  21.839
 8816SOL    HW238077   0.995   1.405  21.810
 8817SOL     OW38078   4.388   3.731  21.527
 8817SOL    HW138079   4.323   3.667  21.558
 8817SOL    HW238080   4.454   3.678  21.482
 8818SOL     OW38081   3.416   0.072   0.038
 8818SOL    HW138082   3.336   0.083  28.507
 8818SOL    HW238083   3.427   4.758   0.046
 8819SOL     OW38084   1.605   4.126  15.233
 8819SOL    HW138085   1.609   4.035  15.203
 8819SOL    HW238086   1.582   4.119  15.326
 8820SOL     OW38087   2.487   0.110   3.475
 8820SOL    HW138088   2.407   0.094   3.524
 8820SOL    HW238089   2.530   0.182   3.521
 8821SOL     OW38090   0.119   1.371  28.160
 8821SOL    HW138091   0.140   1.417  28.079
 8821SOL    HW238092   0.023   1.371  28.163
 8822SOL     OW38093   4.402   1.031  28.220
 8822SOL    HW138094   4.474   1.094  28.213
 8822SOL    HW238095   4.444   0.950  28.249
 8823SOL     OW38096   1.939   0.411   0.798
 8823SOL    HW138097   1.900   0.363   0.871
 8823SOL    HW238098   1.865   0.435   0.743
 8824SOL     OW38099   2.924   2.832  23.697
 8824SOL    HW138100   2.859   2.899  23.718
 8824SOL    HW238101   2.921   2.772  23.771
 8825SOL     OW38102   1.846   2.772   1.069
 8825SOL    HW138103   1.919   2.741   1.015
 8825SOL    HW238104   1.775   2.711   1.050
 8826SOL     OW38105   3.937   2.194  22.907
 8826SOL    HW138106   3.864   2.246  22.872
 8826SOL    HW238107   3.898   2.140  22.976
 8827SOL     OW38108   2.974   1.618   5.180
 8827SOL    HW138109   2.949   1.624   5.272
 8827SOL    HW238110   2.949   1.529   5.154
 8828SOL     OW38111   2.426   1.938   7.625
 8828SOL    HW138112   2.353   1.931   7.564
 8828SOL    HW238113   2.388   1.917   7.710
 8829SOL     OW38114   1.330   3.971   5.559
 8829SOL    HW138115   1.389   3.897   5.547
 8829SOL    HW238116   1.243   3.936   5.542
 8830SOL     OW38117   2.102   0.524   5.772
 8830SOL    HW138118   2.061   0.502   5.856
 8830SOL    HW238119   2.093   0.444   5.720
 8831SOL     OW38120   1.356   1.905  21.699
 8831SOL    HW138121   1.398   1.842  21.640
 8831SOL    HW238122   1.426   1.932  21.758
 8832SOL     OW38123   2.077   0.973   6.431
 8832SOL    HW138124   2.050   1.022   6.509
 8832SOL    HW238125   2.142   1.029   6.389
 8833SOL     OW38126   4.478   3.796   5.294
 8833SOL    HW138127   4.457   3.881   5.256
 8833SOL    HW238128   4.477   3.811   5.389
 8834SOL     OW38129   0.992   0.272  21.888
 8834SOL    HW138130   1.077   0.302  21.854
 8834SOL    HW238131   0.960   0.212  21.821
 8835SOL     OW38132   0.134   2.021  27.243
 8835SOL    HW138133   0.063   1.989  27.187
 8835SOL    HW238134   0.210   1.967  27.219
 8836SOL     OW38135   2.016   0.716   3.482
 8836SOL    HW138136   2.063   0.663   3.418
 8836SOL    HW238137   1.932   0.672   3.492
 8837SOL     OW38138   1.436   2.187  21.512
 8837SOL    HW138139   1.463   2.277  21.492
 8837SOL    HW238140   1.374   2.196  21.584
 8838SOL     OW38141   1.902   2.816   3.995
 8838SOL    HW138142   1.869   2.883   3.936
 8838SOL    HW238143   1.975   2.858   4.041
 8839SOL     OW38144   2.850   2.251  27.466
 8839SOL    HW138145   2.940   2.265  27.435
 8839SOL    HW238146   2.812   2.189  27.403
 8840SOL     OW38147   1.433   3.207  26.600
 8840SOL    HW138148   1.474   3.289  26.574
 8840SOL    HW238149   1.369   3.232  26.667
 8841SOL     OW38150   1.997   4.766  21.703
 8841SOL    HW138151   2.003   0.072  21.744
 8841SOL    HW238152   1.917   4.727  21.739
 8842SOL     OW38153   3.413   2.225   6.856
 8842SOL    HW138154   3.505   2.250   6.858
 8842SOL    HW238155   3.396   2.190   6.944
 8843SOL     OW38156   4.664   2.904  17.069
 8843SOL    HW138157   4.665   2.987  17.021
 8843SOL    HW238158   4.708   2.842  17.011
 8844SOL     OW38159   4.288   2.065   5.806
 8844SOL    HW138160   4.320   2.135   5.863
 8844SOL    HW238161   4.259   2.110   5.727
 8845SOL     OW38162   2.874   2.173   7.056
 8845SOL    HW138163   2.822   2.105   7.014
 8845SOL    HW238164   2.848   2.170   7.148
 8846SOL     OW38165   1.545   2.984  26.485
 8846SOL    HW138166   1.508   3.069  26.510
 8846SOL    HW238167   1.623   3.006  26.434
 8847SOL     OW38168   0.176   0.273   1.100
 8847SOL    HW138169   0.157   0.283   1.193
 8847SOL    HW238170   0.162   0.360   1.063
 8848SOL     OW38171   4.590   4.477   4.850
 8848SOL    HW138172   4.619   4.478   4.759
 8848SOL    HW238173   4.602   4.386   4.878
 8849SOL     OW38174   0.294   0.536  17.401
 8849SOL    HW138175   0.333   0.610  17.355
 8849SOL    HW238176   0.366   0.474  17.412
 8850SOL     OW38177   1.477   4.174   5.842
 8850SOL    HW138178   1.440   4.231   5.775
 8850SOL    HW238179   1.497   4.233   5.915
 8851SOL     OW38180   3.519   0.841   1.091
 8851SOL    HW138181   3.501   0.836   0.997
 8851SOL    HW238182   3.432   0.843   1.132
 8852SOL     OW38183   3.921   3.557   4.434
 8852SOL    HW138184   3.857   3.608   4.385
 8852SOL    HW238185   3.995   3.547   4.374
 8853SOL     OW38186   0.373   0.291  26.552
 8853SOL    HW138187   0.298   0.266  26.606
 8853SOL    HW238188   0.334   0.331  26.474
 8854SOL     OW38189   2.822   4.275   0.945
 8854SOL    HW138190   2.815   4.370   0.948
 8854SOL    HW238191   2.836   4.249   1.036
 8855SOL     OW38192   0.658   2.043   5.571
 8855SOL    HW138193   0.659   1.966   5.627
 8855SOL    HW238194   0.726   2.100   5.607
 8856SOL     OW38195   4.227   1.381   3.768
 8856SOL    HW138196   4.285   1.308   3.745
 8856SOL    HW238197   4.148   1.366   3.716
 8857SOL     OW38198   2.726   4.082  26.339
 8857SOL    HW138199   2.729   4.048  26.428
 8857SOL    HW238200   2.811   4.059  26.302
 8858SOL     OW38201   0.825   2.479  24.632
 8858SOL    HW138202   0.780   2.482  24.717
 8858SOL    HW238203   0.755   2.466  24.568
 8859SOL     OW38204   4.060   3.852   5.679
 8859SOL    HW138205   4.021   3.905   5.610
 8859SOL    HW238206   4.109   3.784   5.633
 8860SOL     OW38207   0.350   0.626  26.245
 8860SOL    HW138208   0.275   0.685  26.254
 8860SOL    HW238209   0.333   0.578  26.164
 8861SOL     OW38210   3.455   3.524  15.933
 8861SOL    HW138211   3.529   3.478  15.973
 8861SOL    HW238212   3.468   3.616  15.955
 8862SOL     OW38213   0.270   1.739   7.317
 8862SOL    HW138214   0.282   1.656   7.270
 8862SOL    HW238215   0.355   1.782   7.313
 8863SOL     OW38216   1.982   3.849   1.852
 8863SOL    HW138217   2.015   3.780   1.795
 8863SOL    HW238218   1.888   3.850   1.837
 8864SOL     OW38219   4.062   1.416  19.992
 8864SOL    HW138220   4.094   1.441  19.905
 8864SOL    HW238221   3.977   1.460  20.000
 8865SOL     OW38222   3.647   3.867   6.859
 8865SOL    HW138223   3.573   3.872   6.799
 8865SOL    HW238224   3.628   3.792   6.915
 8866SOL     OW38225   2.451   3.564   0.500
 8866SOL    HW138226   2.443   3.475   0.534
 8866SOL    HW238227   2.488   3.614   0.572
 8867SOL     OW38228   1.588   3.240   2.767
 8867SOL    HW138229   1.611   3.262   2.677
 8867SOL    HW238230   1.553   3.151   2.761
 8868SOL     OW38231   3.004   3.298   1.963
 8868SOL    HW138232   2.985   3.254   1.880
 8868SOL    HW238233   3.053   3.376   1.938
 8869SOL     OW38234   0.434   0.399   4.581
 8869SOL    HW138235   0.515   0.373   4.538
 8869SOL    HW238236   0.379   0.321   4.578
 8870SOL     OW38237   3.880   2.601  25.215
 8870SOL    HW138238   3.968   2.596  25.253
 8870SOL    HW238239   3.877   2.528  25.153
 8871SOL     OW38240   1.837   0.679   3.790
 8871SOL    HW138241   1.750   0.642   3.777
 8871SOL    HW238242   1.895   0.603   3.795
 8872SOL     OW38243   2.848   1.746   6.995
 8872SOL    HW138244   2.812   1.670   6.949
 8872SOL    HW238245   2.924   1.712   7.042
 8873SOL     OW38246   4.706   2.129  21.535
 8873SOL    HW138247   4.743   2.182  21.464
 8873SOL    HW238248   4.749   2.044  21.526
 8874SOL     OW38249   0.003   0.827   9.961
 8874SOL    HW138250   0.085   0.817  10.010
 8874SOL    HW238251   4.761   0.920   9.970
 8875SOL     OW38252   4.681   3.047   6.788
 8875SOL    HW138253   4.759   3.002   6.820
 8875SOL    HW238254   4.715   3.124   6.742
 8876SOL     OW38255   3.580   2.263   7.347
 8876SOL    HW138256   3.575   2.215   7.430
 8876SOL    HW238257   3.573   2.195   7.280
 8877SOL     OW38258   0.714   4.468   6.450
 8877SOL    HW138259   0.768   4.546   6.438
 8877SOL    HW238260   0.774   4.403   6.487
 8878SOL     OW38261   2.714   1.134   1.899
 8878SOL    HW138262   2.763   1.176   1.828
 8878SOL    HW238263   2.780   1.110   1.964
 8879SOL     OW38264   2.211   2.008  16.561
 8879SOL    HW138265   2.230   2.022  16.468
 8879SOL    HW238266   2.117   2.024  16.569
 8880SOL     OW38267   3.110   1.064   2.533
 8880SOL    HW138268   3.108   1.008   2.455
 8880SOL    HW238269   3.188   1.036   2.581
 8881SOL     OW38270   3.672   1.700   9.712
 8881SOL    HW138271   3.665   1.713   9.807
 8881SOL    HW238272   3.680   1.788   9.676
 8882SOL     OW38273   1.464   4.205   5.535
 8882SOL    HW138274   1.394   4.267   5.515
 8882SOL    HW238275   1.421   4.120   5.535
 8883SOL     OW38276   0.751   1.468   5.382
 8883SOL    HW138277   0.734   1.555   5.418
 8883SOL    HW238278   0.796   1.421   5.452
 8884SOL     OW38279   0.191   3.420   2.090
 8884SOL    HW138280   0.152   3.414   2.003
 8884SOL    HW238281   0.191   3.514   2.110
 8885SOL     OW38282   4.266   4.682   9.315
 8885SOL    HW138283   4.326   4.746   9.276
 8885SOL    HW238284   4.297   4.671   9.405
 8886SOL     OW38285   2.328   1.644  25.994
 8886SOL    HW138286   2.272   1.623  26.069
 8886SOL    HW238287   2.327   1.740  25.989
 8887SOL     OW38288   1.895   4.764   9.790
 8887SOL    HW138289   1.979   0.028   9.801
 8887SOL    HW238290   1.916   4.671   9.790
 8888SOL     OW38291   2.735   4.713   3.381
 8888SOL    HW138292   2.642   4.727   3.396
 8888SOL    HW238293   2.779   4.778   3.436
 8889SOL     OW38294   3.565   4.496  22.976
 8889SOL    HW138295   3.507   4.533  22.909
 8889SOL    HW238296   3.646   4.546  22.968
 8890SOL     OW38297   1.469   0.361  23.784
 8890SOL    HW138298   1.399   0.304  23.750
 8890SOL    HW238299   1.439   0.450  23.765
 8891SOL     OW38300   2.496   1.975  23.960
 8891SOL    HW138301   2.443   2.005  23.886
 8891SOL    HW238302   2.481   1.881  23.964
 8892SOL     OW38303   2.858   0.403   6.052
 8892SOL    HW138304   2.876   0.374   6.142
 8892SOL    HW238305   2.795   0.339   6.019
 8893SOL     OW38306   4.526   1.860  26.937
 8893SOL    HW138307   4.523   1.885  26.845
 8893SOL    HW238308   4.478   1.929  26.982
 8894SOL     OW38309   2.137   0.315  21.170
 8894SOL    HW138310   2.201   0.340  21.103
 8894SOL    HW238311   2.175   0.345  21.252
 8895SOL     OW38312   2.713   0.642   5.987
 8895SOL    HW138313   2.704   0.709   6.055
 8895SOL    HW238314   2.770   0.576   6.026
 8896SOL     OW38315   2.501   0.061  22.453
 8896SOL    HW138316   2.592   0.061  22.423
 8896SOL    HW238317   2.456   0.120  22.393
 8897SOL     OW38318   3.794   0.786  18.035
 8897SOL    HW138319   3.755   0.805  17.950
 8897SOL    HW238320   3.848   0.862  18.055
 8898SOL     OW38321   2.075   0.538  27.101
 8898SOL    HW138322   1.982   0.561  27.108
 8898SOL    HW238323   2.110   0.550  27.189
 8899SOL     OW38324   0.791   0.149  28.417
 8899SOL    HW138325   0.820   0.093  28.345
 8899SOL    HW238326   0.712   0.107  28.450
 8900SOL     OW38327   2.460   3.014  21.005
 8900SOL    HW138328   2.437   2.963  21.083
 8900SOL    HW238329   2.499   3.094  21.039
 8901SOL     OW38330   0.182   0.143  11.558
 8901SOL    HW138331   0.170   0.072  11.621
 8901SOL    HW238332   0.231   0.209  11.607
 8902SOL     OW38333   1.302   1.975  19.868
 8902SOL    HW138334   1.283   1.912  19.799
 8902SOL    HW238335   1.303   1.923  19.948
 8903SOL     OW38336   0.895   1.817  25.578
 8903SOL    HW138337   0.825   1.782  25.522
 8903SOL    HW238338   0.961   1.748  25.580
 8904SOL     OW38339   0.872   4.777   5.495
 8904SOL    HW138340   0.862   0.041   5.411
 8904SOL    HW238341   0.889   0.067   5.557
 8905SOL     OW38342   2.369   2.470  26.000
 8905SOL    HW138343   2.360   2.514  26.085
 8905SOL    HW238344   2.328   2.385  26.013
 8906SOL     OW38345   4.576   1.867   0.654
 8906SOL    HW138346   4.597   1.776   0.634
 8906SOL    HW238347   4.595   1.914   0.573
 8907SOL     OW38348   4.427   1.155  13.094
 8907SOL    HW138349   4.510   1.203  13.099
 8907SOL    HW238350   4.447   1.078  13.040
 8908SOL     OW38351   4.620   0.355  20.600
 8908SOL    HW138352   4.605   0.426  20.662
 8908SOL    HW238353   4.534   0.315  20.587
 8909SOL     OW38354   4.483   1.312   9.705
 8909SOL    HW138355   4.436   1.382   9.750
 8909SOL    HW238356   4.488   1.341   9.614
 8910SOL     OW38357   3.988   2.709  24.985
 8910SOL    HW138358   3.972   2.803  24.977
 8910SOL    HW238359   3.939   2.682  25.062
 8911SOL     OW38360   3.375   0.417   1.318
 8911SOL    HW138361   3.343   0.491   1.267
 8911SOL    HW238362   3.303   0.353   1.316
 8912SOL     OW38363   1.186   0.907  24.152
 8912SOL    HW138364   1.224   0.867  24.230
 8912SOL    HW238365   1.219   0.855  24.079
 8913SOL     OW38366   3.061   4.087  22.386
 8913SOL    HW138367   3.023   4.172  22.408
 8913SOL    HW238368   2.986   4.030  22.373
 8914SOL     OW38369   3.591   3.181   2.994
 8914SOL    HW138370   3.624   3.108   3.046
 8914SOL    HW238371   3.562   3.140   2.912
 8915SOL     OW38372   3.254   3.622   2.993
 8915SOL    HW138373   3.173   3.659   3.028
 8915SOL    HW238374   3.225   3.556   2.929
 8916SOL     OW38375   3.657   3.360  17.020
 8916SOL    HW138376   3.628   3.289  16.963
 8916SOL    HW238377   3.589   3.427  17.012
 8917SOL     OW38378   3.638   0.727  19.869
 8917SOL    HW138379   3.667   0.773  19.790
 8917SOL    HW238380   3.719   0.707  19.916
 8918SOL     OW38381   1.905   1.709   5.354
 8918SOL    HW138382   1.886   1.689   5.262
 8918SOL    HW238383   1.848   1.650   5.404
 8919SOL     OW38384   0.458   2.060   6.938
 8919SOL    HW138385   0.396   2.036   7.007
 8919SOL    HW238386   0.403   2.093   6.867
 8920SOL     OW38387   0.751   0.960  21.416
 8920SOL    HW138388   0.701   0.942  21.496
 8920SOL    HW238389   0.778   1.051  21.424
 8921SOL     OW38390   4.717   2.923  23.240
 8921SOL    HW138391   4.746   2.832  23.228
 8921SOL    HW238392   4.722   2.961  23.152
 8922SOL     OW38393   0.606   0.257  17.303
 8922SOL    HW138394   0.588   0.302  17.386
 8922SOL    HW238395   0.569   0.315  17.236
 8923SOL     OW38396   3.052   3.678  23.093
 8923SOL    HW138397   2.984   3.691  23.027
 8923SOL    HW238398   3.022   3.727  23.169
 8924SOL     OW38399   4.374   0.740   8.615
 8924SOL    HW138400   4.384   0.731   8.520
 8924SOL    HW238401   4.280   0.732   8.631
 8925SOL     OW38402   4.666   2.101  24.135
 8925SOL    HW138403   4.742   2.114  24.078
 8925SOL    HW238404   4.643   2.189  24.165
 8926SOL     OW38405   1.842   0.299  26.364
 8926SOL    HW138406   1.820   0.215  26.405
 8926SOL    HW238407   1.766   0.320  26.310
 8927SOL     OW38408   4.745   0.103   4.750
 8927SOL    HW138409   4.750   0.197   4.768
 8927SOL    HW238410   4.657   0.077   4.779
 8928SOL     OW38411   0.725   0.713  20.703
 8928SOL    HW138412   0.717   0.707  20.798
 8928SOL    HW238413   0.733   0.622  20.673
 8929SOL     OW38414   2.560   3.057  21.276
 8929SOL    HW138415   2.549   3.150  21.295
 8929SOL    HW238416   2.641   3.032  21.320
 8930SOL     OW38417   0.839   3.775  22.464
 8930SOL    HW138418   0.881   3.691  22.448
 8930SOL    HW238419   0.879   3.806  22.545
 8931SOL     OW38420   0.637   2.427  21.845
 8931SOL    HW138421   0.681   2.390  21.769
 8931SOL    HW238422   0.614   2.516  21.819
 8932SOL     OW38423   4.098   4.470   7.882
 8932SOL    HW138424   4.142   4.403   7.934
 8932SOL    HW238425   4.162   4.494   7.815
 8933SOL     OW38426   4.155   3.646   6.405
 8933SOL    HW138427   4.093   3.707   6.366
 8933SOL    HW238428   4.126   3.637   6.496
 8934SOL     OW38429   4.415   0.146  25.168
 8934SOL    HW138430   4.502   0.133  25.130
 8934SOL    HW238431   4.399   0.240  25.158
 8935SOL     OW38432   2.858   1.605   5.437
 8935SOL    HW138433   2.901   1.547   5.500
 8935SOL    HW238434   2.909   1.686   5.439
 8936SOL     OW38435   0.221   3.967   0.986
 8936SOL    HW138436   0.193   3.985   0.896
 8936SOL    HW238437   0.183   4.038   1.037
 8937SOL     OW38438   2.818   0.411  21.089
 8937SOL    HW138439   2.902   0.389  21.049
 8937SOL    HW238440   2.836   0.488  21.143
 8938SOL     OW38441   2.480   1.271  21.411
 8938SOL    HW138442   2.490   1.209  21.339
 8938SOL    HW238443   2.386   1.285  21.419
 8939SOL     OW38444   4.247   4.429   4.152
 8939SOL    HW138445   4.309   4.468   4.214
 8939SOL    HW238446   4.302   4.378   4.093
 8940SOL     OW38447   1.632   0.425  25.195
 8940SOL    HW138448   1.598   0.473  25.270
 8940SOL    HW238449   1.555   0.385  25.155
 8941SOL     OW38450   3.713   2.790  19.764
 8941SOL    HW138451   3.802   2.795  19.798
 8941SOL    HW238452   3.704   2.868  19.709
 8942SOL     OW38453   3.849   4.348   8.169
 8942SOL    HW138454   3.936   4.310   8.179
 8942SOL    HW238455   3.814   4.308   8.090
 8943SOL     OW38456   3.220   3.742  28.233
 8943SOL    HW138457   3.145   3.751  28.174
 8943SOL    HW238458   3.296   3.762  28.179
 8944SOL     OW38459   2.051   3.788  23.566
 8944SOL    HW138460   2.121   3.853  23.575
 8944SOL    HW238461   2.095   3.710  23.531
 8945SOL     OW38462   1.652   1.773  20.967
 8945SOL    HW138463   1.689   1.721  20.896
 8945SOL    HW238464   1.569   1.731  20.988
 8946SOL     OW38465   2.429   1.512   7.471
 8946SOL    HW138466   2.430   1.568   7.393
 8946SOL    HW238467   2.506   1.539   7.521
 8947SOL     OW38468   1.529   3.740   7.015
 8947SOL    HW138469   1.531   3.791   7.096
 8947SOL    HW238470   1.618   3.747   6.980
 8948SOL     OW38471   2.078   1.381  24.532
 8948SOL    HW138472   2.087   1.447  24.601
 8948SOL    HW238473   2.000   1.331  24.556
 8949SOL     OW38474   0.760   4.410  21.895
 8949SOL    HW138475   0.773   4.494  21.852
 8949SOL    HW238476   0.730   4.352  21.825
 8950SOL     OW38477   4.515   0.341  16.325
 8950SOL    HW138478   4.438   0.397  16.315
 8950SOL    HW238479   4.523   0.296  16.241
 8951SOL     OW38480   4.675   0.708  10.643
 8951SOL    HW138481   4.770   0.712  10.651
 8951SOL    HW238482   4.645   0.794  10.674
 8952SOL     OW38483   0.127   2.723   6.717
 8952SOL    HW138484   0.110   2.744   6.625
 8952SOL    HW238485   0.088   2.795   6.766
 8953SOL     OW38486   1.240   2.415   8.456
 8953SOL    HW138487   1.179   2.343   8.440
 8953SOL    HW238488   1.323   2.384   8.419
 8954SOL     OW38489   2.510   4.345   0.166
 8954SOL    HW138490   2.441   4.412   0.163
 8954SOL    HW238491   2.527   4.324   0.074
 8955SOL     OW38492   1.797   1.020  22.476
 8955SOL    HW138493   1.705   1.044  22.462
 8955SOL    HW238494   1.843   1.104  22.484
 8956SOL     OW38495   2.909   4.737  23.457
 8956SOL    HW138496   2.972   4.734  23.529
 8956SOL    HW238497   2.833   0.002  23.494
 8957SOL     OW38498   3.075   4.196  27.569
 8957SOL    HW138499   3.076   4.292  27.572
 8957SOL    HW238500   3.068   4.170  27.661
 8958SOL     OW38501   0.166   3.969  26.688
 8958SOL    HW138502   0.151   3.894  26.631
 8958SOL    HW238503   0.118   3.948  26.768
 8959SOL     OW38504   0.742   4.711  21.514
 8959SOL    HW138505   0.673   4.776  21.500
 8959SOL    HW238506   0.699   4.627  21.499
 8960SOL     OW38507   4.379   2.157   5.557
 8960SOL    HW138508   4.303   2.160   5.498
 8960SOL    HW238509   4.396   2.064   5.569
 8961SOL     OW38510   2.809   1.061  19.054
 8961SOL    HW138511   2.757   0.999  19.105
 8961SOL    HW238512   2.754   1.139  19.048
 8962SOL     OW38513   4.105   3.438  21.387
 8962SOL    HW138514   4.019   3.475  21.365
 8962SOL    HW238515   4.117   3.367  21.324
 8963SOL     OW38516   4.494   4.582   3.213
 8963SOL    HW138517   4.398   4.576   3.216
 8963SOL    HW238518   4.515   4.595   3.120
 8964SOL     OW38519   1.750   0.945  26.144
 8964SOL    HW138520   1.842   0.937  26.168
 8964SOL    HW238521   1.713   0.858  26.161
 8965SOL     OW38522   2.153   1.256  24.896
 8965SOL    HW138523   2.058   1.259  24.909
 8965SOL    HW238524   2.180   1.172  24.934
 8966SOL     OW38525   3.809   4.253  20.321
 8966SOL    HW138526   3.887   4.306  20.337
 8966SOL    HW238527   3.799   4.200  20.400
 8967SOL     OW38528   0.417   1.255  27.730
 8967SOL    HW138529   0.330   1.218  27.713
 8967SOL    HW238530   0.475   1.211  27.668
 8968SOL     OW38531   0.239   3.367   8.692
 8968SOL    HW138532   0.227   3.461   8.708
 8968SOL    HW238533   0.333   3.352   8.704
 8969SOL     OW38534   3.287   1.092  27.924
 8969SOL    HW138535   3.355   1.025  27.932
 8969SOL    HW238536   3.324   1.156  27.864
 8970SOL     OW38537   1.387   1.566   1.499
 8970SOL    HW138538   1.301   1.523   1.503
 8970SOL    HW238539   1.438   1.511   1.440
 8971SOL     OW38540   1.734   0.003  28.177
 8971SOL    HW138541   1.809   0.054  28.147
 8971SOL    HW238542   1.709   4.731  28.101
 8972SOL     OW38543   3.157   4.524  25.367
 8972SOL    HW138544   3.105   4.506  25.445
 8972SOL    HW238545   3.248   4.517  25.397
 8973SOL     OW38546   0.535   2.901  20.450
 8973SOL    HW138547   0.609   2.958  20.470
 8973SOL    HW238548   0.568   2.842  20.382
 8974SOL     OW38549   3.832   0.318  23.219
 8974SOL    HW138550   3.745   0.357  23.210
 8974SOL    HW238551   3.887   0.388  23.253
 8975SOL     OW38552   3.715   1.644  22.662
 8975SOL    HW138553   3.811   1.641  22.657
 8975SOL    HW238554   3.694   1.593  22.740
 8976SOL     OW38555   3.959   2.733  22.496
 8976SOL    HW138556   3.994   2.648  22.470
 8976SOL    HW238557   3.963   2.733  22.592
 8977SOL     OW38558   4.333   3.219   0.390
 8977SOL    HW138559   4.264   3.241   0.327
 8977SOL    HW238560   4.414   3.222   0.339
 8978SOL     OW38561   1.482   4.170  20.675
 8978SOL    HW138562   1.545   4.238  20.699
 8978SOL    HW238563   1.410   4.218  20.635
 8979SOL     OW38564   4.096   4.094  19.986
 8979SOL    HW138565   4.077   4.040  19.909
 8979SOL    HW238566   4.042   4.172  19.974
 8980SOL     OW38567   2.953   1.995   5.137
 8980SOL    HW138568   2.985   2.062   5.198
 8980SOL    HW238569   3.031   1.944   5.114
 8981SOL     OW38570   1.507   3.844  25.992
 8981SOL    HW138571   1.532   3.775  25.931
 8981SOL    HW238572   1.413   3.854  25.980
 8982SOL     OW38573   4.551   1.832  25.779
 8982SOL    HW138574   4.617   1.843  25.711
 8982SOL    HW238575   4.468   1.848  25.734
 8983SOL     OW38576   1.074   3.015   7.554
 8983SOL    HW138577   1.139   3.066   7.603
 8983SOL    HW238578   1.121   2.937   7.526
 8984SOL     OW38579   1.991   0.163  23.962
 8984SOL    HW138580   2.070   0.217  23.957
 8984SOL    HW238581   1.977   0.132  23.873
 8985SOL     OW38582   0.354   4.677  25.293
 8985SOL    HW138583   0.383   4.756  25.247
 8985SOL    HW238584   0.429   4.652  25.347
 8986SOL     OW38585   1.151   2.376   6.275
 8986SOL    HW138586   1.151   2.328   6.358
 8986SOL    HW238587   1.060   2.401   6.261
 8987SOL     OW38588   4.645   0.537  19.836
 8987SOL    HW138589   4.582   0.485  19.786
 8987SOL    HW238590   4.673   0.605  19.775
 8988SOL     OW38591   2.490   3.321  23.389
 8988SOL    HW138592   2.575   3.277  23.398
 8988SOL    HW238593   2.473   3.359  23.475
 8989SOL     OW38594   3.744   1.307  17.763
 8989SOL    HW138595   3.658   1.270  17.743
 8989SOL    HW238596   3.778   1.251  17.833
 8990SOL     OW38597   2.909   3.900  19.511
 8990SOL    HW138598   2.821   3.930  19.488
 8990SOL    HW238599   2.906   3.805  19.499
 8991SOL     OW38600   0.600   2.385   6.661
 8991SOL    HW138601   0.555   2.469   6.669
 8991SOL    HW238602   0.683   2.406   6.617
 8992SOL     OW38603   0.936   3.883  24.581
 8992SOL    HW138604   0.976   3.886  24.494
 8992SOL    HW238605   0.843   3.902  24.565
 8993SOL     OW38606   3.165   1.152   6.279
 8993SOL    HW138607   3.088   1.209   6.284
 8993SOL    HW238608   3.239   1.212   6.276
 8994SOL     OW38609   0.859   1.915  28.170
 8994SOL    HW138610   0.890   2.002  28.197
 8994SOL    HW238611   0.801   1.932  28.096
 8995SOL     OW38612   1.598   2.040   2.871
 8995SOL    HW138613   1.588   2.007   2.960
 8995SOL    HW238614   1.690   2.023   2.849
 8996SOL     OW38615   0.720   3.556  20.143
 8996SOL    HW138616   0.639   3.592  20.178
 8996SOL    HW238617   0.763   3.630  20.101
 8997SOL     OW38618   2.912   0.464   3.002
 8997SOL    HW138619   2.835   0.457   2.946
 8997SOL    HW238620   2.896   0.542   3.056
 8998SOL     OW38621   1.544   4.278  12.106
 8998SOL    HW138622   1.634   4.297  12.079
 8998SOL    HW238623   1.552   4.243  12.195
 8999SOL     OW38624   1.316   1.084   5.756
 8999SOL    HW138625   1.361   1.035   5.825
 8999SOL    HW238626   1.235   1.114   5.797
 9000SOL     OW38627   1.322   1.262   0.203
 9000SOL    HW138628   1.238   1.221   0.223
 9000SOL    HW238629   1.325   1.339   0.260
 9001SOL     OW38630   4.127   2.783  25.324
 9001SOL    HW138631   4.157   2.869  25.352
 9001SOL    HW238632   4.172   2.768  25.241
 9002SOL     OW38633   4.002   2.034  24.857
 9002SOL    HW138634   4.069   2.026  24.789
 9002SOL    HW238635   3.921   2.008  24.814
 9003SOL     OW38636   1.946   0.906  28.339
 9003SOL    HW138637   1.959   0.959  28.260
 9003SOL    HW238638   1.974   0.963  28.411
 9004SOL     OW38639   2.103   0.134  18.933
 9004SOL    HW138640   2.196   0.142  18.913
 9004SOL    HW238641   2.070   0.223  18.927
 9005SOL     OW38642   3.982   4.076  19.257
 9005SOL    HW138643   3.944   4.023  19.327
 9005SOL    HW238644   4.002   4.013  19.188
 9006SOL     OW38645   1.206   2.424  22.760
 9006SOL    HW138646   1.277   2.483  22.736
 9006SOL    HW238647   1.133   2.449  22.703
 9007SOL     OW38648   2.616   2.281  27.109
 9007SOL    HW138649   2.632   2.204  27.163
 9007SOL    HW238650   2.694   2.335  27.120
 9008SOL     OW38651   3.845   0.037  27.991
 9008SOL    HW138652   3.805   4.770  28.064
 9008SOL    HW238653   3.782   0.106  27.970
 9009SOL     OW38654   4.341   2.870   1.596
 9009SOL    HW138655   4.279   2.940   1.574
 9009SOL    HW238656   4.357   2.826   1.513
 9010SOL     OW38657   4.302   3.799  23.431
 9010SOL    HW138658   4.291   3.709  23.401
 9010SOL    HW238659   4.354   3.841  23.363
 9011SOL     OW38660   2.893   2.663  22.817
 9011SOL    HW138661   2.868   2.717  22.742
 9011SOL    HW238662   2.976   2.622  22.791
 9012SOL     OW38663   2.592   3.152  19.998
 9012SOL    HW138664   2.667   3.122  19.947
 9012SOL    HW238665   2.610   3.245  20.015
 9013SOL     OW38666   4.257   1.682  10.449
 9013SOL    HW138667   4.302   1.643  10.374
 9013SOL    HW238668   4.201   1.612  10.482
 9014SOL     OW38669   0.366   2.229  27.699
 9014SOL    HW138670   0.332   2.156  27.647
 9014SOL    HW238671   0.389   2.296  27.634
 9015SOL     OW38672   0.400   1.523   4.995
 9015SOL    HW138673   0.383   1.570   5.077
 9015SOL    HW238674   0.320   1.473   4.980
 9016SOL     OW38675   1.705   4.466  25.530
 9016SOL    HW138676   1.744   4.540  25.577
 9016SOL    HW238677   1.658   4.507  25.457
 9017SOL     OW38678   4.625   0.223  17.219
 9017SOL    HW138679   4.686   0.289  17.187
 9017SOL    HW238680   4.677   0.143  17.226
 9018SOL     OW38681   2.252   0.179  22.703
 9018SOL    HW138682   2.268   0.086  22.690
 9018SOL    HW238683   2.167   0.196  22.662
 9019SOL     OW38684   1.039   2.781  24.184
 9019SOL    HW138685   1.000   2.694  24.193
 9019SOL    HW238686   1.130   2.769  24.210
 9020SOL     OW38687   3.890   1.654   7.222
 9020SOL    HW138688   3.891   1.750   7.219
 9020SOL    HW238689   3.810   1.629   7.176
 9021SOL     OW38690   1.507   1.636  27.331
 9021SOL    HW138691   1.498   1.713  27.276
 9021SOL    HW238692   1.600   1.615  27.329
 9022SOL     OW38693   2.458   0.585   6.000
 9022SOL    HW138694   2.406   0.639   5.941
 9022SOL    HW238695   2.549   0.606   5.979
 9023SOL     OW38696   4.127   3.830   2.583
 9023SOL    HW138697   4.207   3.804   2.538
 9023SOL    HW238698   4.075   3.750   2.587
 9024SOL     OW38699   1.110   3.280  21.416
 9024SOL    HW138700   1.016   3.262  21.412
 9024SOL    HW238701   1.140   3.233  21.494
 9025SOL     OW38702   1.565   0.328  21.611
 9025SOL    HW138703   1.607   0.328  21.697
 9025SOL    HW238704   1.600   0.250  21.568
 9026SOL     OW38705   0.512   1.443   8.438
 9026SOL    HW138706   0.557   1.421   8.519
 9026SOL    HW238707   0.433   1.489   8.466
 9027SOL     OW38708   0.205   0.733   6.539
 9027SOL    HW138709   0.299   0.733   6.558
 9027SOL    HW238710   0.175   0.645   6.563
 9028SOL     OW38711   3.532   4.248   6.427
 9028SOL    HW138712   3.607   4.301   6.452
 9028SOL    HW238713   3.548   4.163   6.467
 9029SOL     OW38714   4.733   4.241   4.524
 9029SOL    HW138715   0.010   4.210   4.454
 9029SOL    HW238716   0.005   4.305   4.572
 9030SOL     OW38717   4.382   4.301   1.088
 9030SOL    HW138718   4.412   4.307   0.997
 9030SOL    HW238719   4.291   4.271   1.081
 9031SOL     OW38720   0.974   0.195  19.821
 9031SOL    HW138721   1.028   0.136  19.768
 9031SOL    HW238722   1.027   0.213  19.898
 9032SOL     OW38723   4.187   4.460   0.450
 9032SOL    HW138724   4.161   4.384   0.398
 9032SOL    HW238725   4.234   4.516   0.388
 9033SOL     OW38726   0.412   3.920   7.029
 9033SOL    HW138727   0.345   3.972   7.073
 9033SOL    HW238728   0.364   3.849   6.987
 9034SOL     OW38729   2.317   0.239  25.201
 9034SOL    HW138730   2.258   0.186  25.254
 9034SOL    HW238731   2.403   0.199  25.214
 9035SOL     OW38732   2.315   3.622   4.098
 9035SOL    HW138733   2.390   3.636   4.040
 9035SOL    HW238734   2.239   3.648   4.046
 9036SOL     OW38735   4.101   1.674  21.199
 9036SOL    HW138736   4.151   1.638  21.125
 9036SOL    HW238737   4.104   1.769  21.186
 9037SOL     OW38738   0.144   2.276  22.353
 9037SOL    HW138739   0.085   2.346  22.325
 9037SOL    HW238740   0.203   2.263  22.279
 9038SOL     OW38741   2.605   4.615   9.829
 9038SOL    HW138742   2.616   4.522   9.810
 9038SOL    HW238743   2.660   4.631   9.906
 9039SOL     OW38744   0.321   4.308  26.143
 9039SOL    HW138745   0.303   4.240  26.078
 9039SOL    HW238746   0.408   4.340  26.120
 9040SOL     OW38747   2.127   0.193  22.381
 9040SOL    HW138748   2.217   0.222  22.363
 9040SOL    HW238749   2.072   0.267  22.354
 9041SOL     OW38750   2.638   2.635   5.307
 9041SOL    HW138751   2.646   2.679   5.392
 9041SOL    HW238752   2.647   2.706   5.243
 9042SOL     OW38753   3.610   0.770  18.237
 9042SOL    HW138754   3.542   0.716  18.197
 9042SOL    HW238755   3.674   0.785  18.167
 9043SOL     OW38756   3.117   4.141   9.409
 9043SOL    HW138757   3.035   4.153   9.458
 9043SOL    HW238758   3.186   4.163   9.472
 9044SOL     OW38759   2.038   2.225  12.419
 9044SOL    HW138760   2.068   2.159  12.482
 9044SOL    HW238761   1.949   2.247  12.448
 9045SOL     OW38762   3.269   4.183  20.955
 9045SOL    HW138763   3.230   4.257  20.909
 9045SOL    HW238764   3.194   4.132  20.986
 9046SOL     OW38765   2.019   4.736  21.425
 9046SOL    HW138766   1.996   4.751  21.517
 9046SOL    HW238767   1.974   0.025  21.378
 9047SOL     OW38768   2.678   4.758  25.699
 9047SOL    HW138769   2.698   0.069  25.718
 9047SOL    HW238770   2.664   4.756  25.604
 9048SOL     OW38771   4.097   1.182   2.959
 9048SOL    HW138772   4.150   1.107   2.986
 9048SOL    HW238773   4.023   1.143   2.912
 9049SOL     OW38774   3.317   1.348  26.598
 9049SOL    HW138775   3.243   1.306  26.642
 9049SOL    HW238776   3.280   1.428  26.560
 9050SOL     OW38777   2.581   2.423  25.335
 9050SOL    HW138778   2.493   2.398  25.365
 9050SOL    HW238779   2.639   2.391  25.404
 9051SOL     OW38780   0.593   1.084  27.561
 9051SOL    HW138781   0.653   1.123  27.498
 9051SOL    HW238782   0.551   1.012  27.513
 9052SOL     OW38783   0.547   1.590   1.151
 9052SOL    HW138784   0.610   1.523   1.125
 9052SOL    HW238785   0.567   1.665   1.095
 9053SOL     OW38786   0.330   0.729   1.024
 9053SOL    HW138787   0.390   0.690   0.961
 9053SOL    HW238788   0.306   0.813   0.986
 9054SOL     OW38789   1.011   0.317   8.058
 9054SOL    HW138790   1.053   0.332   7.973
 9054SOL    HW238791   0.921   0.293   8.037
 9055SOL     OW38792   3.914   3.811   6.290
 9055SOL    HW138793   3.825   3.841   6.310
 9055SOL    HW238794   3.935   3.851   6.206
 9056SOL     OW38795   4.134   3.575   3.923
 9056SOL    HW138796   4.138   3.670   3.931
 9056SOL    HW238797   4.044   3.556   3.898
 9057SOL     OW38798   0.947   4.581  27.056
 9057SOL    HW138799   0.857   4.573  27.088
 9057SOL    HW238800   1.001   4.550  27.129
 9058SOL     OW38801   1.652   0.321   1.582
 9058SOL    HW138802   1.656   0.226   1.590
 9058SOL    HW238803   1.560   0.343   1.597
 9059SOL     OW38804   3.542   1.311  26.734
 9059SOL    HW138805   3.463   1.316  26.680
 9059SOL    HW238806   3.554   1.217  26.750
 9060SOL     OW38807   3.654   2.646   3.046
 9060SOL    HW138808   3.721   2.655   2.978
 9060SOL    HW238809   3.664   2.556   3.078
 9061SOL     OW38810   4.546   1.966  17.184
 9061SOL    HW138811   4.532   2.025  17.110
 9061SOL    HW238812   4.462   1.922  17.196
 9062SOL     OW38813   3.627   0.479  23.183
 9062SOL    HW138814   3.539   0.496  23.150
 9062SOL    HW238815   3.678   0.556  23.157
 9063SOL     OW38816   0.290   1.188   9.603
 9063SOL    HW138817   0.326   1.143   9.527
 9063SOL    HW238818   0.335   1.273   9.605
 9064SOL     OW38819   0.897   3.463  22.824
 9064SOL    HW138820   0.842   3.393  22.860
 9064SOL    HW238821   0.972   3.466  22.883
 9065SOL     OW38822   3.840   3.626  19.437
 9065SOL    HW138823   3.749   3.600  19.425
 9065SOL    HW238824   3.890   3.566  19.381
 9066SOL     OW38825   4.682   0.997  18.266
 9066SOL    HW138826   4.767   1.041  18.274
 9066SOL    HW238827   4.658   1.008  18.174
 9067SOL     OW38828   1.674   3.383  11.087
 9067SOL    HW138829   1.665   3.356  11.178
 9067SOL    HW238830   1.751   3.440  11.086
 9068SOL     OW38831   0.836   3.203  24.829
 9068SOL    HW138832   0.835   3.292  24.794
 9068SOL    HW238833   0.854   3.147  24.753
 9069SOL     OW38834   3.283   2.499  17.768
 9069SOL    HW138835   3.330   2.425  17.730
 9069SOL    HW238836   3.296   2.570  17.705
 9070SOL     OW38837   2.398   1.830   7.223
 9070SOL    HW138838   2.347   1.843   7.303
 9070SOL    HW238839   2.451   1.753   7.241
 9071SOL     OW38840   3.547   4.028  21.778
 9071SOL    HW138841   3.621   3.988  21.731
 9071SOL    HW238842   3.553   4.121  21.758
 9072SOL     OW38843   3.799   0.635   7.512
 9072SOL    HW138844   3.799   0.545   7.481
 9072SOL    HW238845   3.781   0.628   7.606
 9073SOL     OW38846   4.258   1.207   4.873
 9073SOL    HW138847   4.306   1.136   4.830
 9073SOL    HW238848   4.178   1.216   4.822
 9074SOL     OW38849   3.971   4.313   2.707
 9074SOL    HW138850   3.910   4.255   2.661
 9074SOL    HW238851   4.026   4.254   2.758
 9075SOL     OW38852   3.732   2.854  20.619
 9075SOL    HW138853   3.746   2.764  20.589
 9075SOL    HW238854   3.665   2.846  20.687
 9076SOL     OW38855   3.013   3.964  25.026
 9076SOL    HW138856   3.009   4.018  24.947
 9076SOL    HW238857   3.006   3.874  24.994
 9077SOL     OW38858   1.141   1.865  21.884
 9077SOL    HW138859   1.211   1.878  21.821
 9077SOL    HW238860   1.061   1.887  21.836
 9078SOL     OW38861   2.978   1.035  26.739
 9078SOL    HW138862   3.062   1.074  26.716
 9078SOL    HW238863   2.999   0.943  26.758
 9079SOL     OW38864   0.704   4.178   1.291
 9079SOL    HW138865   0.658   4.114   1.237
 9079SOL    HW238866   0.644   4.253   1.296
 9080SOL     OW38867   4.457   2.031   0.154
 9080SOL    HW138868   4.452   1.974   0.077
 9080SOL    HW238869   4.380   2.088   0.146
 9081SOL     OW38870   3.928   4.473  10.446
 9081SOL    HW138871   3.916   4.567  10.434
 9081SOL    HW238872   3.983   4.446  10.372
 9082SOL     OW38873   1.977   2.966  26.768
 9082SOL    HW138874   1.909   2.915  26.723
 9082SOL    HW238875   2.059   2.923  26.743
 9083SOL     OW38876   1.867   2.552  20.564
 9083SOL    HW138877   1.930   2.621  20.584
 9083SOL    HW238878   1.786   2.581  20.605
 9084SOL     OW38879   3.475   1.842   1.886
 9084SOL    HW138880   3.566   1.868   1.900
 9084SOL    HW238881   3.481   1.760   1.837
 9085SOL     OW38882   3.668   1.998   1.957
 9085SOL    HW138883   3.747   1.994   1.903
 9085SOL    HW238884   3.690   2.061   2.026
 9086SOL     OW38885   1.121   4.114   6.845
 9086SOL    HW138886   1.055   4.086   6.908
 9086SOL    HW238887   1.204   4.083   6.881
 9087SOL     OW38888   4.679   4.412   7.265
 9087SOL    HW138889   4.682   4.500   7.302
 9087SOL    HW238890   4.743   4.415   7.193
 9088SOL     OW38891   4.759   3.143   5.570
 9088SOL    HW138892   0.028   3.061   5.567
 9088SOL    HW238893   4.757   3.167   5.663
 9089SOL     OW38894   1.431   0.247   4.615
 9089SOL    HW138895   1.428   0.157   4.648
 9089SOL    HW238896   1.339   0.275   4.612
 9090SOL     OW38897   4.311   1.887   3.886
 9090SOL    HW138898   4.338   1.979   3.885
 9090SOL    HW238899   4.371   1.844   3.947
 9091SOL     OW38900   0.604   1.241   5.890
 9091SOL    HW138901   0.514   1.229   5.921
 9091SOL    HW238902   0.625   1.332   5.910
 9092SOL     OW38903   1.579   2.932   1.541
 9092SOL    HW138904   1.655   2.886   1.506
 9092SOL    HW238905   1.551   2.880   1.616
 9093SOL     OW38906   1.355   3.455  21.064
 9093SOL    HW138907   1.304   3.484  21.140
 9093SOL    HW238908   1.412   3.529  21.044
 9094SOL     OW38909   3.715   2.307  19.680
 9094SOL    HW138910   3.750   2.236  19.625
 9094SOL    HW238911   3.757   2.295  19.765
 9095SOL     OW38912   1.180   3.001  22.298
 9095SOL    HW138913   1.090   2.984  22.325
 9095SOL    HW238914   1.227   2.921  22.323
 9096SOL     OW38915   4.297   1.358   9.244
 9096SOL    HW138916   4.202   1.351   9.243
 9096SOL    HW238917   4.319   1.408   9.166
 9097SOL     OW38918   1.487   3.402   0.634
 9097SOL    HW138919   1.563   3.443   0.593
 9097SOL    HW238920   1.423   3.473   0.642
 9098SOL     OW38921   4.680   0.726  20.514
 9098SOL    HW138922   4.772   0.750  20.520
 9098SOL    HW238923   4.670   0.694  20.424
 9099SOL     OW38924   4.299   3.726  23.680
 9099SOL    HW138925   4.330   3.805  23.725
 9099SOL    HW238926   4.317   3.742  23.587
 9100SOL     OW38927   2.041   0.766   2.706
 9100SOL    HW138928   1.991   0.734   2.631
 9100SOL    HW238929   1.985   0.832   2.746
 9101SOL     OW38930   2.682   1.535  23.453
 9101SOL    HW138931   2.726   1.556  23.371
 9101SOL    HW238932   2.593   1.567  23.441
 9102SOL     OW38933   2.391   2.796  27.442
 9102SOL    HW138934   2.328   2.725  27.457
 9102SOL    HW238935   2.447   2.796  27.520
 9103SOL     OW38936   1.405   1.005  26.351
 9103SOL    HW138937   1.382   0.990  26.259
 9103SOL    HW238938   1.323   1.033  26.392
 9104SOL     OW38939   3.852   0.139  12.981
 9104SOL    HW138940   3.818   0.174  13.063
 9104SOL    HW238941   3.786   0.076  12.953
 9105SOL     OW38942   1.453   1.883   8.762
 9105SOL    HW138943   1.388   1.874   8.831
 9105SOL    HW238944   1.527   1.928   8.804
 9106SOL     OW38945   0.134   0.910  20.755
 9106SOL    HW138946   0.047   0.891  20.790
 9106SOL    HW238947   0.151   1.001  20.781
 9107SOL     OW38948   3.429   4.281   5.119
 9107SOL    HW138949   3.369   4.267   5.192
 9107SOL    HW238950   3.393   4.228   5.048
 9108SOL     OW38951   3.853   2.260   7.156
 9108SOL    HW138952   3.941   2.259   7.194
 9108SOL    HW238953   3.864   2.303   7.071
 9109SOL     OW38954   3.590   4.308  21.698
 9109SOL    HW138955   3.673   4.345  21.727
 9109SOL    HW238956   3.609   4.270  21.612
 9110SOL     OW38957   3.240   4.678   1.522
 9110SOL    HW138958   3.267   4.613   1.457
 9110SOL    HW238959   3.165   4.638   1.566
 9111SOL     OW38960   3.023   4.557  22.970
 9111SOL    HW138961   3.003   4.470  22.935
 9111SOL    HW238962   3.062   4.604  22.896
 9112SOL     OW38963   0.213   0.222   9.905
 9112SOL    HW138964   0.186   0.174   9.826
 9112SOL    HW238965   0.175   0.172   9.977
 9113SOL     OW38966   3.823   2.467  17.113
 9113SOL    HW138967   3.734   2.491  17.089
 9113SOL    HW238968   3.877   2.540  17.082
 9114SOL     OW38969   4.097   1.601  19.424
 9114SOL    HW138970   4.144   1.571  19.346
 9114SOL    HW238971   4.016   1.639  19.390
 9115SOL     OW38972   2.175   4.573   4.838
 9115SOL    HW138973   2.177   4.611   4.750
 9115SOL    HW238974   2.156   4.480   4.824
 9116SOL     OW38975   0.743   0.241  25.600
 9116SOL    HW138976   0.768   0.211  25.688
 9116SOL    HW238977   0.684   0.173  25.568
 9117SOL     OW38978   0.031   0.747  23.607
 9117SOL    HW138979   0.115   0.715  23.640
 9117SOL    HW238980   0.021   0.834  23.646
 9118SOL     OW38981   0.950   3.389  26.469
 9118SOL    HW138982   0.894   3.311  26.472
 9118SOL    HW238983   0.889   3.462  26.460
 9119SOL     OW38984   1.695   2.980  26.226
 9119SOL    HW138985   1.711   2.920  26.153
 9119SOL    HW238986   1.623   3.035  26.196
 9120SOL     OW38987   3.075   1.295   9.713
 9120SOL    HW138988   3.059   1.327   9.802
 9120SOL    HW238989   3.044   1.204   9.715
 9121SOL     OW38990   2.066   4.491   9.491
 9121SOL    HW138991   1.995   4.504   9.429
 9121SOL    HW238992   2.091   4.580   9.517
 9122SOL     OW38993   1.800   3.086  26.479
 9122SOL    HW138994   1.782   3.175  26.511
 9122SOL    HW238995   1.895   3.079  26.478
 9123SOL     OW38996   0.237   2.029  28.334
 9123SOL    HW138997   0.224   1.934  28.335
 9123SOL    HW238998   0.287   2.047  28.414
 9124SOL     OW38999   3.488   2.474   8.731
 9124SOL    HW139000   3.431   2.438   8.799
 9124SOL    HW239001   3.483   2.569   8.743
 9125SOL     OW39002   0.328   0.924  20.333
 9125SOL    HW139003   0.328   1.015  20.361
 9125SOL    HW239004   0.404   0.885  20.376
 9126SOL     OW39005   1.201   3.286   5.275
 9126SOL    HW139006   1.232   3.208   5.320
 9126SOL    HW239007   1.273   3.312   5.218
 9127SOL     OW39008   2.471   3.047  18.352
 9127SOL    HW139009   2.540   3.086  18.298
 9127SOL    HW239010   2.446   3.117  18.413
 9128SOL     OW39011   3.977   0.684  21.932
 9128SOL    HW139012   3.929   0.758  21.895
 9128SOL    HW239013   3.941   0.674  22.020
 9129SOL     OW39014   4.262   2.814  22.642
 9129SOL    HW139015   4.252   2.755  22.716
 9129SOL    HW239016   4.348   2.793  22.606
 9130SOL     OW39017   3.824   4.177   6.636
 9130SOL    HW139018   3.732   4.149   6.638
 9130SOL    HW239019   3.824   4.254   6.578
 9131SOL     OW39020   1.799   4.674  11.902
 9131SOL    HW139021   1.811   4.768  11.917
 9131SOL    HW239022   1.781   4.638  11.989
 9132SOL     OW39023   3.122   2.411  28.025
 9132SOL    HW139024   3.039   2.381  28.063
 9132SOL    HW239025   3.133   2.500  28.058
 9133SOL     OW39026   1.364   1.349   3.766
 9133SOL    HW139027   1.300   1.283   3.793
 9133SOL    HW239028   1.410   1.309   3.693
 9134SOL     OW39029   0.166   3.705  27.185
 9134SOL    HW139030   0.250   3.725  27.226
 9134SOL    HW239031   0.159   3.610  27.190
 9135SOL     OW39032   3.469   1.519  28.296
 9135SOL    HW139033   3.496   1.603  28.333
 9135SOL    HW239034   3.387   1.538  28.250
 9136SOL     OW39035   0.671   1.300  27.287
 9136SOL    HW139036   0.686   1.334  27.199
 9136SOL    HW239037   0.602   1.235  27.277
 9137SOL     OW39038   2.165   2.700   5.076
 9137SOL    HW139039   2.151   2.778   5.129
 9137SOL    HW239040   2.077   2.676   5.046
 9138SOL     OW39041   2.076   1.703  22.574
 9138SOL    HW139042   1.989   1.738  22.554
 9138SOL    HW239043   2.127   1.718  22.495
 9139SOL     OW39044   4.069   3.234   4.779
 9139SOL    HW139045   4.113   3.151   4.797
 9139SOL    HW239046   3.988   3.210   4.735
 9140SOL     OW39047   1.520   3.902   5.261
 9140SOL    HW139048   1.610   3.928   5.242
 9140SOL    HW239049   1.529   3.826   5.319
 9141SOL     OW39050   0.085   1.280  27.287
 9141SOL    HW139051   0.149   1.235  27.232
 9141SOL    HW239052   0.135   1.348  27.333
 9142SOL     OW39053   3.823   0.788   1.798
 9142SOL    HW139054   3.912   0.753   1.804
 9142SOL    HW239055   3.785   0.745   1.721
 9143SOL     OW39056   4.118   2.344  19.961
 9143SOL    HW139057   4.207   2.334  19.926
 9143SOL    HW239058   4.104   2.439  19.962
 9144SOL     OW39059   4.446   0.748   2.974
 9144SOL    HW139060   4.424   0.686   3.044
 9144SOL    HW239061   4.538   0.769   2.989
 9145SOL     OW39062   4.619   0.107  17.879
 9145SOL    HW139063   4.680   0.180  17.891
 9145SOL    HW239064   4.541   0.147  17.841
 9146SOL     OW39065   1.118   3.235   8.887
 9146SOL    HW139066   1.126   3.224   8.982
 9146SOL    HW239067   1.048   3.174   8.862
 9147SOL     OW39068   3.703   1.885  22.981
 9147SOL    HW139069   3.615   1.851  22.965
 9147SOL    HW239070   3.725   1.932  22.900
 9148SOL     OW39071   2.748   1.785   5.165
 9148SOL    HW139072   2.787   1.844   5.101
 9148SOL    HW239073   2.818   1.723   5.186
 9149SOL     OW39074   1.752   1.565   9.085
 9149SOL    HW139075   1.740   1.601   8.997
 9149SOL    HW239076   1.847   1.557   9.094
 9150SOL     OW39077   2.314   0.995  24.698
 9150SOL    HW139078   2.224   0.962  24.700
 9150SOL    HW239079   2.341   0.986  24.607
 9151SOL     OW39080   1.866   2.782   7.986
 9151SOL    HW139081   1.907   2.854   7.938
 9151SOL    HW239082   1.932   2.755   8.050
 9152SOL     OW39083   4.220   2.706  27.069
 9152SOL    HW139084   4.302   2.744  27.100
 9152SOL    HW239085   4.182   2.773  27.012
 9153SOL     OW39086   4.704   1.240  23.812
 9153SOL    HW139087   4.612   1.229  23.838
 9153SOL    HW239088   4.740   1.151  23.814
 9154SOL     OW39089   3.893   2.709   1.705
 9154SOL    HW139090   3.927   2.783   1.655
 9154SOL    HW239091   3.820   2.746   1.756
 9155SOL     OW39092   3.914   4.630  18.817
 9155SOL    HW139093   3.968   4.661  18.890
 9155SOL    HW239094   3.975   4.585  18.759
 9156SOL     OW39095   4.675   1.313  11.206
 9156SOL    HW139096   4.740   1.267  11.259
 9156SOL    HW239097   4.617   1.244  11.173
 9157SOL     OW39098   1.537   3.910  23.259
 9157SOL    HW139099   1.574   3.992  23.292
 9157SOL    HW239100   1.594   3.841  23.295
 9158SOL     OW39101   1.983   4.192   5.847
 9158SOL    HW139102   2.046   4.120   5.846
 9158SOL    HW239103   1.924   4.172   5.920
 9159SOL     OW39104   1.559   1.272   4.462
 9159SOL    HW139105   1.546   1.187   4.421
 9159SOL    HW239106   1.601   1.325   4.394
 9160SOL     OW39107   0.964   0.489   1.421
 9160SOL    HW139108   1.001   0.523   1.340
 9160SOL    HW239109   0.933   0.401   1.398
 9161SOL     OW39110   0.605   0.650   6.304
 9161SOL    HW139111   0.621   0.558   6.327
 9161SOL    HW239112   0.545   0.681   6.372
 9162SOL     OW39113   2.936   2.005  26.507
 9162SOL    HW139114   3.013   1.977  26.458
 9162SOL    HW239115   2.864   2.001  26.444
 9163SOL     OW39116   4.477   3.331  22.391
 9163SOL    HW139117   4.559   3.283  22.394
 9163SOL    HW239118   4.418   3.282  22.449
 9164SOL     OW39119   4.659   2.086  23.235
 9164SOL    HW139120   4.666   2.029  23.158
 9164SOL    HW239121   4.602   2.157  23.207
 9165SOL     OW39122   3.682   0.115   5.938
 9165SOL    HW139123   3.659   0.101   5.846
 9165SOL    HW239124   3.762   0.064   5.951
 9166SOL     OW39125   1.973   3.740   4.672
 9166SOL    HW139126   1.993   3.779   4.587
 9166SOL    HW239127   2.003   3.649   4.664
 9167SOL     OW39128   2.286   4.510   7.326
 9167SOL    HW139129   2.202   4.542   7.294
 9167SOL    HW239130   2.281   4.415   7.317
 9168SOL     OW39131   0.997   1.222  25.074
 9168SOL    HW139132   1.028   1.311  25.057
 9168SOL    HW239133   0.965   1.225  25.164
 9169SOL     OW39134   0.693   0.047   6.549
 9169SOL    HW139135   0.647   0.014   6.626
 9169SOL    HW239136   0.732   4.749   6.509
 9170SOL     OW39137   0.513   0.736   1.280
 9170SOL    HW139138   0.428   0.774   1.303
 9170SOL    HW239139   0.518   0.655   1.331
 9171SOL     OW39140   1.369   4.622  26.302
 9171SOL    HW139141   1.370   4.701  26.356
 9171SOL    HW239142   1.341   4.553  26.362
 9172SOL     OW39143   2.787   4.436   0.522
 9172SOL    HW139144   2.784   4.463   0.430
 9172SOL    HW239145   2.878   4.411   0.536
 9173SOL     OW39146   3.782   2.210   2.132
 9173SOL    HW139147   3.762   2.278   2.196
 9173SOL    HW239148   3.807   2.134   2.185
 9174SOL     OW39149   0.398   4.420  22.334
 9174SOL    HW139150   0.448   4.423  22.253
 9174SOL    HW239151   0.374   4.511  22.351
 9175SOL     OW39152   4.524   2.822   7.037
 9175SOL    HW139153   4.478   2.871   6.969
 9175SOL    HW239154   4.553   2.742   6.993
 9176SOL     OW39155   3.182   3.785  21.245
 9176SOL    HW139156   3.143   3.708  21.287
 9176SOL    HW239157   3.274   3.761  21.231
 9177SOL     OW39158   3.875   4.274   8.449
 9177SOL    HW139159   3.914   4.361   8.446
 9177SOL    HW239160   3.816   4.271   8.374
 9178SOL     OW39161   1.662   1.862  25.535
 9178SOL    HW139162   1.719   1.876  25.459
 9178SOL    HW239163   1.712   1.803  25.592
 9179SOL     OW39164   3.006   0.653  25.670
 9179SOL    HW139165   3.050   0.576  25.634
 9179SOL    HW239166   3.042   0.727  25.621
 9180SOL     OW39167   1.572   2.200   9.083
 9180SOL    HW139168   1.507   2.137   9.114
 9180SOL    HW239169   1.598   2.167   8.997
 9181SOL     OW39170   2.872   1.428  27.800
 9181SOL    HW139171   2.786   1.469  27.813
 9181SOL    HW239172   2.854   1.334  27.797
 9182SOL     OW39173   4.091   0.015   5.424
 9182SOL    HW139174   4.146   0.051   5.493
 9182SOL    HW239175   4.070   0.090   5.368
 9183SOL     OW39176   4.120   3.813   8.827
 9183SOL    HW139177   4.034   3.853   8.811
 9183SOL    HW239178   4.170   3.881   8.873
 9184SOL     OW39179   0.192   2.016   0.493
 9184SOL    HW139180   0.171   2.085   0.556
 9184SOL    HW239181   0.232   2.062   0.419
 9185SOL     OW39182   2.465   3.651  17.238
 9185SOL    HW139183   2.530   3.691  17.181
 9185SOL    HW239184   2.459   3.710  17.313
 9186SOL     OW39185   0.673   1.431  21.586
 9186SOL    HW139186   0.675   1.520  21.620
 9186SOL    HW239187   0.580   1.407  21.589
 9187SOL     OW39188   0.178   0.840   2.778
 9187SOL    HW139189   0.087   0.827   2.752
 9187SOL    HW239190   0.228   0.777   2.725
 9188SOL     OW39191   2.078   4.221  23.092
 9188SOL    HW139192   2.075   4.151  23.157
 9188SOL    HW239193   2.113   4.179  23.013
 9189SOL     OW39194   2.270   0.369  26.064
 9189SOL    HW139195   2.271   0.399  26.155
 9189SOL    HW239196   2.349   0.407  26.025
 9190SOL     OW39197   0.584   2.456  23.810
 9190SOL    HW139198   0.490   2.437  23.802
 9190SOL    HW239199   0.623   2.415  23.733
 9191SOL     OW39200   2.598   1.098   6.066
 9191SOL    HW139201   2.516   1.088   6.018
 9191SOL    HW239202   2.616   1.011   6.101
 9192SOL     OW39203   3.216   1.694   4.817
 9192SOL    HW139204   3.299   1.742   4.817
 9192SOL    HW239205   3.227   1.629   4.748
 9193SOL     OW39206   3.853   3.321  26.923
 9193SOL    HW139207   3.788   3.352  26.987
 9193SOL    HW239208   3.808   3.252  26.874
 9194SOL     OW39209   4.178   2.308  28.121
 9194SOL    HW139210   4.228   2.248  28.176
 9194SOL    HW239211   4.219   2.301  28.035
 9195SOL     OW39212   2.654   2.176  18.448
 9195SOL    HW139213   2.735   2.212  18.412
 9195SOL    HW239214   2.598   2.252  18.460
 9196SOL     OW39215   4.731   4.010  27.711
 9196SOL    HW139216   4.700   4.100  27.701
 9196SOL    HW239217   4.739   3.977  27.622
 9197SOL     OW39218   0.792   2.906   8.926
 9197SOL    HW139219   0.886   2.922   8.913
 9197SOL    HW239220   0.758   2.888   8.838
 9198SOL     OW39221   1.582   2.122  25.545
 9198SOL    HW139222   1.631   2.040  25.538
 9198SOL    HW239223   1.642   2.183  25.588
 9199SOL     OW39224   1.237   2.733  21.624
 9199SOL    HW139225   1.254   2.661  21.685
 9199SOL    HW239226   1.157   2.774  21.658
 9200SOL     OW39227   2.268   4.470  11.039
 9200SOL    HW139228   2.360   4.496  11.047
 9200SOL    HW239229   2.233   4.481  11.127
 9201SOL     OW39230   0.846   1.565  24.289
 9201SOL    HW139231   0.890   1.501  24.345
 9201SOL    HW239232   0.774   1.516  24.248
 9202SOL     OW39233   0.452   0.300  27.075
 9202SOL    HW139234   0.534   0.268  27.037
 9202SOL    HW239235   0.453   0.265  27.164
 9203SOL     OW39236   4.558   0.965   0.113
 9203SOL    HW139237   4.586   1.056   0.105
 9203SOL    HW239238   4.483   0.957   0.054
 9204SOL     OW39239   2.501   1.155  22.527
 9204SOL    HW139240   2.544   1.085  22.576
 9204SOL    HW239241   2.572   1.197  22.478
 9205SOL     OW39242   3.458   3.942   0.388
 9205SOL    HW139243   3.451   3.963   0.481
 9205SOL    HW239244   3.505   4.016   0.350
 9206SOL     OW39245   1.141   3.569  25.909
 9206SOL    HW139246   1.221   3.584  25.859
 9206SOL    HW239247   1.092   3.651  25.901
 9207SOL     OW39248   0.236   1.531   1.557
 9207SOL    HW139249   0.241   1.576   1.473
 9207SOL    HW239250   0.169   1.463   1.545
 9208SOL     OW39251   0.695   1.844  19.136
 9208SOL    HW139252   0.665   1.927  19.098
 9208SOL    HW239253   0.683   1.780  19.066
 9209SOL     OW39254   2.660   0.164  18.446
 9209SOL    HW139255   2.600   0.173  18.372
 9209SOL    HW239256   2.717   0.091  18.423
 9210SOL     OW39257   0.479   3.870  26.268
 9210SOL    HW139258   0.397   3.830  26.295
 9210SOL    HW239259   0.523   3.894  26.350
 9211SOL     OW39260   0.480   0.140  18.883
 9211SOL    HW139261   0.401   0.186  18.855
 9211SOL    HW239262   0.507   0.090  18.806
 9212SOL     OW39263   3.019   3.271   4.090
 9212SOL    HW139264   3.092   3.330   4.110
 9212SOL    HW239265   2.988   3.300   4.004
 9213SOL     OW39266   2.873   2.145  18.142
 9213SOL    HW139267   2.788   2.105  18.161
 9213SOL    HW239268   2.853   2.237  18.127
 9214SOL     OW39269   1.666   3.990  20.592
 9214SOL    HW139270   1.691   4.071  20.548
 9214SOL    HW239271   1.613   4.018  20.666
 9215SOL     OW39272   0.550   0.148  28.195
 9215SOL    HW139273   0.506   0.171  28.277
 9215SOL    HW239274   0.626   0.096  28.223
 9216SOL     OW39275   3.823   1.322  11.104
 9216SOL    HW139276   3.766   1.249  11.126
 9216SOL    HW239277   3.764   1.396  11.093
 9217SOL     OW39278   3.269   4.403   9.606
 9217SOL    HW139279   3.323   4.386   9.529
 9217SOL    HW239280   3.266   4.320   9.653
 9218SOL     OW39281   1.255   4.188  25.391
 9218SOL    HW139282   1.173   4.145  25.368
 9218SOL    HW239283   1.255   4.190  25.487
 9219SOL     OW39284   4.542   1.201  10.868
 9219SOL    HW139285   4.505   1.191  10.956
 9219SOL    HW239286   4.540   1.113  10.831
 9220SOL     OW39287   0.142   4.692   4.419
 9220SOL    HW139288   0.203   4.717   4.488
 9220SOL    HW239289   0.157   4.598   4.407
 9221SOL     OW39290   1.023   4.340  27.575
 9221SOL    HW139291   0.964   4.414  27.590
 9221SOL    HW239292   1.101   4.361  27.627
 9222SOL     OW39293   3.056   1.485   3.151
 9222SOL    HW139294   3.033   1.568   3.109
 9222SOL    HW239295   3.033   1.418   3.087
 9223SOL     OW39296   3.615   0.691  19.433
 9223SOL    HW139297   3.538   0.717  19.382
 9223SOL    HW239298   3.601   0.731  19.519
 9224SOL     OW39299   4.255   1.146  22.390
 9224SOL    HW139300   4.166   1.179  22.405
 9224SOL    HW239301   4.305   1.177  22.466
 9225SOL     OW39302   2.180   2.557   9.147
 9225SOL    HW139303   2.170   2.646   9.112
 9225SOL    HW239304   2.268   2.556   9.186
 9226SOL     OW39305   1.394   2.579   5.052
 9226SOL    HW139306   1.474   2.541   5.017
 9226SOL    HW239307   1.324   2.535   5.005
 9227SOL     OW39308   1.121   1.630   8.075
 9227SOL    HW139309   1.066   1.582   8.012
 9227SOL    HW239310   1.185   1.676   8.021
 9228SOL     OW39311   0.285   0.678   3.654
 9228SOL    HW139312   0.360   0.737   3.659
 9228SOL    HW239313   0.255   0.669   3.745
 9229SOL     OW39314   2.278   3.505  25.670
 9229SOL    HW139315   2.327   3.425  25.651
 9229SOL    HW239316   2.338   3.576  25.646
 9230SOL     OW39317   4.133   3.702   9.184
 9230SOL    HW139318   4.046   3.741   9.190
 9230SOL    HW239319   4.193   3.776   9.193
 9231SOL     OW39320   0.403   4.182   4.264
 9231SOL    HW139321   0.351   4.104   4.242
 9231SOL    HW239322   0.415   4.227   4.181
 9232SOL     OW39323   3.382   4.578  23.793
 9232SOL    HW139324   3.351   4.631  23.720
 9232SOL    HW239325   3.311   4.581  23.857
 9233SOL     OW39326   4.526   2.691  25.646
 9233SOL    HW139327   4.590   2.754  25.679
 9233SOL    HW239328   4.556   2.607  25.680
 9234SOL     OW39329   2.921   3.993   4.168
 9234SOL    HW139330   3.006   3.950   4.166
 9234SOL    HW239331   2.916   4.033   4.255
 9235SOL     OW39332   1.676   1.981   8.877
 9235SOL    HW139333   1.703   1.990   8.968
 9235SOL    HW239334   1.758   1.968   8.829
 9236SOL     OW39335   1.301   3.769   5.925
 9236SOL    HW139336   1.210   3.797   5.928
 9236SOL    HW239337   1.346   3.825   5.988
 9237SOL     OW39338   0.374   4.767   8.497
 9237SOL    HW139339   0.339   4.718   8.571
 9237SOL    HW239340   0.335   4.725   8.420
 9238SOL     OW39341   2.192   1.712   4.005
 9238SOL    HW139342   2.129   1.655   3.961
 9238SOL    HW239343   2.150   1.736   4.087
 9239SOL     OW39344   2.347   2.861   5.670
 9239SOL    HW139345   2.398   2.942   5.662
 9239SOL    HW239346   2.267   2.879   5.620
 9240SOL     OW39347   2.668   4.029   0.953
 9240SOL    HW139348   2.650   4.072   0.869
 9240SOL    HW239349   2.720   4.093   1.002
 9241SOL     OW39350   2.964   1.554   9.634
 9241SOL    HW139351   2.925   1.594   9.712
 9241SOL    HW239352   3.008   1.475   9.667
 9242SOL     OW39353   3.158   3.674  25.942
 9242SOL    HW139354   3.170   3.717  25.857
 9242SOL    HW239355   3.177   3.742  26.006
 9243SOL     OW39356   4.701   1.553   9.233
 9243SOL    HW139357   4.682   1.562   9.326
 9243SOL    HW239358   4.755   1.474   9.227
 9244SOL     OW39359   0.498   1.945  27.615
 9244SOL    HW139360   0.547   2.020  27.648
 9244SOL    HW239361   0.518   1.874  27.676
 9245SOL     OW39362   0.433   0.423  23.470
 9245SOL    HW139363   0.503   0.390  23.414
 9245SOL    HW239364   0.465   0.409  23.559
 9246SOL     OW39365   1.013   4.393   4.729
 9246SOL    HW139366   0.929   4.387   4.774
 9246SOL    HW239367   1.077   4.368   4.795
 9247SOL     OW39368   4.140   3.388  20.598
 9247SOL    HW139369   4.119   3.388  20.691
 9247SOL    HW239370   4.069   3.338  20.557
 9248SOL     OW39371   1.401   4.339   2.545
 9248SOL    HW139372   1.382   4.432   2.531
 9248SOL    HW239373   1.345   4.314   2.618
 9249SOL     OW39374   2.088   1.194   4.974
 9249SOL    HW139375   2.167   1.196   5.028
 9249SOL    HW239376   2.119   1.163   4.889
 9250SOL     OW39377   2.555   1.857   9.558
 9250SOL    HW139378   2.516   1.845   9.644
 9250SOL    HW239379   2.607   1.778   9.543
 9251SOL     OW39380   4.758   0.376   4.780
 9251SOL    HW139381   4.748   0.416   4.694
 9251SOL    HW239382   4.683   0.408   4.830
 9252SOL     OW39383   3.530   0.232  10.318
 9252SOL    HW139384   3.437   0.230  10.339
 9252SOL    HW239385   3.571   0.177  10.385
 9253SOL     OW39386   0.433   3.976  22.838
 9253SOL    HW139387   0.366   3.973  22.906
 9253SOL    HW239388   0.514   3.951  22.883
 9254SOL     OW39389   3.325   1.251  27.580
 9254SOL    HW139390   3.373   1.303  27.516
 9254SOL    HW239391   3.251   1.306  27.605
 9255SOL     OW39392   4.416   0.213   0.837
 9255SOL    HW139393   4.384   0.302   0.825
 9255SOL    HW239394   4.413   0.174   0.750
 9256SOL     OW39395   1.733   0.472  23.721
 9256SOL    HW139396   1.651   0.423  23.720
 9256SOL    HW239397   1.714   0.549  23.774
 9257SOL     OW39398   3.311   1.837   7.016
 9257SOL    HW139399   3.296   1.879   6.931
 9257SOL    HW239400   3.337   1.909   7.073
 9258SOL     OW39401   3.783   4.766   8.511
 9258SOL    HW139402   3.773   4.694   8.448
 9258SOL    HW239403   3.793   0.064   8.457
 9259SOL     OW39404   1.846   4.627  25.967
 9259SOL    HW139405   1.768   4.610  26.020
 9259SOL    HW239406   1.828   4.710  25.923
 9260SOL     OW39407   2.318   3.096   7.339
 9260SOL    HW139408   2.228   3.076   7.312
 9260SOL    HW239409   2.311   3.179   7.386
 9261SOL     OW39410   1.143   4.273  28.308
 9261SOL    HW139411   1.053   4.277  28.276
 9261SOL    HW239412   1.175   4.363  28.301
 9262SOL     OW39413   1.441   2.831   2.047
 9262SOL    HW139414   1.475   2.750   2.084
 9262SOL    HW239415   1.346   2.819   2.048
 9263SOL     OW39416   2.084   1.169  18.404
 9263SOL    HW139417   2.007   1.223  18.388
 9263SOL    HW239418   2.091   1.166  18.499
 9264SOL     OW39419   3.003   1.836  25.601
 9264SOL    HW139420   3.072   1.903  25.600
 9264SOL    HW239421   2.979   1.824  25.509
 9265SOL     OW39422   4.261   1.480   4.654
 9265SOL    HW139423   4.270   1.418   4.726
 9265SOL    HW239424   4.322   1.550   4.675
 9266SOL     OW39425   3.218   0.431   6.482
 9266SOL    HW139426   3.185   0.375   6.552
 9266SOL    HW239427   3.294   0.384   6.447
 9267SOL     OW39428   4.397   1.883  27.872
 9267SOL    HW139429   4.387   1.790  27.851
 9267SOL    HW239430   4.473   1.911  27.821
 9268SOL     OW39431   1.426   3.143  19.639
 9268SOL    HW139432   1.491   3.166  19.572
 9268SOL    HW239433   1.462   3.178  19.720
 9269SOL     OW39434   0.468   0.796   6.514
 9269SOL    HW139435   0.444   0.887   6.497
 9269SOL    HW239436   0.526   0.800   6.590
 9270SOL     OW39437   4.175   4.166   0.324
 9270SOL    HW139438   4.264   4.153   0.357
 9270SOL    HW239439   4.136   4.078   0.325
 9271SOL     OW39440   4.740   3.338   5.369
 9271SOL    HW139441   4.711   3.276   5.436
 9271SOL    HW239442   4.748   3.286   5.289
 9272SOL     OW39443   4.020   2.495   5.146
 9272SOL    HW139444   4.027   2.484   5.051
 9272SOL    HW239445   4.059   2.581   5.163
 9273SOL     OW39446   2.782   0.221  17.936
 9273SOL    HW139447   2.871   0.194  17.958
 9273SOL    HW239448   2.754   0.276  18.010
 9274SOL     OW39449   1.667   1.793  21.264
 9274SOL    HW139450   1.722   1.784  21.186
 9274SOL    HW239451   1.686   1.881  21.296
 9275SOL     OW39452   2.725   1.297   5.730
 9275SOL    HW139453   2.634   1.270   5.742
 9275SOL    HW239454   2.727   1.389   5.756
 9276SOL     OW39455   2.574   4.224   5.586
 9276SOL    HW139456   2.515   4.170   5.533
 9276SOL    HW239457   2.608   4.164   5.653
 9277SOL     OW39458   0.947   0.753  26.556
 9277SOL    HW139459   0.940   0.835  26.604
 9277SOL    HW239460   0.865   0.707  26.575
 9278SOL     OW39461   1.931   4.341  21.848
 9278SOL    HW139462   1.974   4.287  21.914
 9278SOL    HW239463   2.003   4.381  21.799
 9279SOL     OW39464   0.615   3.764   1.056
 9279SOL    HW139465   0.586   3.729   1.140
 9279SOL    HW239466   0.613   3.859   1.068
 9280SOL     OW39467   3.574   2.547  19.708
 9280SOL    HW139468   3.635   2.476  19.690
 9280SOL    HW239469   3.630   2.624  19.721
 9281SOL     OW39470   2.337   3.564  26.419
 9281SOL    HW139471   2.319   3.474  26.391
 9281SOL    HW239472   2.341   3.559  26.515
 9282SOL     OW39473   2.566   3.023   8.088
 9282SOL    HW139474   2.513   3.098   8.061
 9282SOL    HW239475   2.656   3.055   8.082
 9283SOL     OW39476   3.741   1.651   0.287
 9283SOL    HW139477   3.806   1.682   0.224
 9283SOL    HW239478   3.773   1.682   0.372
 9284SOL     OW39479   2.339   4.020   9.550
 9284SOL    HW139480   2.288   4.101   9.557
 9284SOL    HW239481   2.333   3.980   9.637
 9285SOL     OW39482   3.839   0.924  21.507
 9285SOL    HW139483   3.875   0.836  21.493
 9285SOL    HW239484   3.908   0.971  21.553
 9286SOL     OW39485   4.641   4.351   8.169
 9286SOL    HW139486   4.693   4.426   8.141
 9286SOL    HW239487   4.688   4.275   8.134
 9287SOL     OW39488   1.990   0.176  17.466
 9287SOL    HW139489   1.956   0.225  17.391
 9287SOL    HW239490   2.009   0.089  17.431
 9288SOL     OW39491   2.128   4.569  22.194
 9288SOL    HW139492   2.055   4.612  22.238
 9288SOL    HW239493   2.150   4.494  22.250
 9289SOL     OW39494   0.797   4.672   3.968
 9289SOL    HW139495   0.860   4.604   3.945
 9289SOL    HW239496   0.748   4.636   4.042
 9290SOL     OW39497   4.556   1.713  17.815
 9290SOL    HW139498   4.511   1.641  17.771
 9290SOL    HW239499   4.529   1.791  17.767
 9291SOL     OW39500   4.339   2.598   6.442
 9291SOL    HW139501   4.253   2.557   6.452
 9291SOL    HW239502   4.374   2.561   6.361
 9292SOL     OW39503   2.261   3.487  23.228
 9292SOL    HW139504   2.333   3.436  23.264
 9292SOL    HW239505   2.295   3.521  23.145
 9293SOL     OW39506   2.914   1.205  25.264
 9293SOL    HW139507   2.928   1.135  25.200
 9293SOL    HW239508   2.872   1.275  25.214
 9294SOL     OW39509   3.667   3.112  20.559
 9294SOL    HW139510   3.683   3.018  20.565
 9294SOL    HW239511   3.654   3.128  20.465
 9295SOL     OW39512   2.272   1.375   9.668
 9295SOL    HW139513   2.317   1.377   9.752
 9295SOL    HW239514   2.185   1.341   9.688
 9296SOL     OW39515   0.437   4.106  25.773
 9296SOL    HW139516   0.369   4.072  25.832
 9296SOL    HW239517   0.420   4.200  25.770
 9297SOL     OW39518   0.220   3.825  11.823
 9297SOL    HW139519   0.187   3.864  11.904
 9297SOL    HW239520   0.146   3.775  11.789
 9298SOL     OW39521   0.687   0.575   4.603
 9298SOL    HW139522   0.672   0.628   4.524
 9298SOL    HW239523   0.600   0.542   4.626
 9299SOL     OW39524   4.533   0.940   3.844
 9299SOL    HW139525   4.509   0.880   3.914
 9299SOL    HW239526   4.512   1.027   3.879
 9300SOL     OW39527   2.910   2.456  25.548
 9300SOL    HW139528   2.826   2.415  25.570
 9300SOL    HW239529   2.964   2.383  25.517
 9301SOL     OW39530   2.651   0.664  26.739
 9301SOL    HW139531   2.726   0.668  26.798
 9301SOL    HW239532   2.674   0.595  26.676
 9302SOL     OW39533   4.622   2.978  26.866
 9302SOL    HW139534   4.697   2.965  26.807
 9302SOL    HW239535   4.644   2.927  26.944
 9303SOL     OW39536   4.478   2.852  23.979
 9303SOL    HW139537   4.541   2.801  23.928
 9303SOL    HW239538   4.421   2.892  23.914
 9304SOL     OW39539   3.459   1.870   0.469
 9304SOL    HW139540   3.493   1.845   0.383
 9304SOL    HW239541   3.524   1.930   0.504
 9305SOL     OW39542   3.067   2.213  18.579
 9305SOL    HW139543   3.134   2.269  18.540
 9305SOL    HW239544   3.045   2.150  18.510
 9306SOL     OW39545   2.493   0.541   5.390
 9306SOL    HW139546   2.501   0.587   5.473
 9306SOL    HW239547   2.578   0.554   5.347
 9307SOL     OW39548   2.212   1.983  25.345
 9307SOL    HW139549   2.258   2.056  25.386
 9307SOL    HW239550   2.276   1.912  25.342
 9308SOL     OW39551   1.566   4.380  26.685
 9308SOL    HW139552   1.516   4.390  26.604
 9308SOL    HW239553   1.531   4.300  26.725
 9309SOL     OW39554   4.428   1.229  21.701
 9309SOL    HW139555   4.491   1.157  21.694
 9309SOL    HW239556   4.352   1.200  21.650
 9310SOL     OW39557   0.373   4.232   6.104
 9310SOL    HW139558   0.316   4.308   6.116
 9310SOL    HW239559   0.438   4.261   6.040
 9311SOL     OW39560   2.294   0.662   0.885
 9311SOL    HW139561   2.351   0.660   0.808
 9311SOL    HW239562   2.346   0.620   0.954
 9312SOL     OW39563   2.223   1.418   5.883
 9312SOL    HW139564   2.262   1.470   5.954
 9312SOL    HW239565   2.230   1.474   5.806
 9313SOL     OW39566   4.722   0.453   4.233
 9313SOL    HW139567   0.014   0.421   4.180
 9313SOL    HW239568   4.667   0.376   4.247
 9314SOL     OW39569   3.883   1.202  25.076
 9314SOL    HW139570   3.802   1.182  25.028
 9314SOL    HW239571   3.897   1.296  25.063
 9315SOL     OW39572   0.528   0.348  20.355
 9315SOL    HW139573   0.513   0.441  20.339
 9315SOL    HW239574   0.448   0.305  20.324
 9316SOL     OW39575   0.806   2.650   6.473
 9316SOL    HW139576   0.863   2.577   6.496
 9316SOL    HW239577   0.731   2.642   6.532
 9317SOL     OW39578   0.205   0.020  25.858
 9317SOL    HW139579   0.223   0.065  25.941
 9317SOL    HW239580   0.118   0.051  25.832
 9318SOL     OW39581   1.824   0.538  11.375
 9318SOL    HW139582   1.826   0.631  11.353
 9318SOL    HW239583   1.880   0.530  11.453
 9319SOL     OW39584   2.466   3.437   6.997
 9319SOL    HW139585   2.449   3.493   7.073
 9319SOL    HW239586   2.451   3.348   7.029
 9320SOL     OW39587   4.618   1.517   8.710
 9320SOL    HW139588   4.582   1.556   8.630
 9320SOL    HW239589   4.572   1.562   8.781
 9321SOL     OW39590   3.246   1.566   6.460
 9321SOL    HW139591   3.255   1.472   6.477
 9321SOL    HW239592   3.231   1.605   6.546
 9322SOL     OW39593   3.006   3.221  21.315
 9322SOL    HW139594   2.966   3.165  21.249
 9322SOL    HW239595   3.100   3.203  21.309
 9323SOL     OW39596   0.619   4.430  22.668
 9323SOL    HW139597   0.662   4.465  22.746
 9323SOL    HW239598   0.682   4.445  22.598
 9324SOL     OW39599   4.620   1.972   1.644
 9324SOL    HW139600   4.529   1.942   1.651
 9324SOL    HW239601   4.648   1.985   1.735
 9325SOL     OW39602   3.540   3.783  23.190
 9325SOL    HW139603   3.610   3.791  23.254
 9325SOL    HW239604   3.548   3.861  23.135
 9326SOL     OW39605   3.228   2.240  21.901
 9326SOL    HW139606   3.194   2.305  21.839
 9326SOL    HW239607   3.153   2.217  21.955
 9327SOL     OW39608   2.798   3.805   8.675
 9327SOL    HW139609   2.861   3.877   8.672
 9327SOL    HW239610   2.789   3.786   8.768
 9328SOL     OW39611   2.365   4.498   9.497
 9328SOL    HW139612   2.321   4.420   9.531
 9328SOL    HW239613   2.314   4.571   9.531
 9329SOL     OW39614   3.597   3.541  19.399
 9329SOL    HW139615   3.555   3.554  19.314
 9329SOL    HW239616   3.544   3.474  19.442
 9330SOL     OW39617   3.286   1.761  20.476
 9330SOL    HW139618   3.303   1.687  20.417
 9330SOL    HW239619   3.372   1.801  20.491
 9331SOL     OW39620   1.369   3.234   0.142
 9331SOL    HW139621   1.446   3.290   0.132
 9331SOL    HW239622   1.350   3.203   0.053
 9332SOL     OW39623   2.199   0.665  26.747
 9332SOL    HW139624   2.191   0.579  26.706
 9332SOL    HW239625   2.271   0.655  26.810
 9333SOL     OW39626   1.567   2.809   4.599
 9333SOL    HW139627   1.624   2.883   4.579
 9333SOL    HW239628   1.627   2.738   4.623
 9334SOL     OW39629   0.398   1.305   7.326
 9334SOL    HW139630   0.423   1.390   7.362
 9334SOL    HW239631   0.335   1.270   7.389
 9335SOL     OW39632   2.706   3.222  10.060
 9335SOL    HW139633   2.717   3.129  10.082
 9335SOL    HW239634   2.647   3.222   9.985
 9336SOL     OW39635   0.507   4.567  23.576
 9336SOL    HW139636   0.539   4.637  23.633
 9336SOL    HW239637   0.580   4.548  23.517
 9337SOL     OW39638   0.289   0.625  20.175
 9337SOL    HW139639   0.220   0.684  20.145
 9337SOL    HW239640   0.249   0.576  20.247
 9338SOL     OW39641   2.019   0.294  20.344
 9338SOL    HW139642   2.097   0.349  20.344
 9338SOL    HW239643   2.018   0.253  20.257
 9339SOL     OW39644   0.941   4.254  24.803
 9339SOL    HW139645   0.899   4.327  24.758
 9339SOL    HW239646   0.903   4.256  24.891
 9340SOL     OW39647   3.884   4.546   2.569
 9340SOL    HW139648   3.915   4.468   2.615
 9340SOL    HW239649   3.847   4.513   2.487
 9341SOL     OW39650   1.766   3.584   3.210
 9341SOL    HW139651   1.743   3.674   3.188
 9341SOL    HW239652   1.785   3.587   3.304
 9342SOL     OW39653   2.089   2.465   1.623
 9342SOL    HW139654   2.001   2.494   1.598
 9342SOL    HW239655   2.083   2.369   1.625
 9343SOL     OW39656   0.208   0.241  21.206
 9343SOL    HW139657   0.157   0.306  21.255
 9343SOL    HW239658   0.155   0.224  21.128
 9344SOL     OW39659   1.229   2.968   1.390
 9344SOL    HW139660   1.268   3.051   1.361
 9344SOL    HW239661   1.304   2.913   1.411
 9345SOL     OW39662   0.926   3.291   0.453
 9345SOL    HW139663   0.998   3.344   0.487
 9345SOL    HW239664   0.953   3.200   0.468
 9346SOL     OW39665   4.228   4.504  19.010
 9346SOL    HW139666   4.231   4.478  19.102
 9346SOL    HW239667   4.202   4.425  18.963
 9347SOL     OW39668   0.845   0.631  20.367
 9347SOL    HW139669   0.875   0.627  20.458
 9347SOL    HW239670   0.861   0.721  20.340
 9348SOL     OW39671   4.408   2.923   5.007
 9348SOL    HW139672   4.380   3.015   5.008
 9348SOL    HW239673   4.382   2.889   5.092
 9349SOL     OW39674   0.666   4.480  23.329
 9349SOL    HW139675   0.625   4.549  23.277
 9349SOL    HW239676   0.742   4.453  23.278
 9350SOL     OW39677   1.420   3.562  24.068
 9350SOL    HW139678   1.390   3.652  24.081
 9350SOL    HW239679   1.512   3.570  24.044
 9351SOL     OW39680   0.405   2.453  27.923
 9351SOL    HW139681   0.360   2.447  28.007
 9351SOL    HW239682   0.396   2.366  27.884
 9352SOL     OW39683   1.747   3.348  26.954
 9352SOL    HW139684   1.682   3.412  26.925
 9352SOL    HW239685   1.702   3.296  27.020
 9353SOL     OW39686   4.768   3.620  21.057
 9353SOL    HW139687   4.770   3.556  21.128
 9353SOL    HW239688   0.075   3.616  21.019
 9354SOL     OW39689   3.970   3.798   4.123
 9354SOL    HW139690   3.912   3.837   4.057
 9354SOL    HW239691   3.954   3.850   4.202
 9355SOL     OW39692   2.121   3.111  23.722
 9355SOL    HW139693   2.108   3.017  23.737
 9355SOL    HW239694   2.101   3.124  23.629
 9356SOL     OW39695   1.360   0.286   9.137
 9356SOL    HW139696   1.432   0.237   9.176
 9356SOL    HW239697   1.291   0.283   9.203
 9357SOL     OW39698   3.783   3.956   5.201
 9357SOL    HW139699   3.714   4.019   5.181
 9357SOL    HW239700   3.782   3.895   5.128
 9358SOL     OW39701   2.363   0.599   8.286
 9358SOL    HW139702   2.364   0.655   8.209
 9358SOL    HW239703   2.454   0.595   8.315
 9359SOL     OW39704   1.819   3.300  20.799
 9359SOL    HW139705   1.861   3.252  20.870
 9359SOL    HW239706   1.747   3.348  20.841
 9360SOL     OW39707   1.941   3.963  23.969
 9360SOL    HW139708   1.887   3.907  24.024
 9360SOL    HW239709   1.976   3.905  23.902
 9361SOL     OW39710   2.200   1.271  27.332
 9361SOL    HW139711   2.250   1.218  27.395
 9361SOL    HW239712   2.219   1.361  27.357
 9362SOL     OW39713   0.471   3.690   1.285
 9362SOL    HW139714   0.458   3.596   1.271
 9362SOL    HW239715   0.390   3.730   1.253
 9363SOL     OW39716   0.625   2.385   1.329
 9363SOL    HW139717   0.585   2.466   1.361
 9363SOL    HW239718   0.561   2.349   1.267
 9364SOL     OW39719   2.673   3.194   7.064
 9364SOL    HW139720   2.656   3.209   6.971
 9364SOL    HW239721   2.588   3.171   7.101
 9365SOL     OW39722   0.325   1.649   2.466
 9365SOL    HW139723   0.368   1.702   2.399
 9365SOL    HW239724   0.339   1.559   2.437
 9366SOL     OW39725   2.739   1.985   4.048
 9366SOL    HW139726   2.809   1.933   4.086
 9366SOL    HW239727   2.764   1.996   3.956
 9367SOL     OW39728   2.866   0.931  27.145
 9367SOL    HW139729   2.956   0.898  27.141
 9367SOL    HW239730   2.865   1.004  27.084
 9368SOL     OW39731   3.970   4.705  23.495
 9368SOL    HW139732   4.038   4.638  23.502
 9368SOL    HW239733   3.966   4.726  23.402
 9369SOL     OW39734   2.875   4.576  24.513
 9369SOL    HW139735   2.920   4.617  24.439
 9369SOL    HW239736   2.941   4.519  24.553
 9370SOL     OW39737   3.232   3.460  24.951
 9370SOL    HW139738   3.287   3.525  24.907
 9370SOL    HW239739   3.238   3.483  25.044
 9371SOL     OW39740   3.720   1.497   0.032
 9371SOL    HW139741   3.692   1.571  28.498
 9371SOL    HW239742   3.713   1.528   0.122
 9372SOL     OW39743   1.270   0.095   2.526
 9372SOL    HW139744   1.347   0.058   2.569
 9372SOL    HW239745   1.271   0.187   2.551
 9373SOL     OW39746   0.708   2.106   2.245
 9373SOL    HW139747   0.648   2.120   2.318
 9373SOL    HW239748   0.788   2.153   2.271
 9374SOL     OW39749   2.080   4.397  25.588
 9374SOL    HW139750   2.074   4.486  25.623
 9374SOL    HW239751   2.172   4.386  25.566
 9375SOL     OW39752   1.206   1.240   7.919
 9375SOL    HW139753   1.274   1.174   7.932
 9375SOL    HW239754   1.254   1.320   7.899
 9376SOL     OW39755   0.073   3.574  23.283
 9376SOL    HW139756   0.025   3.495  23.307
 9376SOL    HW239757   0.158   3.543  23.251
 9377SOL     OW39758   0.737   3.662   4.777
 9377SOL    HW139759   0.755   3.641   4.869
 9377SOL    HW239760   0.642   3.670   4.772
 9378SOL     OW39761   2.134   4.174   2.100
 9378SOL    HW139762   2.166   4.199   2.187
 9378SOL    HW239763   2.214   4.159   2.049
 9379SOL     OW39764   2.269   0.986  22.596
 9379SOL    HW139765   2.338   1.050  22.583
 9379SOL    HW239766   2.252   0.950  22.509
 9380SOL     OW39767   1.516   2.668   6.561
 9380SOL    HW139768   1.542   2.603   6.626
 9380SOL    HW239769   1.598   2.706   6.530
 9381SOL     OW39770   4.454   2.890  17.249
 9381SOL    HW139771   4.423   2.809  17.289
 9381SOL    HW239772   4.525   2.862  17.191
 9382SOL     OW39773   3.301   0.453   1.968
 9382SOL    HW139774   3.309   0.398   2.046
 9382SOL    HW239775   3.242   0.404   1.910
 9383SOL     OW39776   0.239   2.700  18.439
 9383SOL    HW139777   0.324   2.682  18.399
 9383SOL    HW239778   0.240   2.650  18.521
 9384SOL     OW39779   0.072   1.641  27.286
 9384SOL    HW139780   0.076   1.622  27.380
 9384SOL    HW239781   4.773   1.694  27.275
 9385SOL     OW39782   0.790   0.580   4.117
 9385SOL    HW139783   0.738   0.659   4.107
 9385SOL    HW239784   0.857   0.586   4.048
 9386SOL     OW39785   3.273   0.967  25.920
 9386SOL    HW139786   3.280   0.876  25.891
 9386SOL    HW239787   3.284   1.019  25.840
 9387SOL     OW39788   0.370   4.182   4.530
 9387SOL    HW139789   0.340   4.095   4.558
 9387SOL    HW239790   0.413   4.166   4.446
 9388SOL     OW39791   2.138   1.187  21.759
 9388SOL    HW139792   2.196   1.263  21.762
 9388SOL    HW239793   2.051   1.224  21.741
 9389SOL     OW39794   4.548   0.690  19.006
 9389SOL    HW139795   4.488   0.679  19.080
 9389SOL    HW239796   4.504   0.646  18.933
 9390SOL     OW39797   2.065   0.198  27.921
 9390SOL    HW139798   2.095   0.163  27.837
 9390SOL    HW239799   1.996   0.260  27.898
 9391SOL     OW39800   0.836   3.586   5.030
 9391SOL    HW139801   0.916   3.637   5.042
 9391SOL    HW239802   0.803   3.572   5.119
 9392SOL     OW39803   4.454   4.524   5.986
 9392SOL    HW139804   4.368   4.482   5.978
 9392SOL    HW239805   4.480   4.543   5.896
 9393SOL     OW39806   2.537   4.372   2.113
 9393SOL    HW139807   2.496   4.410   2.190
 9393SOL    HW239808   2.488   4.409   2.039
 9394SOL     OW39809   0.847   4.502  19.874
 9394SOL    HW139810   0.843   4.458  19.959
 9394SOL    HW239811   0.871   4.592  19.894
 9395SOL     OW39812   1.483   2.522   4.186
 9395SOL    HW139813   1.495   2.431   4.158
 9395SOL    HW239814   1.572   2.557   4.190
 9396SOL     OW39815   0.863   4.464  24.207
 9396SOL    HW139816   0.784   4.412  24.190
 9396SOL    HW239817   0.896   4.486  24.120
 9397SOL     OW39818   3.017   2.903   6.481
 9397SOL    HW139819   2.953   2.953   6.431
 9397SOL    HW239820   3.102   2.934   6.451
 9398SOL     OW39821   3.513   2.138   5.106
 9398SOL    HW139822   3.560   2.057   5.088
 9398SOL    HW239823   3.579   2.207   5.097
 9399SOL     OW39824   3.130   0.295   4.259
 9399SOL    HW139825   3.101   0.239   4.187
 9399SOL    HW239826   3.160   0.375   4.216
 9400SOL     OW39827   1.270   1.084  25.719
 9400SOL    HW139828   1.197   1.128  25.676
 9400SOL    HW239829   1.303   1.023  25.654
 9401SOL     OW39830   1.316   0.922   6.753
 9401SOL    HW139831   1.248   0.990   6.754
 9401SOL    HW239832   1.277   0.850   6.704
 9402SOL     OW39833   3.315   0.648  23.410
 9402SOL    HW139834   3.244   0.602  23.365
 9402SOL    HW239835   3.309   0.738  23.379
 9403SOL     OW39836   4.301   0.016   6.757
 9403SOL    HW139837   4.215   0.054   6.777
 9403SOL    HW239838   4.303   4.715   6.807
 9404SOL     OW39839   0.534   2.187  24.205
 9404SOL    HW139840   0.614   2.158  24.248
 9404SOL    HW239841   0.518   2.274  24.240
 9405SOL     OW39842   0.091   1.759   1.221
 9405SOL    HW139843   0.038   1.809   1.283
 9405SOL    HW239844   0.032   1.742   1.148
 9406SOL     OW39845   1.665   0.498   9.754
 9406SOL    HW139846   1.575   0.465   9.752
 9406SOL    HW239847   1.656   0.593   9.749
 9407SOL     OW39848   3.955   0.889  23.430
 9407SOL    HW139849   3.950   0.962  23.369
 9407SOL    HW239850   4.041   0.898  23.471
 9408SOL     OW39851   4.738   2.273  25.862
 9408SOL    HW139852   0.017   2.294  25.790
 9408SOL    HW239853   4.674   2.213  25.824
 9409SOL     OW39854   2.624   3.124   8.665
 9409SOL    HW139855   2.589   3.067   8.597
 9409SOL    HW239856   2.708   3.084   8.689
 9410SOL     OW39857   1.403   4.490   1.961
 9410SOL    HW139858   1.321   4.464   1.919
 9410SOL    HW239859   1.377   4.523   2.047
 9411SOL     OW39860   3.667   3.140  26.783
 9411SOL    HW139861   3.643   3.048  26.773
 9411SOL    HW239862   3.583   3.185  26.794
 9412SOL     OW39863   3.915   4.557   1.085
 9412SOL    HW139864   3.837   4.502   1.077
 9412SOL    HW239865   3.924   4.599   0.999
 9413SOL     OW39866   0.823   3.830  17.119
 9413SOL    HW139867   0.791   3.832  17.209
 9413SOL    HW239868   0.851   3.920  17.101
 9414SOL     OW39869   2.633   1.962   0.263
 9414SOL    HW139870   2.547   1.992   0.235
 9414SOL    HW239871   2.615   1.905   0.338
 9415SOL     OW39872   3.543   1.441  11.505
 9415SOL    HW139873   3.463   1.399  11.538
 9415SOL    HW239874   3.561   1.395  11.423
 9416SOL     OW39875   1.591   2.792  22.675
 9416SOL    HW139876   1.595   2.754  22.763
 9416SOL    HW239877   1.664   2.753  22.628
 9417SOL     OW39878   4.328   4.639  26.662
 9417SOL    HW139879   4.283   4.557  26.643
 9417SOL    HW239880   4.270   4.685  26.722
 9418SOL     OW39881   0.866   2.174  28.166
 9418SOL    HW139882   0.802   2.226  28.117
 9418SOL    HW239883   0.936   2.156  28.103
 9419SOL     OW39884   2.888   2.569   7.827
 9419SOL    HW139885   2.945   2.643   7.848
 9419SOL    HW239886   2.800   2.606   7.830
 9420SOL     OW39887   1.703   4.321  27.416
 9420SOL    HW139888   1.750   4.389  27.368
 9420SOL    HW239889   1.616   4.358  27.431
 9421SOL     OW39890   3.926   4.190  23.968
 9421SOL    HW139891   3.872   4.135  24.024
 9421SOL    HW239892   3.946   4.135  23.892
 9422SOL     OW39893   1.271   3.323  23.464
 9422SOL    HW139894   1.344   3.283  23.511
 9422SOL    HW239895   1.199   3.261  23.475
 9423SOL     OW39896   2.070   3.969  27.641
 9423SOL    HW139897   2.059   3.874  27.647
 9423SOL    HW239898   2.027   4.004  27.719
 9424SOL     OW39899   4.257   0.845   3.268
 9424SOL    HW139900   4.299   0.895   3.338
 9424SOL    HW239901   4.312   0.767   3.258
 9425SOL     OW39902   4.329   2.468  17.536
 9425SOL    HW139903   4.262   2.466  17.604
 9425SOL    HW239904   4.357   2.377  17.527
 9426SOL     OW39905   3.750   0.056  27.650
 9426SOL    HW139906   3.737   0.114  27.725
 9426SOL    HW239907   3.662   0.024  27.630
 9427SOL     OW39908   2.186   4.487  25.270
 9427SOL    HW139909   2.127   4.442  25.210
 9427SOL    HW239910   2.133   4.559  25.306
 9428SOL     OW39911   2.825   4.223  21.466
 9428SOL    HW139912   2.776   4.169  21.528
 9428SOL    HW239913   2.803   4.313  21.491
 9429SOL     OW39914   1.624   2.598  23.551
 9429SOL    HW139915   1.528   2.593  23.555
 9429SOL    HW239916   1.647   2.659  23.621
 9430SOL     OW39917   4.689   0.276  24.328
 9430SOL    HW139918   4.765   0.313  24.283
 9430SOL    HW239919   4.707   0.182  24.330
 9431SOL     OW39920   1.531   1.843   1.073
 9431SOL    HW139921   1.596   1.890   1.021
 9431SOL    HW239922   1.447   1.877   1.043
 9432SOL     OW39923   1.800   3.404  18.980
 9432SOL    HW139924   1.752   3.324  18.961
 9432SOL    HW239925   1.889   3.375  18.999
 9433SOL     OW39926   2.508   0.733   2.862
 9433SOL    HW139927   2.441   0.683   2.816
 9433SOL    HW239928   2.460   0.780   2.930
 9434SOL     OW39929   3.029   4.742   8.178
 9434SOL    HW139930   2.980   0.005   8.108
 9434SOL    HW239931   3.027   0.024   8.250
 9435SOL     OW39932   0.505   4.645   4.856
 9435SOL    HW139933   0.500   4.692   4.939
 9435SOL    HW239934   0.460   4.562   4.872
 9436SOL     OW39935   1.821   3.497   9.714
 9436SOL    HW139936   1.748   3.531   9.662
 9436SOL    HW239937   1.856   3.425   9.661
 9437SOL     OW39938   3.441   3.309  27.959
 9437SOL    HW139939   3.517   3.359  27.989
 9437SOL    HW239940   3.374   3.375  27.941
 9438SOL     OW39941   1.455   1.579  10.461
 9438SOL    HW139942   1.438   1.656  10.515
 9438SOL    HW239943   1.549   1.565  10.468
 9439SOL     OW39944   2.530   3.608  20.909
 9439SOL    HW139945   2.513   3.694  20.870
 9439SOL    HW239946   2.468   3.602  20.981
 9440SOL     OW39947   0.621   2.425  20.835
 9440SOL    HW139948   0.613   2.439  20.929
 9440SOL    HW239949   0.699   2.474  20.809
 9441SOL     OW39950   1.015   0.545   1.164
 9441SOL    HW139951   0.946   0.528   1.100
 9441SOL    HW239952   1.083   0.481   1.143
 9442SOL     OW39953   0.920   4.685  23.021
 9442SOL    HW139954   0.945   4.772  23.053
 9442SOL    HW239955   0.937   4.627  23.095
 9443SOL     OW39956   3.510   0.447  26.922
 9443SOL    HW139957   3.435   0.391  26.944
 9443SOL    HW239958   3.518   0.507  26.996
 9444SOL     OW39959   2.737   3.902  24.946
 9444SOL    HW139960   2.809   3.962  24.965
 9444SOL    HW239961   2.719   3.916  24.853
 9445SOL     OW39962   0.527   3.867  20.107
 9445SOL    HW139963   0.513   3.780  20.145
 9445SOL    HW239964   0.463   3.923  20.151
 9446SOL     OW39965   3.290   1.212  17.260
 9446SOL    HW139966   3.302   1.122  17.290
 9446SOL    HW239967   3.291   1.205  17.165
 9447SOL     OW39968   1.439   3.999   4.216
 9447SOL    HW139969   1.515   4.003   4.274
 9447SOL    HW239970   1.433   3.907   4.192
 9448SOL     OW39971   0.568   2.161   6.502
 9448SOL    HW139972   0.577   2.226   6.572
 9448SOL    HW239973   0.557   2.213   6.422
 9449SOL     OW39974   0.836   3.921  20.912
 9449SOL    HW139975   0.839   3.889  21.002
 9449SOL    HW239976   0.857   3.845  20.858
 9450SOL     OW39977   0.098   4.120   5.239
 9450SOL    HW139978   0.073   4.107   5.330
 9450SOL    HW239979   0.168   4.186   5.243
 9451SOL     OW39980   2.678   1.020  20.640
 9451SOL    HW139981   2.606   1.019  20.576
 9451SOL    HW239982   2.708   0.929  20.643
 9452SOL     OW39983   3.789   3.910  26.560
 9452SOL    HW139984   3.859   3.946  26.505
 9452SOL    HW239985   3.812   3.817  26.569
 9453SOL     OW39986   4.336   3.379  28.236
 9453SOL    HW139987   4.285   3.336  28.168
 9453SOL    HW239988   4.297   3.466  28.244
 9454SOL     OW39989   0.664   1.817  18.419
 9454SOL    HW139990   0.675   1.909  18.395
 9454SOL    HW239991   0.655   1.817  18.514
 9455SOL     OW39992   0.736   3.060  23.221
 9455SOL    HW139993   0.716   3.007  23.298
 9455SOL    HW239994   0.754   2.996  23.152
 9456SOL     OW39995   3.572   4.270  18.483
 9456SOL    HW139996   3.658   4.240  18.513
 9456SOL    HW239997   3.590   4.321  18.404
 9457SOL     OW39998   1.782   2.344  27.171
 9457SOL    HW139999   1.741   2.394  27.101
 9457SOL    HW240000   1.740   2.376  27.251
 9458SOL     OW40001   0.058   1.912   9.382
 9458SOL    HW140002   0.105   1.835   9.350
 9458SOL    HW240003   0.084   1.920   9.474
 9459SOL     OW40004   3.748   0.380   7.394
 9459SOL    HW140005   3.732   0.294   7.432
 9459SOL    HW240006   3.824   0.368   7.337
 9460SOL     OW40007   4.358   0.951   2.347
 9460SOL    HW140008   4.343   0.939   2.441
 9460SOL    HW240009   4.391   1.041   2.340
 9461SOL     OW40010   0.161   4.745   1.872
 9461SOL    HW140011   0.218   4.673   1.898
 9461SOL    HW240012   0.125   4.778   1.954
 9462SOL     OW40013   1.384   2.071   6.264
 9462SOL    HW140014   1.412   1.999   6.208
 9462SOL    HW240015   1.430   2.147   6.229
 9463SOL     OW40016   4.335   2.661  17.356
 9463SOL    HW140017   4.323   2.606  17.433
 9463SOL    HW240018   4.403   2.616  17.306
 9464SOL     OW40019   0.377   1.159  24.261
 9464SOL    HW140020   0.296   1.186  24.218
 9464SOL    HW240021   0.348   1.108  24.337
 9465SOL     OW40022   4.276   0.384   7.540
 9465SOL    HW140023   4.261   0.406   7.632
 9465SOL    HW240024   4.276   0.288   7.538
 9466SOL     OW40025   2.570   0.986  21.889
 9466SOL    HW140026   2.665   0.996  21.880
 9466SOL    HW240027   2.547   1.041  21.964
 9467SOL     OW40028   2.329   1.311   3.251
 9467SOL    HW140029   2.302   1.222   3.273
 9467SOL    HW240030   2.273   1.367   3.305
 9468SOL     OW40031   0.460   1.839  20.325
 9468SOL    HW140032   0.401   1.849  20.250
 9468SOL    HW240033   0.486   1.928  20.347
 9469SOL     OW40034   0.270   4.409  23.527
 9469SOL    HW140035   0.354   4.453  23.537
 9469SOL    HW240036   0.218   4.468  23.473
 9470SOL     OW40037   0.877   0.581   1.867
 9470SOL    HW140038   0.931   0.658   1.885
 9470SOL    HW240039   0.929   0.530   1.805
 9471SOL     OW40040   3.872   2.732   5.895
 9471SOL    HW140041   3.959   2.767   5.913
 9471SOL    HW240042   3.812   2.795   5.935
 9472SOL     OW40043   0.186   4.353  23.246
 9472SOL    HW140044   0.189   4.431  23.190
 9472SOL    HW240045   0.277   4.337  23.270
 9473SOL     OW40046   2.076   2.488  18.013
 9473SOL    HW140047   2.110   2.578  18.018
 9473SOL    HW240048   2.140   2.435  18.060
 9474SOL     OW40049   0.706   4.055   6.218
 9474SOL    HW140050   0.674   4.102   6.141
 9474SOL    HW240051   0.801   4.061   6.211
 9475SOL     OW40052   2.826   1.699   3.402
 9475SOL    HW140053   2.781   1.622   3.367
 9475SOL    HW240054   2.843   1.678   3.494
 9476SOL     OW40055   3.255   3.980   1.961
 9476SOL    HW140056   3.322   4.048   1.957
 9476SOL    HW240057   3.257   3.950   2.052
 9477SOL     OW40058   0.010   2.313   6.528
 9477SOL    HW140059   0.011   2.370   6.605
 9477SOL    HW240060   4.728   2.354   6.468
 9478SOL     OW40061   0.426   0.836   5.567
 9478SOL    HW140062   0.376   0.755   5.579
 9478SOL    HW240063   0.474   0.847   5.649
 9479SOL     OW40064   3.958   2.773   3.401
 9479SOL    HW140065   3.983   2.686   3.369
 9479SOL    HW240066   4.024   2.832   3.365
 9480SOL     OW40067   2.756   1.328  20.459
 9480SOL    HW140068   2.814   1.348  20.532
 9480SOL    HW240069   2.814   1.323  20.383
 9481SOL     OW40070   1.521   0.916   3.499
 9481SOL    HW140071   1.474   0.916   3.416
 9481SOL    HW240072   1.532   0.823   3.521
 9482SOL     OW40073   0.312   4.589   3.958
 9482SOL    HW140074   0.358   4.661   3.914
 9482SOL    HW240075   0.231   4.579   3.909
 9483SOL     OW40076   2.104   0.108   7.870
 9483SOL    HW140077   2.101   0.063   7.785
 9483SOL    HW240078   2.151   0.048   7.928
 9484SOL     OW40079   1.339   2.982   9.548
 9484SOL    HW140080   1.297   2.922   9.487
 9484SOL    HW240081   1.322   3.069   9.512
 9485SOL     OW40082   2.232   4.477   1.684
 9485SOL    HW140083   2.177   4.427   1.745
 9485SOL    HW240084   2.212   4.440   1.598
 9486SOL     OW40085   2.483   1.174   7.085
 9486SOL    HW140086   2.468   1.111   7.156
 9486SOL    HW240087   2.576   1.196   7.092
 9487SOL     OW40088   1.347   1.140   7.186
 9487SOL    HW140089   1.286   1.076   7.222
 9487SOL    HW240090   1.308   1.225   7.209
 9488SOL     OW40091   1.809   4.510  11.694
 9488SOL    HW140092   1.716   4.488  11.685
 9488SOL    HW240093   1.811   4.581  11.758
 9489SOL     OW40094   1.764   1.575  25.070
 9489SOL    HW140095   1.763   1.657  25.020
 9489SOL    HW240096   1.706   1.516  25.022
 9490SOL     OW40097   2.591   4.178   0.681
 9490SOL    HW140098   2.548   4.143   0.603
 9490SOL    HW240099   2.569   4.271   0.681
 9491SOL     OW40100   1.554   0.552   2.559
 9491SOL    HW140101   1.492   0.567   2.488
 9491SOL    HW240102   1.517   0.599   2.634
 9492SOL     OW40103   0.639   1.818   7.703
 9492SOL    HW140104   0.585   1.895   7.684
 9492SOL    HW240105   0.655   1.823   7.797
 9493SOL     OW40106   1.143   3.608   0.393
 9493SOL    HW140107   1.097   3.569   0.319
 9493SOL    HW240108   1.158   3.535   0.453
 9494SOL     OW40109   3.240   1.375   3.660
 9494SOL    HW140110   3.167   1.379   3.599
 9494SOL    HW240111   3.265   1.283   3.662
 9495SOL     OW40112   2.010   0.719  19.418
 9495SOL    HW140113   1.979   0.695  19.505
 9495SOL    HW240114   1.997   0.814  19.414
 9496SOL     OW40115   2.889   0.507   0.804
 9496SOL    HW140116   2.798   0.501   0.775
 9496SOL    HW240117   2.884   0.532   0.896
 9497SOL     OW40118   3.260   0.511  28.082
 9497SOL    HW140119   3.169   0.489  28.064
 9497SOL    HW240120   3.260   0.606  28.092
 9498SOL     OW40121   1.440   1.107   8.486
 9498SOL    HW140122   1.396   1.186   8.454
 9498SOL    HW240123   1.474   1.132   8.572
 9499SOL     OW40124   1.056   0.211   9.735
 9499SOL    HW140125   0.976   0.262   9.749
 9499SOL    HW240126   1.074   0.220   9.641
 9500SOL     OW40127   1.340   2.165  21.240
 9500SOL    HW140128   1.415   2.119  21.201
 9500SOL    HW240129   1.371   2.191  21.327
 9501SOL     OW40130   1.511   0.500   1.065
 9501SOL    HW140131   1.513   0.474   1.157
 9501SOL    HW240132   1.453   0.437   1.023
 9502SOL     OW40133   0.933   2.631  21.839
 9502SOL    HW140134   0.850   2.633  21.887
 9502SOL    HW240135   0.984   2.704  21.875
 9503SOL     OW40136   2.073   0.066  11.858
 9503SOL    HW140137   2.099   0.042  11.947
 9503SOL    HW240138   1.987   0.106  11.869
 9504SOL     OW40139   2.422   3.877   7.897
 9504SOL    HW140140   2.443   3.789   7.927
 9504SOL    HW240141   2.389   3.921   7.975
 9505SOL     OW40142   2.263   1.792   1.816
 9505SOL    HW140143   2.309   1.876   1.810
 9505SOL    HW240144   2.191   1.808   1.876
 9506SOL     OW40145   2.773   2.008  21.264
 9506SOL    HW140146   2.698   1.971  21.311
 9506SOL    HW240147   2.769   1.968  21.177
 9507SOL     OW40148   1.211   4.185   7.132
 9507SOL    HW140149   1.290   4.138   7.106
 9507SOL    HW240150   1.166   4.125   7.191
 9508SOL     OW40151   1.496   3.729  27.280
 9508SOL    HW140152   1.471   3.805  27.227
 9508SOL    HW240153   1.579   3.754  27.321
 9509SOL     OW40154   3.729   3.987  23.335
 9509SOL    HW140155   3.686   4.021  23.256
 9509SOL    HW240156   3.782   4.060  23.367
 9510SOL     OW40157   2.721   0.800  27.455
 9510SOL    HW140158   2.770   0.792  27.537
 9510SOL    HW240159   2.636   0.835  27.481
 9511SOL     OW40160   4.139   1.776  19.619
 9511SOL    HW140161   4.123   1.701  19.562
 9511SOL    HW240162   4.053   1.818  19.627
 9512SOL     OW40163   1.149   3.767  25.499
 9512SOL    HW140164   1.110   3.684  25.471
 9512SOL    HW240165   1.135   3.827  25.425
 9513SOL     OW40166   1.536   2.655   6.207
 9513SOL    HW140167   1.530   2.629   6.299
 9513SOL    HW240168   1.629   2.676   6.194
 9514SOL     OW40169   0.889   1.883   0.695
 9514SOL    HW140170   0.970   1.913   0.654
 9514SOL    HW240171   0.916   1.850   0.781
 9515SOL     OW40172   3.373   1.616  22.840
 9515SOL    HW140173   3.375   1.693  22.896
 9515SOL    HW240174   3.368   1.542  22.901
 9516SOL     OW40175   3.319   0.800  26.627
 9516SOL    HW140176   3.230   0.765  26.624
 9516SOL    HW240177   3.349   0.798  26.536
 9517SOL     OW40178   1.058   0.447  23.717
 9517SOL    HW140179   1.039   0.527  23.766
 9517SOL    HW240180   1.031   0.376  23.775
 9518SOL     OW40181   0.184   1.252  20.199
 9518SOL    HW140182   0.251   1.311  20.235
 9518SOL    HW240183   0.138   1.218  20.276
 9519SOL     OW40184   2.757   0.066  11.293
 9519SOL    HW140185   2.693   0.130  11.326
 9519SOL    HW240186   2.722   4.761  11.319
 9520SOL     OW40187   2.330   4.265  26.207
 9520SOL    HW140188   2.408   4.247  26.260
 9520SOL    HW240189   2.273   4.315  26.265
 9521SOL     OW40190   3.840   1.145   2.044
 9521SOL    HW140191   3.883   1.161   1.960
 9521SOL    HW240192   3.764   1.091   2.023
 9522SOL     OW40193   0.114   2.672   3.117
 9522SOL    HW140194   0.052   2.738   3.085
 9522SOL    HW240195   0.138   2.701   3.205
 9523SOL     OW40196   3.875   2.881  17.996
 9523SOL    HW140197   3.890   2.912  18.085
 9523SOL    HW240198   3.895   2.956  17.940
 9524SOL     OW40199   0.780   0.604   0.864
 9524SOL    HW140200   0.762   0.652   0.945
 9524SOL    HW240201   0.859   0.646   0.829
 9525SOL     OW40202   4.637   2.083   3.421
 9525SOL    HW140203   4.597   2.164   3.390
 9525SOL    HW240204   4.620   2.020   3.351
 9526SOL     OW40205   4.468   3.585   0.859
 9526SOL    HW140206   4.531   3.526   0.818
 9526SOL    HW240207   4.388   3.574   0.807
 9527SOL     OW40208   2.674   0.441   8.734
 9527SOL    HW140209   2.700   0.500   8.663
 9527SOL    HW240210   2.582   0.421   8.717
 9528SOL     OW40211   4.680   2.232  26.866
 9528SOL    HW140212   4.638   2.280  26.937
 9528SOL    HW240213   4.608   2.203  26.810
 9529SOL     OW40214   1.725   3.134   9.728
 9529SOL    HW140215   1.665   3.189   9.678
 9529SOL    HW240216   1.731   3.053   9.677
 9530SOL     OW40217   0.945   1.255  26.686
 9530SOL    HW140218   0.854   1.280  26.699
 9530SOL    HW240219   0.944   1.159  26.684
 9531SOL     OW40220   1.375   1.009  25.451
 9531SOL    HW140221   1.421   1.087  25.481
 9531SOL    HW240222   1.444   0.945  25.436
 9532SOL     OW40223   4.552   1.008  18.008
 9532SOL    HW140224   4.459   1.021  18.027
 9532SOL    HW240225   4.554   0.965  17.923
 9533SOL     OW40226   3.779   4.324  26.753
 9533SOL    HW140227   3.721   4.298  26.681
 9533SOL    HW240228   3.859   4.353  26.710
 9534SOL     OW40229   0.025   3.446   3.177
 9534SOL    HW140230   0.006   3.353   3.166
 9534SOL    HW240231   0.009   3.463   3.270
 9535SOL     OW40232   1.095   3.728  20.499
 9535SOL    HW140233   1.059   3.651  20.454
 9535SOL    HW240234   1.032   3.747  20.568
 9536SOL     OW40235   2.355   3.008  19.968
 9536SOL    HW140236   2.390   2.920  19.955
 9536SOL    HW240237   2.432   3.063  19.983
 9537SOL     OW40238   4.569   4.141  18.639
 9537SOL    HW140239   4.631   4.073  18.665
 9537SOL    HW240240   4.600   4.220  18.683
 9538SOL     OW40241   4.077   2.742  17.329
 9538SOL    HW140242   4.078   2.815  17.267
 9538SOL    HW240243   4.166   2.707  17.325
 9539SOL     OW40244   1.716   3.836   4.037
 9539SOL    HW140245   1.745   3.797   4.119
 9539SOL    HW240246   1.638   3.786   4.012
 9540SOL     OW40247   4.021   4.510  26.569
 9540SOL    HW140248   4.023   4.550  26.656
 9540SOL    HW240249   4.095   4.449  26.568
 9541SOL     OW40250   4.228   1.495   9.612
 9541SOL    HW140251   4.136   1.509   9.590
 9541SOL    HW240252   4.270   1.473   9.529
 9542SOL     OW40253   4.451   1.816  19.025
 9542SOL    HW140254   4.483   1.904  19.046
 9542SOL    HW240255   4.356   1.821  19.038
 9543SOL     OW40256   2.453   0.096  24.736
 9543SOL    HW140257   2.447   0.090  24.641
 9543SOL    HW240258   2.493   0.181  24.752
 9544SOL     OW40259   4.620   2.092   2.718
 9544SOL    HW140260   4.699   2.103   2.771
 9544SOL    HW240261   4.567   2.030   2.768
 9545SOL     OW40262   1.292   4.392  23.167
 9545SOL    HW140263   1.241   4.452  23.113
 9545SOL    HW240264   1.323   4.325  23.106
 9546SOL     OW40265   0.382   0.084   6.058
 9546SOL    HW140266   0.386   4.769   6.052
 9546SOL    HW240267   0.306   0.101   6.114
 9547SOL     OW40268   4.047   3.543  23.504
 9547SOL    HW140269   4.129   3.560  23.457
 9547SOL    HW240270   4.057   3.455  23.540
 9548SOL     OW40271   1.473   1.356  24.843
 9548SOL    HW140272   1.562   1.360  24.879
 9548SOL    HW240273   1.469   1.272  24.796
 9549SOL     OW40274   4.621   3.877   1.976
 9549SOL    HW140275   4.705   3.834   1.958
 9549SOL    HW240276   4.557   3.826   1.927
 9550SOL     OW40277   0.387   0.188  20.116
 9550SOL    HW140278   0.424   0.259  20.063
 9550SOL    HW240279   0.433   0.110  20.087
 9551SOL     OW40280   2.556   2.564   0.726
 9551SOL    HW140281   2.632   2.516   0.691
 9551SOL    HW240282   2.583   2.592   0.813
 9552SOL     OW40283   2.529   0.618  21.860
 9552SOL    HW140284   2.552   0.683  21.793
 9552SOL    HW240285   2.557   0.534  21.822
 9553SOL     OW40286   4.489   2.889  23.349
 9553SOL    HW140287   4.432   2.849  23.283
 9553SOL    HW240288   4.575   2.893  23.308
 9554SOL     OW40289   0.436   2.612  23.558
 9554SOL    HW140290   0.415   2.583  23.469
 9554SOL    HW240291   0.455   2.531  23.606
 9555SOL     OW40292   4.307   4.156   9.165
 9555SOL    HW140293   4.228   4.201   9.195
 9555SOL    HW240294   4.370   4.166   9.237
 9556SOL     OW40295   0.415   4.076  19.196
 9556SOL    HW140296   0.450   4.152  19.149
 9556SOL    HW240297   0.356   4.113  19.261
 9557SOL     OW40298   3.343   1.993   8.949
 9557SOL    HW140299   3.354   2.020   9.040
 9557SOL    HW240300   3.343   1.897   8.952
 9558SOL     OW40301   2.385   3.847  25.779
 9558SOL    HW140302   2.462   3.796  25.804
 9558SOL    HW240303   2.330   3.847  25.857
 9559SOL     OW40304   4.339   1.651   2.761
 9559SOL    HW140305   4.276   1.595   2.807
 9559SOL    HW240306   4.295   1.736   2.754
 9560SOL     OW40307   3.905   3.543  22.970
 9560SOL    HW140308   3.936   3.465  23.016
 9560SOL    HW240309   3.929   3.616  23.027
 9561SOL     OW40310   4.584   1.636   9.489
 9561SOL    HW140311   4.531   1.558   9.473
 9561SOL    HW240312   4.524   1.697   9.532
 9562SOL     OW40313   0.902   1.568  26.853
 9562SOL    HW140314   0.849   1.630  26.802
 9562SOL    HW240315   0.889   1.595  26.944
 9563SOL     OW40316   4.735   1.910  19.578
 9563SOL    HW140317   4.700   1.850  19.512
 9563SOL    HW240318   0.046   1.883  19.588
 9564SOL     OW40319   3.080   0.672   3.746
 9564SOL    HW140320   2.997   0.625   3.757
 9564SOL    HW240321   3.093   0.717   3.830
 9565SOL     OW40322   0.925   2.051   4.243
 9565SOL    HW140323   0.933   1.973   4.188
 9565SOL    HW240324   0.979   2.117   4.199
 9566SOL     OW40325   1.617   2.781   5.306
 9566SOL    HW140326   1.570   2.704   5.339
 9566SOL    HW240327   1.709   2.759   5.319
 9567SOL     OW40328   3.583   0.883   3.251
 9567SOL    HW140329   3.508   0.933   3.284
 9567SOL    HW240330   3.556   0.791   3.259
 9568SOL     OW40331   3.786   3.774   8.054
 9568SOL    HW140332   3.770   3.728   8.136
 9568SOL    HW240333   3.871   3.742   8.025
 9569SOL     OW40334   0.722   1.332  24.594
 9569SOL    HW140335   0.770   1.320  24.512
 9569SOL    HW240336   0.637   1.368  24.568
 9570SOL     OW40337   2.724   3.175  23.358
 9570SOL    HW140338   2.683   3.127  23.286
 9570SOL    HW240339   2.817   3.176  23.337
 9571SOL     OW40340   1.928   4.140   9.656
 9571SOL    HW140341   1.901   4.179   9.573
 9571SOL    HW240342   1.855   4.156   9.716
 9572SOL     OW40343   0.532   0.287   2.481
 9572SOL    HW140344   0.579   0.263   2.561
 9572SOL    HW240345   0.595   0.339   2.430
 9573SOL     OW40346   0.742   0.601  21.657
 9573SOL    HW140347   0.691   0.524  21.634
 9573SOL    HW240348   0.805   0.611  21.585
 9574SOL     OW40349   4.744   2.526  21.645
 9574SOL    HW140350   4.764   2.549  21.554
 9574SOL    HW240351   4.654   2.494  21.642
 9575SOL     OW40352   0.762   3.463   6.235
 9575SOL    HW140353   0.768   3.390   6.174
 9575SOL    HW240354   0.830   3.445   6.300
 9576SOL     OW40355   2.800   1.889   0.710
 9576SOL    HW140356   2.865   1.930   0.767
 9576SOL    HW240357   2.726   1.950   0.711
 9577SOL     OW40358   4.067   1.611   9.249
 9577SOL    HW140359   3.984   1.656   9.264
 9577SOL    HW240360   4.067   1.539   9.312
 9578SOL     OW40361   3.046   4.525  23.766
 9578SOL    HW140362   3.089   4.558  23.687
 9578SOL    HW240363   3.094   4.567  23.838
 9579SOL     OW40364   4.205   3.892   9.730
 9579SOL    HW140365   4.178   3.946   9.805
 9579SOL    HW240366   4.201   3.952   9.655
 9580SOL     OW40367   3.277   3.011   4.207
 9580SOL    HW140368   3.182   3.006   4.215
 9580SOL    HW240369   3.310   2.951   4.274
 9581SOL     OW40370   4.011   1.767   2.075
 9581SOL    HW140371   3.923   1.766   2.113
 9581SOL    HW240372   4.062   1.709   2.131
 9582SOL     OW40373   4.683   1.490   2.982
 9582SOL    HW140374   4.602   1.439   2.976
 9582SOL    HW240375   4.730   1.452   3.056
 9583SOL     OW40376   2.945   3.815  20.653
 9583SOL    HW140377   2.940   3.720  20.641
 9583SOL    HW240378   2.977   3.849  20.569
 9584SOL     OW40379   4.142   1.414  25.969
 9584SOL    HW140380   4.208   1.371  25.914
 9584SOL    HW240381   4.080   1.344  25.991
 9585SOL     OW40382   1.919   4.692  17.920
 9585SOL    HW140383   1.955   4.708  18.007
 9585SOL    HW240384   1.880   4.775  17.894
 9586SOL     OW40385   3.312   3.334   3.973
 9586SOL    HW140386   3.401   3.312   3.947
 9586SOL    HW240387   3.322   3.390   4.050
 9587SOL     OW40388   1.373   2.154  27.378
 9587SOL    HW140389   1.392   2.216  27.448
 9587SOL    HW240390   1.391   2.068  27.416
 9588SOL     OW40391   1.853   3.142  25.396
 9588SOL    HW140392   1.931   3.134  25.452
 9588SOL    HW240393   1.783   3.169  25.456
 9589SOL     OW40394   3.380   4.593   8.626
 9589SOL    HW140395   3.430   4.658   8.675
 9589SOL    HW240396   3.426   4.510   8.641
 9590SOL     OW40397   4.069   0.799  24.261
 9590SOL    HW140398   4.035   0.713  24.285
 9590SOL    HW240399   3.997   0.841  24.214
 9591SOL     OW40400   3.105   3.221   6.451
 9591SOL    HW140401   3.087   3.237   6.544
 9591SOL    HW240402   3.190   3.177   6.450
 9592SOL     OW40403   3.928   1.925  20.752
 9592SOL    HW140404   3.944   1.886  20.838
 9592SOL    HW240405   3.972   1.866  20.691
 9593SOL     OW40406   2.031   1.754   7.797
 9593SOL    HW140407   2.125   1.763   7.815
 9593SOL    HW240408   1.989   1.764   7.882
 9594SOL     OW40409   2.261   4.520  25.978
 9594SOL    HW140410   2.184   4.466  25.996
 9594SOL    HW240411   2.297   4.540  26.064
 9595SOL     OW40412   2.101   1.297   0.609
 9595SOL    HW140413   2.095   1.278   0.515
 9595SOL    HW240414   2.105   1.393   0.614
 9596SOL     OW40415   1.332   3.307  21.908
 9596SOL    HW140416   1.254   3.290  21.960
 9596SOL    HW240417   1.405   3.280  21.964
 9597SOL     OW40418   0.216   1.220   2.232
 9597SOL    HW140419   0.263   1.247   2.153
 9597SOL    HW240420   0.262   1.141   2.261
 9598SOL     OW40421   0.153   4.428   0.841
 9598SOL    HW140422   0.135   4.421   0.935
 9598SOL    HW240423   0.241   4.393   0.831
 9599SOL     OW40424   2.943   4.765  27.701
 9599SOL    HW140425   2.852   4.771  27.729
 9599SOL    HW240426   2.948   0.040  27.623
 9600SOL     OW40427   0.397   2.675   0.683
 9600SOL    HW140428   0.338   2.742   0.648
 9600SOL    HW240429   0.450   2.649   0.608
 9601SOL     OW40430   4.744   2.733   1.702
 9601SOL    HW140431   0.028   2.717   1.771
 9601SOL    HW240432   0.014   2.731   1.621
 9602SOL     OW40433   3.458   2.556   7.341
 9602SOL    HW140434   3.414   2.567   7.425
 9602SOL    HW240435   3.487   2.465   7.341
 9603SOL     OW40436   0.391   1.199  18.352
 9603SOL    HW140437   0.447   1.165  18.283
 9603SOL    HW240438   0.435   1.278  18.382
 9604SOL     OW40439   1.020   3.682   9.330
 9604SOL    HW140440   0.935   3.661   9.291
 9604SOL    HW240441   1.036   3.611   9.392
 9605SOL     OW40442   2.978   0.735   4.536
 9605SOL    HW140443   3.053   0.758   4.591
 9605SOL    HW240444   2.903   0.740   4.595
 9606SOL     OW40445   1.868   3.492  20.047
 9606SOL    HW140446   1.853   3.586  20.033
 9606SOL    HW240447   1.825   3.473  20.130
 9607SOL     OW40448   3.036   1.489  18.180
 9607SOL    HW140449   3.021   1.439  18.260
 9607SOL    HW240450   2.972   1.455  18.118
 9608SOL     OW40451   0.478   2.660  22.929
 9608SOL    HW140452   0.434   2.714  22.863
 9608SOL    HW240453   0.569   2.655  22.899
 9609SOL     OW40454   4.496   4.106  20.388
 9609SOL    HW140455   4.449   4.187  20.370
 9609SOL    HW240456   4.427   4.040  20.399
 9610SOL     OW40457   0.102   4.715   3.346
 9610SOL    HW140458   0.022   4.767   3.345
 9610SOL    HW240459   0.073   4.626   3.328
 9611SOL     OW40460   1.426   4.278   0.564
 9611SOL    HW140461   1.461   4.365   0.582
 9611SOL    HW240462   1.333   4.284   0.588
 9612SOL     OW40463   1.060   2.892  23.098
 9612SOL    HW140464   0.972   2.859  23.116
 9612SOL    HW240465   1.046   2.970  23.044
 9613SOL     OW40466   1.813   1.789   6.644
 9613SOL    HW140467   1.823   1.879   6.612
 9613SOL    HW240468   1.876   1.782   6.716
 9614SOL     OW40469   1.069   1.615   7.115
 9614SOL    HW140470   1.011   1.640   7.186
 9614SOL    HW240471   1.127   1.690   7.104
 9615SOL     OW40472   1.554   3.344   9.623
 9615SOL    HW140473   1.513   3.338   9.537
 9615SOL    HW240474   1.530   3.431   9.655
 9616SOL     OW40475   0.432   2.448  27.550
 9616SOL    HW140476   0.399   2.532  27.583
 9616SOL    HW240477   0.370   2.423  27.482
 9617SOL     OW40478   1.686   3.932   8.606
 9617SOL    HW140479   1.711   3.876   8.679
 9617SOL    HW240480   1.599   3.964   8.629
 9618SOL     OW40481   1.374   3.621   1.124
 9618SOL    HW140482   1.432   3.604   1.049
 9618SOL    HW240483   1.418   3.580   1.198
 9619SOL     OW40484   3.633   0.095  21.475
 9619SOL    HW140485   3.648   0.122  21.565
 9619SOL    HW240486   3.602   0.005  21.482
 9620SOL     OW40487   2.571   4.296  26.342
 9620SOL    HW140488   2.594   4.305  26.435
 9620SOL    HW240489   2.635   4.234  26.307
 9621SOL     OW40490   1.765   1.210  26.077
 9621SOL    HW140491   1.687   1.264  26.065
 9621SOL    HW240492   1.731   1.121  26.088
 9622SOL     OW40493   1.078   2.754  22.569
 9622SOL    HW140494   1.128   2.821  22.617
 9622SOL    HW240495   1.108   2.762  22.479
 9623SOL     OW40496   3.390   1.261  18.568
 9623SOL    HW140497   3.299   1.258  18.597
 9623SOL    HW240498   3.430   1.184  18.608
 9624SOL     OW40499   2.532   2.037   8.471
 9624SOL    HW140500   2.520   2.097   8.545
 9624SOL    HW240501   2.622   2.005   8.481
 9625SOL     OW40502   0.678   1.969   3.714
 9625SOL    HW140503   0.627   1.932   3.786
 9625SOL    HW240504   0.650   2.060   3.709
 9626SOL     OW40505   2.972   1.856   5.435
 9626SOL    HW140506   3.047   1.912   5.454
 9626SOL    HW240507   2.903   1.917   5.408
 9627SOL     OW40508   2.733   3.896  22.806
 9627SOL    HW140509   2.710   3.981  22.768
 9627SOL    HW240510   2.759   3.916  22.896
 9628SOL     OW40511   2.385   0.176  22.196
 9628SOL    HW140512   2.339   0.250  22.157
 9628SOL    HW240513   2.417   0.126  22.121
 9629SOL     OW40514   0.506   3.404  18.489
 9629SOL    HW140515   0.480   3.342  18.557
 9629SOL    HW240516   0.564   3.466  18.534
 9630SOL     OW40517   0.596   2.743   9.786
 9630SOL    HW140518   0.605   2.676   9.854
 9630SOL    HW240519   0.513   2.787   9.806
 9631SOL     OW40520   4.688   3.914   6.277
 9631SOL    HW140521   4.740   3.857   6.220
 9631SOL    HW240522   4.746   3.933   6.351
 9632SOL     OW40523   3.669   4.219   4.242
 9632SOL    HW140524   3.684   4.308   4.210
 9632SOL    HW240525   3.643   4.230   4.333
 9633SOL     OW40526   2.937   2.564  19.396
 9633SOL    HW140527   2.952   2.540  19.305
 9633SOL    HW240528   2.887   2.491  19.432
 9634SOL     OW40529   2.003   3.337   2.640
 9634SOL    HW140530   1.914   3.362   2.617
 9634SOL    HW240531   1.995   3.247   2.672
 9635SOL     OW40532   1.227   3.445  20.792
 9635SOL    HW140533   1.146   3.421  20.837
 9635SOL    HW240534   1.294   3.442  20.861
 9636SOL     OW40535   2.387   2.671  21.117
 9636SOL    HW140536   2.363   2.579  21.108
 9636SOL    HW240537   2.475   2.670  21.155
 9637SOL     OW40538   4.690   1.643  26.249
 9637SOL    HW140539   4.740   1.561  26.247
 9637SOL    HW240540   4.704   1.681  26.162
 9638SOL     OW40541   0.281   2.990   4.852
 9638SOL    HW140542   0.233   2.909   4.870
 9638SOL    HW240543   0.242   3.055   4.911
 9639SOL     OW40544   3.927   4.708  24.414
 9639SOL    HW140545   3.929   4.641  24.345
 9639SOL    HW240546   4.019   4.727  24.431
 9640SOL     OW40547   2.393   0.086   9.367
 9640SOL    HW140548   2.478   0.089   9.323
 9640SOL    HW240549   2.415   0.074   9.460
 9641SOL     OW40550   0.600   3.016   2.012
 9641SOL    HW140551   0.533   3.063   2.061
 9641SOL    HW240552   0.626   2.945   2.070
 9642SOL     OW40553   2.396   4.604  22.203
 9642SOL    HW140554   2.304   4.585  22.182
 9642SOL    HW240555   2.425   4.662  22.133
 9643SOL     OW40556   3.166   2.907   9.388
 9643SOL    HW140557   3.166   2.905   9.292
 9643SOL    HW240558   3.224   2.835   9.414
 9644SOL     OW40559   4.745   0.993   8.780
 9644SOL    HW140560   0.015   1.074   8.788
 9644SOL    HW240561   4.681   1.011   8.711
 9645SOL     OW40562   1.131   0.305  20.014
 9645SOL    HW140563   1.218   0.345  20.010
 9645SOL    HW240564   1.148   0.213  20.032
 9646SOL     OW40565   1.978   3.599   7.939
 9646SOL    HW140566   1.964   3.644   7.856
 9646SOL    HW240567   1.901   3.622   7.992
 9647SOL     OW40568   2.605   4.659  26.527
 9647SOL    HW140569   2.617   4.635  26.619
 9647SOL    HW240570   2.523   4.709  26.526
 9648SOL     OW40571   2.736   3.077   0.376
 9648SOL    HW140572   2.718   3.042   0.463
 9648SOL    HW240573   2.721   3.003   0.317
 9649SOL     OW40574   2.103   0.091  13.438
 9649SOL    HW140575   2.022   0.074  13.485
 9649SOL    HW240576   2.092   0.180  13.404
 9650SOL     OW40577   3.283   0.334  18.667
 9650SOL    HW140578   3.232   0.311  18.590
 9650SOL    HW240579   3.359   0.275  18.665
 9651SOL     OW40580   0.601   3.162  25.833
 9651SOL    HW140581   0.659   3.100  25.876
 9651SOL    HW240582   0.582   3.122  25.748
 9652SOL     OW40583   4.331   0.827   7.231
 9652SOL    HW140584   4.304   0.757   7.291
 9652SOL    HW240585   4.422   0.846   7.255
 9653SOL     OW40586   4.660   0.824  26.609
 9653SOL    HW140587   4.604   0.890  26.568
 9653SOL    HW240588   4.683   0.862  26.694
 9654SOL     OW40589   4.069   1.578  25.169
 9654SOL    HW140590   4.052   1.576  25.263
 9654SOL    HW240591   4.163   1.560  25.162
 9655SOL     OW40592   0.739   4.175  24.580
 9655SOL    HW140593   0.817   4.210  24.537
 9655SOL    HW240594   0.771   4.136  24.661
 9656SOL     OW40595   4.647   4.548   1.931
 9656SOL    HW140596   4.558   4.528   1.903
 9656SOL    HW240597   4.679   4.466   1.969
 9657SOL     OW40598   2.340   3.994   3.098
 9657SOL    HW140599   2.325   3.951   3.182
 9657SOL    HW240600   2.434   3.987   3.084
 9658SOL     OW40601   4.737   3.853  27.254
 9658SOL    HW140602   0.005   3.800  27.191
 9658SOL    HW240603   4.658   3.880  27.207
 9659SOL     OW40604   0.476   0.134  10.170
 9659SOL    HW140605   0.413   0.097  10.232
 9659SOL    HW240606   0.464   0.082  10.090
 9660SOL     OW40607   1.219   4.572   2.488
 9660SOL    HW140608   1.252   4.644   2.542
 9660SOL    HW240609   1.129   4.597   2.467
 9661SOL     OW40610   3.237   0.466  20.354
 9661SOL    HW140611   3.288   0.401  20.402
 9661SOL    HW240612   3.255   0.548  20.400
 9662SOL     OW40613   2.016   0.079  28.150
 9662SOL    HW140614   2.052   0.126  28.075
 9662SOL    HW240615   1.989   4.775  28.115
 9663SOL     OW40616   2.623   3.695  26.828
 9663SOL    HW140617   2.588   3.781  26.852
 9663SOL    HW240618   2.551   3.634  26.844
 9664SOL     OW40619   2.869   1.797  20.082
 9664SOL    HW140620   2.838   1.711  20.111
 9664SOL    HW240621   2.956   1.780  20.045
 9665SOL     OW40622   0.881   0.357  21.219
 9665SOL    HW140623   0.936   0.294  21.265
 9665SOL    HW240624   0.855   0.420  21.287
 9666SOL     OW40625   2.472   4.708  24.266
 9666SOL    HW140626   2.456   4.758  24.346
 9666SOL    HW240627   2.439   4.764  24.196
 9667SOL     OW40628   3.059   3.230   8.255
 9667SOL    HW140629   3.055   3.227   8.351
 9667SOL    HW240630   3.151   3.212   8.234
 9668SOL     OW40631   1.359   3.131   3.492
 9668SOL    HW140632   1.370   3.226   3.485
 9668SOL    HW240633   1.412   3.095   3.421
 9669SOL     OW40634   3.249   1.213   8.171
 9669SOL    HW140635   3.192   1.213   8.248
 9669SOL    HW240636   3.338   1.214   8.207
 9670SOL     OW40637   0.443   2.418   6.001
 9670SOL    HW140638   0.392   2.490   6.037
 9670SOL    HW240639   0.381   2.346   5.993
 9671SOL     OW40640   3.870   2.886  24.716
 9671SOL    HW140641   3.923   2.810  24.692
 9671SOL    HW240642   3.933   2.956  24.732
 9672SOL     OW40643   1.696   1.642  20.713
 9672SOL    HW140644   1.650   1.570  20.670
 9672SOL    HW240645   1.633   1.714  20.712
 9673SOL     OW40646   1.435   2.354  19.002
 9673SOL    HW140647   1.393   2.271  18.980
 9673SOL    HW240648   1.444   2.399  18.918
 9674SOL     OW40649   4.144   0.762   3.872
 9674SOL    HW140650   4.147   0.844   3.921
 9674SOL    HW240651   4.217   0.767   3.811
 9675SOL     OW40652   2.449   2.853   5.352
 9675SOL    HW140653   2.491   2.796   5.416
 9675SOL    HW240654   2.449   2.940   5.393
 9676SOL     OW40655   0.521   2.149   2.494
 9676SOL    HW140656   0.437   2.194   2.493
 9676SOL    HW240657   0.512   2.082   2.561
 9677SOL     OW40658   0.107   2.932  24.192
 9677SOL    HW140659   0.113   2.981  24.274
 9677SOL    HW240660   0.198   2.921  24.163
 9678SOL     OW40661   0.984   4.213   9.652
 9678SOL    HW140662   0.957   4.211   9.560
 9678SOL    HW240663   0.957   4.299   9.683
 9679SOL     OW40664   0.783   0.684  12.561
 9679SOL    HW140665   0.793   0.722  12.648
 9679SOL    HW240666   0.744   0.754  12.509
 9680SOL     OW40667   0.755   1.465   3.278
 9680SOL    HW140668   0.700   1.392   3.249
 9680SOL    HW240669   0.834   1.424   3.312
 9681SOL     OW40670   2.491   4.743   3.864
 9681SOL    HW140671   2.517   4.734   3.956
 9681SOL    HW240672   2.520   4.662   3.822
 9682SOL     OW40673   2.683   2.383  18.235
 9682SOL    HW140674   2.690   2.475  18.211
 9682SOL    HW240675   2.759   2.367  18.290
 9683SOL     OW40676   1.277   0.466  24.007
 9683SOL    HW140677   1.275   0.390  23.949
 9683SOL    HW240678   1.221   0.442  24.081
 9684SOL     OW40679   3.128   1.315  22.073
 9684SOL    HW140680   3.097   1.322  21.983
 9684SOL    HW240681   3.066   1.367  22.124
 9685SOL     OW40682   0.458   2.046  23.092
 9685SOL    HW140683   0.436   2.074  23.003
 9685SOL    HW240684   0.553   2.035  23.091
 9686SOL     OW40685   3.415   2.512   6.517
 9686SOL    HW140686   3.447   2.552   6.598
 9686SOL    HW240687   3.355   2.443   6.546
 9687SOL     OW40688   0.454   1.540  28.286
 9687SOL    HW140689   0.474   1.497  28.203
 9687SOL    HW240690   0.456   1.634  28.266
 9688SOL     OW40691   0.538   4.530  20.922
 9688SOL    HW140692   0.510   4.591  20.990
 9688SOL    HW240693   0.550   4.584  20.844
 9689SOL     OW40694   3.540   1.895   3.121
 9689SOL    HW140695   3.509   1.818   3.169
 9689SOL    HW240696   3.611   1.862   3.066
 9690SOL     OW40697   3.952   0.182   1.655
 9690SOL    HW140698   3.917   0.133   1.581
 9690SOL    HW240699   3.981   0.115   1.717
 9691SOL     OW40700   1.678   2.551  24.067
 9691SOL    HW140701   1.589   2.560  24.101
 9691SOL    HW240702   1.691   2.457  24.058
 9692SOL     OW40703   1.419   1.415   8.097
 9692SOL    HW140704   1.347   1.459   8.052
 9692SOL    HW240705   1.477   1.387   8.027
 9693SOL     OW40706   2.502   2.111   6.150
 9693SOL    HW140707   2.505   2.207   6.147
 9693SOL    HW240708   2.590   2.083   6.124
 9694SOL     OW40709   3.281   3.839  23.117
 9694SOL    HW140710   3.372   3.811  23.114
 9694SOL    HW240711   3.231   3.763  23.086
 9695SOL     OW40712   2.791   1.598   7.823
 9695SOL    HW140713   2.707   1.632   7.853
 9695SOL    HW240714   2.852   1.671   7.833
 9696SOL     OW40715   2.546   2.904   2.938
 9696SOL    HW140716   2.490   2.880   2.865
 9696SOL    HW240717   2.534   2.998   2.948
 9697SOL     OW40718   0.383   2.290   8.748
 9697SOL    HW140719   0.354   2.319   8.661
 9697SOL    HW240720   0.478   2.297   8.745
 9698SOL     OW40721   3.505   3.975   4.200
 9698SOL    HW140722   3.576   4.025   4.160
 9698SOL    HW240723   3.541   3.944   4.283
 9699SOL     OW40724   2.622   3.927   3.336
 9699SOL    HW140725   2.532   3.903   3.316
 9699SOL    HW240726   2.666   3.844   3.355
 9700SOL     OW40727   0.706   3.174   2.289
 9700SOL    HW140728   0.617   3.152   2.263
 9700SOL    HW240729   0.752   3.090   2.289
 9701SOL     OW40730   2.974   3.399  25.037
 9701SOL    HW140731   2.913   3.470  25.015
 9701SOL    HW240732   3.047   3.410  24.975
 9702SOL     OW40733   2.007   1.654   8.298
 9702SOL    HW140734   2.034   1.607   8.219
 9702SOL    HW240735   1.986   1.585   8.361
 9703SOL     OW40736   4.625   4.676   3.672
 9703SOL    HW140737   4.591   4.706   3.588
 9703SOL    HW240738   4.651   4.756   3.717
 9704SOL     OW40739   2.578   3.292   6.810
 9704SOL    HW140740   2.508   3.295   6.744
 9704SOL    HW240741   2.558   3.364   6.870
 9705SOL     OW40742   2.808   3.039  28.145
 9705SOL    HW140743   2.760   2.996  28.216
 9705SOL    HW240744   2.849   2.967  28.097
 9706SOL     OW40745   1.895   0.630  28.385
 9706SOL    HW140746   1.963   0.692  28.360
 9706SOL    HW240747   1.894   0.566  28.314
 9707SOL     OW40748   3.971   0.947  24.026
 9707SOL    HW140749   3.929   1.033  24.021
 9707SOL    HW240750   4.063   0.967  24.046
 9708SOL     OW40751   4.691   4.008   1.219
 9708SOL    HW140752   4.651   3.989   1.134
 9708SOL    HW240753   4.764   4.066   1.198
 9709SOL     OW40754   2.873   4.413  10.855
 9709SOL    HW140755   2.794   4.359  10.862
 9709SOL    HW240756   2.944   4.357  10.886
 9710SOL     OW40757   0.771   4.612  17.045
 9710SOL    HW140758   0.797   4.557  16.971
 9710SOL    HW240759   0.721   4.683  17.005
 9711SOL     OW40760   4.318   4.614   1.076
 9711SOL    HW140761   4.412   4.629   1.071
 9711SOL    HW240762   4.310   4.520   1.091
 9712SOL     OW40763   3.277   0.769  27.326
 9712SOL    HW140764   3.277   0.761  27.421
 9712SOL    HW240765   3.278   0.863  27.310
 9713SOL     OW40766   1.866   1.749   0.283
 9713SOL    HW140767   1.951   1.782   0.252
 9713SOL    HW240768   1.854   1.667   0.236
 9714SOL     OW40769   0.612   0.147  21.731
 9714SOL    HW140770   0.585   0.188  21.814
 9714SOL    HW240771   0.668   0.074  21.757
 9715SOL     OW40772   4.734   1.289  22.677
 9715SOL    HW140773   0.042   1.253  22.681
 9715SOL    HW240774   4.703   1.268  22.589
 9716SOL     OW40775   0.626   1.843  24.599
 9716SOL    HW140776   0.689   1.915  24.602
 9716SOL    HW240777   0.575   1.853  24.680
 9717SOL     OW40778   2.799   0.428  24.923
 9717SOL    HW140779   2.876   0.478  24.950
 9717SOL    HW240780   2.832   0.339  24.908
 9718SOL     OW40781   3.460   4.110  27.801
 9718SOL    HW140782   3.406   4.043  27.760
 9718SOL    HW240783   3.400   4.158  27.858
 9719SOL     OW40784   4.567   3.811   9.571
 9719SOL    HW140785   4.650   3.763   9.570
 9719SOL    HW240786   4.516   3.770   9.641
 9720SOL     OW40787   3.316   1.660  25.397
 9720SOL    HW140788   3.239   1.704  25.362
 9720SOL    HW240789   3.371   1.731  25.431
 9721SOL     OW40790   0.150   4.115  24.967
 9721SOL    HW140791   0.114   4.166  24.894
 9721SOL    HW240792   0.102   4.146  25.044
 9722SOL     OW40793   1.691   0.823   9.168
 9722SOL    HW140794   1.771   0.869   9.142
 9722SOL    HW240795   1.690   0.744   9.115
 9723SOL     OW40796   1.484   1.359  24.057
 9723SOL    HW140797   1.519   1.295  23.995
 9723SOL    HW240798   1.390   1.362  24.037
 9724SOL     OW40799   3.601   1.028  26.802
 9724SOL    HW140800   3.665   1.048  26.871
 9724SOL    HW240801   3.609   0.934  26.788
 9725SOL     OW40802   4.058   1.139  27.579
 9725SOL    HW140803   4.145   1.155  27.617
 9725SOL    HW240804   4.004   1.212  27.611
 9726SOL     OW40805   4.598   0.120  16.839
 9726SOL    HW140806   4.532   0.096  16.773
 9726SOL    HW240807   4.548   0.164  16.908
 9727SOL     OW40808   4.004   1.434   3.637
 9727SOL    HW140809   3.948   1.361   3.663
 9727SOL    HW240810   3.954   1.512   3.661
 9728SOL     OW40811   4.137   2.414   1.445
 9728SOL    HW140812   4.165   2.325   1.425
 9728SOL    HW240813   4.100   2.408   1.533
 9729SOL     OW40814   2.250   4.269   8.403
 9729SOL    HW140815   2.270   4.326   8.477
 9729SOL    HW240816   2.300   4.189   8.420
 9730SOL     OW40817   4.618   4.288   5.150
 9730SOL    HW140818   4.680   4.269   5.221
 9730SOL    HW240819   4.568   4.363   5.182
 9731SOL     OW40820   1.112   4.053   7.351
 9731SOL    HW140821   1.086   3.961   7.350
 9731SOL    HW240822   1.201   4.053   7.386
 9732SOL     OW40823   3.489   4.731   4.702
 9732SOL    HW140824   3.552   4.678   4.653
 9732SOL    HW240825   3.506   0.040   4.673
 9733SOL     OW40826   0.169   3.944   2.198
 9733SOL    HW140827   0.145   4.015   2.138
 9733SOL    HW240828   0.191   3.988   2.280
 9734SOL     OW40829   2.588   4.121  27.840
 9734SOL    HW140830   2.563   4.081  27.757
 9734SOL    HW240831   2.585   4.049  27.903
 9735SOL     OW40832   3.048   2.368   1.340
 9735SOL    HW140833   3.073   2.285   1.299
 9735SOL    HW240834   3.130   2.405   1.373
 9736SOL     OW40835   0.997   2.221   1.219
 9736SOL    HW140836   0.990   2.316   1.208
 9736SOL    HW240837   0.919   2.197   1.268
 9737SOL     OW40838   4.463   2.011   7.022
 9737SOL    HW140839   4.552   2.045   7.032
 9737SOL    HW240840   4.442   1.972   7.107
 9738SOL     OW40841   1.968   3.946   6.929
 9738SOL    HW140842   2.044   3.926   6.983
 9738SOL    HW240843   2.005   3.971   6.844
 9739SOL     OW40844   0.086   0.738  24.707
 9739SOL    HW140845   4.780   0.706  24.682
 9739SOL    HW240846   0.069   0.818  24.757
 9740SOL     OW40847   3.414   3.761  24.504
 9740SOL    HW140848   3.508   3.766  24.485
 9740SOL    HW240849   3.388   3.673  24.476
 9741SOL     OW40850   0.001   3.840  26.500
 9741SOL    HW140851   4.778   3.809  26.590
 9741SOL    HW240852   4.767   3.934  26.507
 9742SOL     OW40853   2.992   2.151  21.322
 9742SOL    HW140854   2.929   2.082  21.304
 9742SOL    HW240855   3.036   2.166  21.238
 9743SOL     OW40856   0.552   0.488   3.706
 9743SOL    HW140857   0.608   0.564   3.695
 9743SOL    HW240858   0.480   0.519   3.761
 9744SOL     OW40859   3.089   4.407   5.201
 9744SOL    HW140860   3.078   4.413   5.106
 9744SOL    HW240861   3.106   4.314   5.217
 9745SOL     OW40862   0.688   3.559   8.033
 9745SOL    HW140863   0.686   3.464   8.039
 9745SOL    HW240864   0.781   3.581   8.037
 9746SOL     OW40865   1.080   0.059  26.284
 9746SOL    HW140866   1.148   0.049  26.218
 9746SOL    HW240867   1.119   0.115  26.351
 9747SOL     OW40868   0.266   2.511  20.471
 9747SOL    HW140869   0.317   2.474  20.543
 9747SOL    HW240870   0.188   2.546  20.513
 9748SOL     OW40871   0.991   2.067   4.509
 9748SOL    HW140872   0.984   2.054   4.414
 9748SOL    HW240873   1.073   2.114   4.521
 9749SOL     OW40874   2.888   0.231  23.284
 9749SOL    HW140875   2.803   0.253  23.245
 9749SOL    HW240876   2.918   0.154  23.236
 9750SOL     OW40877   1.298   0.863   4.241
 9750SOL    HW140878   1.361   0.842   4.172
 9750SOL    HW240879   1.212   0.853   4.199
 9751SOL     OW40880   2.887   3.664  17.786
 9751SOL    HW140881   2.813   3.693  17.732
 9751SOL    HW240882   2.908   3.577  17.753
 9752SOL     OW40883   2.096   2.933   5.528
 9752SOL    HW140884   2.015   2.962   5.569
 9752SOL    HW240885   2.138   3.013   5.498
 9753SOL     OW40886   1.173   2.781   4.341
 9753SOL    HW140887   1.253   2.829   4.363
 9753SOL    HW240888   1.135   2.757   4.426
 9754SOL     OW40889   2.646   0.648   4.664
 9754SOL    HW140890   2.622   0.580   4.601
 9754SOL    HW240891   2.670   0.600   4.743
 9755SOL     OW40892   0.823   3.282   6.791
 9755SOL    HW140893   0.866   3.254   6.710
 9755SOL    HW240894   0.859   3.225   6.859
 9756SOL     OW40895   4.170   4.311   8.091
 9756SOL    HW140896   4.239   4.356   8.141
 9756SOL    HW240897   4.165   4.224   8.131
 9757SOL     OW40898   1.568   4.640   4.549
 9757SOL    HW140899   1.612   4.650   4.634
 9757SOL    HW240900   1.541   4.548   4.547
 9758SOL     OW40901   2.323   2.767   0.918
 9758SOL    HW140902   2.270   2.706   0.866
 9758SOL    HW240903   2.272   2.848   0.920
 9759SOL     OW40904   1.487   2.222  21.979
 9759SOL    HW140905   1.559   2.223  21.916
 9759SOL    HW240906   1.484   2.132  22.012
 9760SOL     OW40907   1.834   0.986   7.663
 9760SOL    HW140908   1.776   1.035   7.721
 9760SOL    HW240909   1.879   0.925   7.721
 9761SOL     OW40910   0.198   2.337  24.329
 9761SOL    HW140911   0.281   2.385  24.332
 9761SOL    HW240912   0.181   2.323  24.236
 9762SOL     OW40913   2.883   3.640  19.489
 9762SOL    HW140914   2.838   3.593  19.419
 9762SOL    HW240915   2.877   3.582  19.565
 9763SOL     OW40916   0.943   4.120   9.382
 9763SOL    HW140917   0.908   4.064   9.313
 9763SOL    HW240918   0.921   4.209   9.355
 9764SOL     OW40919   1.150   3.951   4.583
 9764SOL    HW140920   1.135   3.864   4.547
 9764SOL    HW240921   1.077   4.003   4.549
 9765SOL     OW40922   2.981   1.947  26.011
 9765SOL    HW140923   3.025   1.863  26.000
 9765SOL    HW240924   2.897   1.936  25.965
 9766SOL     OW40925   1.541   2.785  10.236
 9766SOL    HW140926   1.475   2.751  10.176
 9766SOL    HW240927   1.612   2.815  10.179
 9767SOL     OW40928   2.117   2.685  19.931
 9767SOL    HW140929   2.073   2.729  20.004
 9767SOL    HW240930   2.047   2.667  19.868
 9768SOL     OW40931   2.210   1.858   8.634
 9768SOL    HW140932   2.201   1.939   8.685
 9768SOL    HW240933   2.304   1.842   8.630
 9769SOL     OW40934   0.981   0.703  26.278
 9769SOL    HW140935   0.980   0.720  26.372
 9769SOL    HW240936   1.074   0.700  26.256
 9770SOL     OW40937   2.611   3.259  21.030
 9770SOL    HW140938   2.673   3.279  21.100
 9770SOL    HW240939   2.638   3.315  20.957
 9771SOL     OW40940   0.891   4.267   1.840
 9771SOL    HW140941   0.945   4.207   1.892
 9771SOL    HW240942   0.954   4.324   1.797
 9772SOL     OW40943   0.316   4.264   6.914
 9772SOL    HW140944   0.407   4.242   6.935
 9772SOL    HW240945   0.316   4.359   6.902
 9773SOL     OW40946   3.766   1.121   8.456
 9773SOL    HW140947   3.837   1.177   8.487
 9773SOL    HW240948   3.809   1.055   8.403
 9774SOL     OW40949   3.934   3.310  28.390
 9774SOL    HW140950   3.936   3.362  28.310
 9774SOL    HW240951   3.979   3.229  28.367
 9775SOL     OW40952   0.538   0.604  20.278
 9775SOL    HW140953   0.465   0.648  20.235
 9775SOL    HW240954   0.596   0.675  20.307
 9776SOL     OW40955   4.614   4.245  26.021
 9776SOL    HW140956   4.552   4.177  25.994
 9776SOL    HW240957   4.560   4.312  26.063
 9777SOL     OW40958   1.131   0.008   7.007
 9777SOL    HW140959   1.166   0.097   6.997
 9777SOL    HW240960   1.186   4.749   7.074
 9778SOL     OW40961   3.968   0.953  26.031
 9778SOL    HW140962   3.998   0.951  26.122
 9778SOL    HW240963   3.901   0.884  26.026
 9779SOL     OW40964   3.108   4.620  26.383
 9779SOL    HW140965   3.143   4.639  26.470
 9779SOL    HW240966   3.014   4.607  26.398
 9780SOL     OW40967   0.937   2.750  18.741
 9780SOL    HW140968   0.918   2.690  18.813
 9780SOL    HW240969   1.008   2.708  18.693
 9781SOL     OW40970   3.123   3.614   4.778
 9781SOL    HW140971   3.146   3.605   4.871
 9781SOL    HW240972   3.108   3.708   4.766
 9782SOL     OW40973   0.133   3.145   2.196
 9782SOL    HW140974   0.156   3.234   2.170
 9782SOL    HW240975   0.043   3.151   2.228
 9783SOL     OW40976   0.501   0.871   9.168
 9783SOL    HW140977   0.589   0.909   9.165
 9783SOL    HW240978   0.450   0.921   9.104
 9784SOL     OW40979   3.166   2.782   6.792
 9784SOL    HW140980   3.074   2.807   6.787
 9784SOL    HW240981   3.209   2.835   6.725
 9785SOL     OW40982   1.766   1.521  27.134
 9785SOL    HW140983   1.780   1.474  27.216
 9785SOL    HW240984   1.671   1.524  27.124
 9786SOL     OW40985   1.087   1.771   3.896
 9786SOL    HW140986   1.065   1.738   3.809
 9786SOL    HW240987   1.029   1.846   3.908
 9787SOL     OW40988   1.422   4.718   3.661
 9787SOL    HW140989   1.473   0.017   3.645
 9787SOL    HW240990   1.345   4.748   3.709
 9788SOL     OW40991   0.081   3.516   6.319
 9788SOL    HW140992   0.038   3.531   6.403
 9788SOL    HW240993   0.130   3.435   6.332
 9789SOL     OW40994   4.623   4.125   8.437
 9789SOL    HW140995   4.580   4.042   8.457
 9789SOL    HW240996   4.575   4.159   8.361
 9790SOL     OW40997   1.248   0.253   6.897
 9790SOL    HW140998   1.293   0.265   6.813
 9790SOL    HW240999   1.189   0.328   6.904
 9791SOL     OW41000   1.526   1.027   5.040
 9791SOL    HW141001   1.485   1.088   4.979
 9791SOL    HW241002   1.470   1.031   5.118
 9792SOL     OW41003   3.755   1.613  27.417
 9792SOL    HW141004   3.823   1.547  27.430
 9792SOL    HW241005   3.761   1.636  27.324
 9793SOL     OW41006   2.781   2.608  18.488
 9793SOL    HW141007   2.768   2.676  18.422
 9793SOL    HW241008   2.730   2.638  18.564
 9794SOL     OW41009   0.781   2.812   6.800
 9794SOL    HW141010   0.805   2.797   6.892
 9794SOL    HW241011   0.856   2.858   6.763
 9795SOL     OW41012   4.332   2.160  26.477
 9795SOL    HW141013   4.398   2.096  26.449
 9795SOL    HW241014   4.282   2.179  26.397
 9796SOL     OW41015   1.161   0.954  22.763
 9796SOL    HW141016   1.082   0.985  22.719
 9796SOL    HW241017   1.188   0.877  22.713
 9797SOL     OW41018   3.864   2.649  20.836
 9797SOL    HW141019   3.846   2.715  20.769
 9797SOL    HW241020   3.934   2.595  20.798
 9798SOL     OW41021   3.901   1.855   0.157
 9798SOL    HW141022   3.889   1.950   0.161
 9798SOL    HW241023   3.989   1.844   0.121
 9799SOL     OW41024   1.325   3.166   1.147
 9799SOL    HW141025   1.389   3.183   1.078
 9799SOL    HW241026   1.377   3.140   1.223
 9800SOL     OW41027   0.500   0.384  17.535
 9800SOL    HW141028   0.547   0.455  17.579
 9800SOL    HW241029   0.454   0.339  17.606
 9801SOL     OW41030   3.100   1.108  21.390
 9801SOL    HW141031   3.049   1.128  21.312
 9801SOL    HW241032   3.047   1.044  21.437
 9802SOL     OW41033   2.084   3.025  25.230
 9802SOL    HW141034   2.004   3.056  25.273
 9802SOL    HW241035   2.155   3.067  25.278
 9803SOL     OW41036   3.417   4.240   3.876
 9803SOL    HW141037   3.452   4.238   3.787
 9803SOL    HW241038   3.474   4.301   3.923
 9804SOL     OW41039   1.926   1.533  18.702
 9804SOL    HW141040   1.977   1.452  18.702
 9804SOL    HW241041   1.867   1.525  18.777
 9805SOL     OW41042   0.370   2.963   7.182
 9805SOL    HW141043   0.345   3.048   7.147
 9805SOL    HW241044   0.376   2.977   7.277
 9806SOL     OW41045   0.172   1.016   4.050
 9806SOL    HW141046   0.145   0.965   3.974
 9806SOL    HW241047   0.091   1.054   4.083
 9807SOL     OW41048   0.457   2.417   5.101
 9807SOL    HW141049   0.491   2.462   5.178
 9807SOL    HW241050   0.530   2.362   5.071
 9808SOL     OW41051   2.363   3.997   8.148
 9808SOL    HW141052   2.361   4.005   8.243
 9808SOL    HW241053   2.298   4.061   8.118
 9809SOL     OW41054   3.601   3.583  25.065
 9809SOL    HW141055   3.588   3.488  25.069
 9809SOL    HW241056   3.694   3.594  25.044
 9810SOL     OW41057   1.356   1.378  22.919
 9810SOL    HW141058   1.380   1.325  22.995
 9810SOL    HW241059   1.418   1.451  22.920
 9811SOL     OW41060   2.877   2.107  11.285
 9811SOL    HW141061   2.895   2.023  11.328
 9811SOL    HW241062   2.901   2.093  11.194
 9812SOL     OW41063   4.723   4.056   1.683
 9812SOL    HW141064   4.691   4.097   1.603
 9812SOL    HW241065   4.684   3.969   1.683
 9813SOL     OW41066   0.017   2.560   7.771
 9813SOL    HW141067   0.085   2.626   7.782
 9813SOL    HW241068   0.050   2.502   7.703
 9814SOL     OW41069   0.074   0.167  10.965
 9814SOL    HW141070   0.078   0.255  11.002
 9814SOL    HW241071   0.092   0.109  11.039
 9815SOL     OW41072   1.220   3.624   2.877
 9815SOL    HW141073   1.255   3.692   2.935
 9815SOL    HW241074   1.292   3.603   2.818
 9816SOL     OW41075   3.730   4.678  26.750
 9816SOL    HW141076   3.671   4.650  26.820
 9816SOL    HW241077   3.672   4.692  26.675
 9817SOL     OW41078   2.094   3.254   9.290
 9817SOL    HW141079   2.125   3.345   9.289
 9817SOL    HW241080   2.139   3.215   9.365
 9818SOL     OW41081   3.278   2.446   6.270
 9818SOL    HW141082   3.215   2.517   6.284
 9818SOL    HW241083   3.243   2.373   6.321
 9819SOL     OW41084   4.005   3.142   0.544
 9819SOL    HW141085   3.916   3.166   0.517
 9819SOL    HW241086   4.011   3.174   0.634
 9820SOL     OW41087   4.421   3.517   9.184
 9820SOL    HW141088   4.353   3.469   9.231
 9820SOL    HW241089   4.434   3.597   9.235
 9821SOL     OW41090   3.078   0.278   7.606
 9821SOL    HW141091   3.068   0.249   7.697
 9821SOL    HW241092   3.084   0.197   7.555
 9822SOL     OW41093   3.934   3.746   0.184
 9822SOL    HW141094   3.846   3.711   0.198
 9822SOL    HW241095   3.991   3.670   0.191
 9823SOL     OW41096   0.986   0.744   6.757
 9823SOL    HW141097   0.921   0.766   6.691
 9823SOL    HW241098   1.066   0.727   6.707
 9824SOL     OW41099   3.193   3.311  24.702
 9824SOL    HW141100   3.269   3.316  24.644
 9824SOL    HW241101   3.231   3.312  24.790
 9825SOL     OW41102   3.953   1.965   6.734
 9825SOL    HW141103   3.986   1.977   6.645
 9825SOL    HW241104   4.028   1.987   6.790
 9826SOL     OW41105   2.919   0.110  24.188
 9826SOL    HW141106   3.010   0.106  24.216
 9826SOL    HW241107   2.923   0.116  24.093
 9827SOL     OW41108   1.593   4.118  23.810
 9827SOL    HW141109   1.530   4.145  23.744
 9827SOL    HW241110   1.678   4.131  23.769
 9828SOL     OW41111   4.147   4.070   0.668
 9828SOL    HW141112   4.187   4.102   0.587
 9828SOL    HW241113   4.061   4.037   0.642
 9829SOL     OW41114   2.045   1.413  19.796
 9829SOL    HW141115   2.034   1.418  19.701
 9829SOL    HW241116   1.969   1.459  19.831
 9830SOL     OW41117   1.217   1.543  22.350
 9830SOL    HW141118   1.210   1.498  22.434
 9830SOL    HW241119   1.147   1.608  22.352
 9831SOL     OW41120   3.194   0.105   9.251
 9831SOL    HW141121   3.156   0.113   9.339
 9831SOL    HW241122   3.202   0.195   9.220
 9832SOL     OW41123   2.081   0.151   4.952
 9832SOL    HW141124   2.135   0.168   4.875
 9832SOL    HW241125   2.121   0.204   5.021
 9833SOL     OW41126   2.451   4.710   8.181
 9833SOL    HW141127   2.384   4.751   8.236
 9833SOL    HW241128   2.429   4.617   8.183
 9834SOL     OW41129   4.666   3.149  24.849
 9834SOL    HW141130   4.708   3.234  24.860
 9834SOL    HW241131   4.573   3.170  24.836
 9835SOL     OW41132   1.884   0.242  23.172
 9835SOL    HW141133   1.871   0.154  23.136
 9835SOL    HW241134   1.798   0.284  23.165
 9836SOL     OW41135   0.621   4.266   8.755
 9836SOL    HW141136   0.595   4.184   8.797
 9836SOL    HW241137   0.559   4.331   8.788
 9837SOL     OW41138   3.134   1.628   7.787
 9837SOL    HW141139   3.097   1.714   7.808
 9837SOL    HW241140   3.081   1.566   7.836
 9838SOL     OW41141   2.958   2.937  25.414
 9838SOL    HW141142   2.966   2.931  25.319
 9838SOL    HW241143   2.994   2.855  25.447
 9839SOL     OW41144   2.982   0.925   4.248
 9839SOL    HW141145   2.955   0.858   4.310
 9839SOL    HW241146   3.042   0.880   4.188
 9840SOL     OW41147   4.549   3.443  19.889
 9840SOL    HW141148   4.480   3.415  19.949
 9840SOL    HW241149   4.583   3.362  19.852
 9841SOL     OW41150   3.880   3.105  20.238
 9841SOL    HW141151   3.804   3.152  20.272
 9841SOL    HW241152   3.944   3.106  20.310
 9842SOL     OW41153   4.738   0.120   3.778
 9842SOL    HW141154   4.718   0.122   3.872
 9842SOL    HW241155   0.049   0.149   3.773
 9843SOL     OW41156   3.614   0.293   1.374
 9843SOL    HW141157   3.645   0.310   1.463
 9843SOL    HW241158   3.534   0.344   1.366
 9844SOL     OW41159   2.204   2.029  21.390
 9844SOL    HW141160   2.211   2.066  21.478
 9844SOL    HW241161   2.290   2.045  21.351
 9845SOL     OW41162   2.314   2.086  23.787
 9845SOL    HW141163   2.252   2.058  23.719
 9845SOL    HW241164   2.306   2.181  23.789
 9846SOL     OW41165   4.506   1.404  18.720
 9846SOL    HW141166   4.419   1.373  18.695
 9846SOL    HW241167   4.492   1.456  18.799
 9847SOL     OW41168   0.754   4.338   7.272
 9847SOL    HW141169   0.796   4.350   7.187
 9847SOL    HW241170   0.817   4.287   7.322
 9848SOL     OW41171   2.703   0.006  24.477
 9848SOL    HW141172   2.770   4.719  24.492
 9848SOL    HW241173   2.651   4.753  24.404
 9849SOL     OW41174   1.142   2.759  10.031
 9849SOL    HW141175   1.168   2.849  10.009
 9849SOL    HW241176   1.059   2.769  10.078
 9850SOL     OW41177   1.053   4.385   7.557
 9850SOL    HW141178   1.026   4.398   7.648
 9850SOL    HW241179   1.139   4.344   7.563
 9851SOL     OW41180   2.288   0.250   5.202
 9851SOL    HW141181   2.222   0.249   5.272
 9851SOL    HW241182   2.320   0.340   5.201
 9852SOL     OW41183   3.542   1.262   7.415
 9852SOL    HW141184   3.581   1.240   7.330
 9852SOL    HW241185   3.458   1.217   7.416
 9853SOL     OW41186   2.037   3.316  19.061
 9853SOL    HW141187   2.045   3.222  19.044
 9853SOL    HW241188   2.125   3.342  19.089
 9854SOL     OW41189   0.463   3.710  20.869
 9854SOL    HW141190   0.379   3.670  20.892
 9854SOL    HW241191   0.465   3.791  20.919
 9855SOL     OW41192   3.940   0.204   8.201
 9855SOL    HW141193   3.912   0.279   8.254
 9855SOL    HW241194   4.011   0.238   8.146
 9856SOL     OW41195   4.700   0.992  21.416
 9856SOL    HW141196   4.734   1.073  21.378
 9856SOL    HW241197   4.771   0.960  21.472
 9857SOL     OW41198   3.032   2.082   4.391
 9857SOL    HW141199   2.938   2.074   4.376
 9857SOL    HW241200   3.042   2.082   4.486
 9858SOL     OW41201   3.097   2.933  28.338
 9858SOL    HW141202   3.140   2.980  28.267
 9858SOL    HW241203   3.135   2.970  28.418
 9859SOL     OW41204   2.011   4.705   6.422
 9859SOL    HW141205   1.997   4.652   6.500
 9859SOL    HW241206   2.087   4.760   6.443
 9860SOL     OW41207   2.153   3.154   5.397
 9860SOL    HW141208   2.084   3.175   5.334
 9860SOL    HW241209   2.234   3.160   5.347
 9861SOL     OW41210   4.502   0.817   6.239
 9861SOL    HW141211   4.553   0.783   6.312
 9861SOL    HW241212   4.499   0.912   6.253
 9862SOL     OW41213   0.433   0.361  23.170
 9862SOL    HW141214   0.381   0.400  23.100
 9862SOL    HW241215   0.409   0.268  23.169
 9863SOL     OW41216   2.724   0.678   5.330
 9863SOL    HW141217   2.773   0.596   5.325
 9863SOL    HW241218   2.759   0.722   5.408
 9864SOL     OW41219   2.707   4.592   9.159
 9864SOL    HW141220   2.622   4.633   9.146
 9864SOL    HW241221   2.696   4.539   9.238
 9865SOL     OW41222   0.484   1.919   6.626
 9865SOL    HW141223   0.556   1.891   6.682
 9865SOL    HW241224   0.508   2.007   6.598
 9866SOL     OW41225   2.491   4.452   0.588
 9866SOL    HW141226   2.555   4.450   0.517
 9866SOL    HW241227   2.520   4.523   0.645
 9867SOL     OW41228   1.775   2.802   2.585
 9867SOL    HW141229   1.812   2.752   2.658
 9867SOL    HW241230   1.814   2.763   2.507
 9868SOL     OW41231   2.392   4.347   8.644
 9868SOL    HW141232   2.453   4.277   8.621
 9868SOL    HW241233   2.362   4.326   8.732
 9869SOL     OW41234   1.027   2.622   0.827
 9869SOL    HW141235   1.084   2.606   0.902
 9869SOL    HW241236   0.993   2.536   0.803
 9870SOL     OW41237   3.690   3.759   3.361
 9870SOL    HW141238   3.673   3.665   3.362
 9870SOL    HW241239   3.770   3.769   3.413
 9871SOL     OW41240   1.636   1.467  27.839
 9871SOL    HW141241   1.564   1.495  27.782
 9871SOL    HW241242   1.655   1.378  27.810
 9872SOL     OW41243   1.377   2.165  24.724
 9872SOL    HW141244   1.429   2.086  24.738
 9872SOL    HW241245   1.370   2.205  24.811
 9873SOL     OW41246   2.076   3.858   3.433
 9873SOL    HW141247   2.015   3.921   3.472
 9873SOL    HW241248   2.058   3.862   3.339
 9874SOL     OW41249   2.287   4.680   4.140
 9874SOL    HW141250   2.354   4.618   4.110
 9874SOL    HW241251   2.329   4.728   4.211
 9875SOL     OW41252   1.317   1.517   0.294
 9875SOL    HW141253   1.395   1.557   0.333
 9875SOL    HW241254   1.279   1.586   0.240
 9876SOL     OW41255   2.492   1.831  28.487
 9876SOL    HW141256   2.553   1.770   0.009
 9876SOL    HW241257   2.547   1.905  28.461
 9877SOL     OW41258   0.700   0.755   1.100
 9877SOL    HW141259   0.661   0.826   1.049
 9877SOL    HW241260   0.639   0.742   1.172
 9878SOL     OW41261   0.659   0.493  26.034
 9878SOL    HW141262   0.675   0.471  26.126
 9878SOL    HW241263   0.580   0.443  26.011
 9879SOL     OW41264   2.735   3.578  24.448
 9879SOL    HW141265   2.782   3.591  24.531
 9879SOL    HW241266   2.783   3.632  24.385
 9880SOL     OW41267   2.194   3.660   0.441
 9880SOL    HW141268   2.285   3.631   0.447
 9880SOL    HW241269   2.158   3.643   0.528
 9881SOL     OW41270   0.779   1.413  25.998
 9881SOL    HW141271   0.857   1.362  26.021
 9881SOL    HW241272   0.783   1.421  25.903
 9882SOL     OW41273   2.375   2.420  20.969
 9882SOL    HW141274   2.414   2.459  20.891
 9882SOL    HW241275   2.430   2.344  20.988
 9883SOL     OW41276   1.949   4.608  28.001
 9883SOL    HW141277   2.007   4.565  27.938
 9883SOL    HW241278   1.918   4.537  28.058
 9884SOL     OW41279   4.202   2.447  21.441
 9884SOL    HW141280   4.200   2.362  21.485
 9884SOL    HW241281   4.112   2.461  21.410
 9885SOL     OW41282   0.574   1.168   1.315
 9885SOL    HW141283   0.661   1.191   1.347
 9885SOL    HW241284   0.558   1.228   1.242
 9886SOL     OW41285   4.577   1.620   3.563
 9886SOL    HW141286   4.489   1.657   3.561
 9886SOL    HW241287   4.635   1.696   3.569
 9887SOL     OW41288   1.436   1.322  28.259
 9887SOL    HW141289   1.477   1.320  28.345
 9887SOL    HW241290   1.507   1.343  28.199
 9888SOL     OW41291   4.727   3.735   5.150
 9888SOL    HW141292   0.029   3.779   5.168
 9888SOL    HW241293   4.682   3.733   5.234
 9889SOL     OW41294   4.658   0.077  10.796
 9889SOL    HW141295   4.732   0.135  10.813
 9889SOL    HW241296   4.625   0.054  10.883
 9890SOL     OW41297   4.135   4.055  20.477
 9890SOL    HW141298   4.086   4.024  20.401
 9890SOL    HW241299   4.084   4.026  20.553
 9891SOL     OW41300   4.171   4.629  22.878
 9891SOL    HW141301   4.223   4.693  22.926
 9891SOL    HW241302   4.149   4.563  22.943
 9892SOL     OW41303   1.408   3.291  18.945
 9892SOL    HW141304   1.333   3.349  18.956
 9892SOL    HW241305   1.377   3.223  18.885
 9893SOL     OW41306   3.198   3.188  24.987
 9893SOL    HW141307   3.233   3.273  25.013
 9893SOL    HW241308   3.235   3.127  25.051
 9894SOL     OW41309   1.757   0.067   0.240
 9894SOL    HW141310   1.708   0.137   0.197
 9894SOL    HW241311   1.724   0.066   0.330
 9895SOL     OW41312   4.264   3.434  18.039
 9895SOL    HW141313   4.329   3.479  17.984
 9895SOL    HW241314   4.180   3.462  18.004
 9896SOL     OW41315   3.815   1.974  23.350
 9896SOL    HW141316   3.906   1.979  23.379
 9896SOL    HW241317   3.796   1.880  23.346
 9897SOL     OW41318   0.795   0.145   5.263
 9897SOL    HW141319   0.806   0.150   5.168
 9897SOL    HW241320   0.702   0.127   5.275
 9898SOL     OW41321   2.521   1.155   1.603
 9898SOL    HW141322   2.453   1.210   1.565
 9898SOL    HW241323   2.557   1.208   1.674
 9899SOL     OW41324   3.320   4.053   6.083
 9899SOL    HW141325   3.356   4.135   6.118
 9899SOL    HW241326   3.393   3.992   6.086
 9900SOL     OW41327   3.445   2.577  18.789
 9900SOL    HW141328   3.469   2.549  18.877
 9900SOL    HW241329   3.441   2.496  18.738
 9901SOL     OW41330   4.298   1.357  11.236
 9901SOL    HW141331   4.282   1.298  11.309
 9901SOL    HW241332   4.222   1.416  11.236
 9902SOL     OW41333   1.825   2.320   2.149
 9902SOL    HW141334   1.774   2.240   2.138
 9902SOL    HW241335   1.916   2.293   2.138
 9903SOL     OW41336   0.135   0.524   2.981
 9903SOL    HW141337   0.219   0.563   3.005
 9903SOL    HW241338   0.151   0.430   2.983
 9904SOL     OW41339   0.298   4.391  26.422
 9904SOL    HW141340   0.330   4.345  26.344
 9904SOL    HW241341   0.261   4.472  26.388
 9905SOL     OW41342   3.447   1.695  24.821
 9905SOL    HW141343   3.461   1.710  24.914
 9905SOL    HW241344   3.383   1.761  24.795
 9906SOL     OW41345   2.284   4.085   5.706
 9906SOL    HW141346   2.229   4.029   5.760
 9906SOL    HW241347   2.335   4.137   5.769
 9907SOL     OW41348   3.729   0.818   8.900
 9907SOL    HW141349   3.746   0.755   8.970
 9907SOL    HW241350   3.738   0.904   8.941
 9908SOL     OW41351   0.261   0.155  20.351
 9908SOL    HW141352   0.271   0.062  20.370
 9908SOL    HW241353   0.288   0.164  20.260
 9909SOL     OW41354   2.327   2.560  21.595
 9909SOL    HW141355   2.418   2.573  21.623
 9909SOL    HW241356   2.282   2.639  21.624
 9910SOL     OW41357   2.728   2.848   5.134
 9910SOL    HW141358   2.799   2.807   5.183
 9910SOL    HW241359   2.695   2.916   5.192
 9911SOL     OW41360   1.159   1.992  22.165
 9911SOL    HW141361   1.157   1.955  22.077
 9911SOL    HW241362   1.148   2.086  22.151
 9912SOL     OW41363   4.247   3.872  27.509
 9912SOL    HW141364   4.279   3.783  27.492
 9912SOL    HW241365   4.296   3.927  27.449
 9913SOL     OW41366   1.984   2.805  20.191
 9913SOL    HW141367   1.895   2.838  20.205
 9913SOL    HW241368   1.981   2.714  20.222
 9914SOL     OW41369   4.655   2.435   1.896
 9914SOL    HW141370   4.723   2.372   1.920
 9914SOL    HW241371   4.681   2.517   1.938
 9915SOL     OW41372   4.726   2.587  25.823
 9915SOL    HW141373   0.001   2.592  25.745
 9915SOL    HW241374   4.753   2.662  25.876
 9916SOL     OW41375   0.311   4.174   5.665
 9916SOL    HW141376   0.365   4.233   5.717
 9916SOL    HW241377   0.223   4.184   5.700
 9917SOL     OW41378   2.052   0.227   7.186
 9917SOL    HW141379   2.110   0.290   7.229
 9917SOL    HW241380   2.046   0.259   7.096
 9918SOL     OW41381   3.453   0.383   4.008
 9918SOL    HW141382   3.452   0.301   4.058
 9918SOL    HW241383   3.486   0.358   3.922
 9919SOL     OW41384   0.685   0.447   2.294
 9919SOL    HW141385   0.663   0.539   2.280
 9919SOL    HW241386   0.700   0.412   2.206
 9920SOL     OW41387   1.434   4.110   9.643
 9920SOL    HW141388   1.356   4.159   9.618
 9920SOL    HW241389   1.503   4.176   9.647
 9921SOL     OW41390   4.497   3.134   1.228
 9921SOL    HW141391   4.526   3.054   1.185
 9921SOL    HW241392   4.454   3.184   1.159
 9922SOL     OW41393   4.233   3.781   2.904
 9922SOL    HW141394   4.297   3.772   2.834
 9922SOL    HW241395   4.203   3.692   2.921
 9923SOL     OW41396   1.706   2.862  24.110
 9923SOL    HW141397   1.789   2.910  24.110
 9923SOL    HW241398   1.732   2.770  24.106
 9924SOL     OW41399   2.533   1.261  20.943
 9924SOL    HW141400   2.564   1.347  20.972
 9924SOL    HW241401   2.610   1.219  20.904
 9925SOL     OW41402   3.783   2.032   0.783
 9925SOL    HW141403   3.876   2.015   0.801
 9925SOL    HW241404   3.781   2.121   0.747
 9926SOL     OW41405   2.380   0.768  25.350
 9926SOL    HW141406   2.322   0.799  25.420
 9926SOL    HW241407   2.374   0.673  25.356
 9927SOL     OW41408   4.437   2.051  21.497
 9927SOL    HW141409   4.525   2.066  21.463
 9927SOL    HW241410   4.405   1.974  21.450
 9928SOL     OW41411   3.242   1.886   9.416
 9928SOL    HW141412   3.178   1.859   9.482
 9928SOL    HW241413   3.249   1.810   9.358
 9929SOL     OW41414   4.256   2.498   5.801
 9929SOL    HW141415   4.279   2.565   5.737
 9929SOL    HW241416   4.196   2.440   5.755
 9930SOL     OW41417   4.415   1.242  23.900
 9930SOL    HW141418   4.441   1.316  23.955
 9930SOL    HW241419   4.422   1.276  23.811
 9931SOL     OW41420   4.284   4.181  16.749
 9931SOL    HW141421   4.301   4.259  16.695
 9931SOL    HW241422   4.217   4.133  16.701
 9932SOL     OW41423   3.279   1.099   3.731
 9932SOL    HW141424   3.228   1.025   3.698
 9932SOL    HW241425   3.370   1.077   3.712
 9933SOL     OW41426   4.069   3.215   1.760
 9933SOL    HW141427   4.013   3.262   1.698
 9933SOL    HW241428   4.066   3.268   1.840
 9934SOL     OW41429   1.781   4.779  23.501
 9934SOL    HW141430   1.840   4.703  23.501
 9934SOL    HW241431   1.735   4.773  23.585
 9935SOL     OW41432   0.107   0.475   7.447
 9935SOL    HW141433   0.089   0.499   7.538
 9935SOL    HW241434   0.178   0.534   7.421
 9936SOL     OW41435   1.081   0.530  22.748
 9936SOL    HW141436   1.082   0.581  22.667
 9936SOL    HW241437   1.035   0.449  22.725
 9937SOL     OW41438   1.107   0.687   4.989
 9937SOL    HW141439   1.047   0.740   4.937
 9937SOL    HW241440   1.098   0.721   5.078
 9938SOL     OW41441   0.899   2.425  25.395
 9938SOL    HW141442   0.954   2.351  25.369
 9938SOL    HW241443   0.961   2.496  25.411
 9939SOL     OW41444   2.403   0.059  26.564
 9939SOL    HW141445   2.358   0.087  26.644
 9939SOL    HW241446   2.347   0.090  26.493
 9940SOL     OW41447   2.343   3.111  27.592
 9940SOL    HW141448   2.284   3.140  27.522
 9940SOL    HW241449   2.421   3.080  27.546
 9941SOL     OW41450   1.551   1.630  18.829
 9941SOL    HW141451   1.484   1.660  18.890
 9941SOL    HW241452   1.507   1.628  18.744
 9942SOL     OW41453   2.994   3.545  27.617
 9942SOL    HW141454   2.937   3.472  27.641
 9942SOL    HW241455   2.995   3.601  27.694
 9943SOL     OW41456   3.338   1.605   1.991
 9943SOL    HW141457   3.335   1.592   1.896
 9943SOL    HW241458   3.336   1.700   2.003
 9944SOL     OW41459   0.858   3.219   5.637
 9944SOL    HW141460   0.858   3.161   5.561
 9944SOL    HW241461   0.798   3.290   5.614
 9945SOL     OW41462   4.668   1.937  21.211
 9945SOL    HW141463   4.645   1.846  21.229
 9945SOL    HW241464   4.671   1.943  21.115
 9946SOL     OW41465   4.363   4.360   6.247
 9946SOL    HW141466   4.363   4.456   6.251
 9946SOL    HW241467   4.315   4.339   6.167
 9947SOL     OW41468   3.447   1.544   3.533
 9947SOL    HW141469   3.373   1.492   3.564
 9947SOL    HW241470   3.491   1.572   3.613
 9948SOL     OW41471   0.178   0.492   0.416
 9948SOL    HW141472   0.248   0.554   0.394
 9948SOL    HW241473   0.163   0.442   0.335
 9949SOL     OW41474   2.350   3.471  24.541
 9949SOL    HW141475   2.403   3.422  24.603
 9949SOL    HW241476   2.375   3.436  24.455
 9950SOL     OW41477   4.194   2.326   4.678
 9950SOL    HW141478   4.117   2.287   4.637
 9950SOL    HW241479   4.251   2.251   4.697
 9951SOL     OW41480   3.344   3.295  18.480
 9951SOL    HW141481   3.371   3.234  18.548
 9951SOL    HW241482   3.413   3.361  18.478
 9952SOL     OW41483   1.907   0.209  21.393
 9952SOL    HW141484   1.832   0.160  21.427
 9952SOL    HW241485   1.869   0.289  21.356
 9953SOL     OW41486   4.604   3.709  23.970
 9953SOL    HW141487   4.682   3.656  23.954
 9953SOL    HW241488   4.612   3.737  24.061
 9954SOL     OW41489   0.120   4.343  27.434
 9954SOL    HW141490   0.164   4.315  27.354
 9954SOL    HW241491   0.030   4.312  27.424
 9955SOL     OW41492   1.732   2.084  27.184
 9955SOL    HW141493   1.731   2.131  27.267
 9955SOL    HW241494   1.732   2.153  27.117
 9956SOL     OW41495   0.923   0.801  12.802
 9956SOL    HW141496   0.963   0.748  12.871
 9956SOL    HW241497   0.989   0.805  12.733
 9957SOL     OW41498   2.388   2.755  26.415
 9957SOL    HW141499   2.425   2.760  26.327
 9957SOL    HW241500   2.446   2.809  26.469
 9958SOL     OW41501   1.786   3.349   8.250
 9958SOL    HW141502   1.713   3.410   8.262
 9958SOL    HW241503   1.772   3.281   8.315
 9959SOL     OW41504   4.554   3.033   2.671
 9959SOL    HW141505   4.493   3.038   2.597
 9959SOL    HW241506   4.633   3.078   2.641
 9960SOL     OW41507   1.638   0.128  27.236
 9960SOL    HW141508   1.627   0.057  27.299
 9960SOL    HW241509   1.654   0.084  27.152
 9961SOL     OW41510   4.077   4.762   1.190
 9961SOL    HW141511   4.020   4.714   1.130
 9961SOL    HW241512   4.154   4.706   1.199
 9962SOL     OW41513   0.042   0.068  28.121
 9962SOL    HW141514   0.083   4.776  28.074
 9962SOL    HW241515   0.070   0.057  28.212
 9963SOL     OW41516   4.739   0.636  24.957
 9963SOL    HW141517   4.667   0.692  24.929
 9963SOL    HW241518   4.697   0.554  24.984
 9964SOL     OW41519   0.818   3.812   4.377
 9964SOL    HW141520   0.856   3.793   4.463
 9964SOL    HW241521   0.837   3.905   4.363
 9965SOL     OW41522   1.598   3.373   0.084
 9965SOL    HW141523   1.658   3.399   0.154
 9965SOL    HW241524   1.626   3.285   0.059
 9966SOL     OW41525   4.668   0.793  18.680
 9966SOL    HW141526   4.591   0.832  18.722
 9966SOL    HW241527   4.665   0.701  18.704
 9967SOL     OW41528   3.999   4.725   6.830
 9967SOL    HW141529   3.971   0.029   6.795
 9967SOL    HW241530   3.948   4.660   6.782
 9968SOL     OW41531   2.442   2.185  24.387
 9968SOL    HW141532   2.475   2.271  24.361
 9968SOL    HW241533   2.519   2.139  24.421
 9969SOL     OW41534   0.023   0.611  27.144
 9969SOL    HW141535   0.065   0.692  27.114
 9969SOL    HW241536   0.090   0.543  27.132
 9970SOL     OW41537   2.395   2.614   3.310
 9970SOL    HW141538   2.485   2.582   3.313
 9970SOL    HW241539   2.367   2.617   3.402
 9971SOL     OW41540   1.723   1.351   2.614
 9971SOL    HW141541   1.792   1.285   2.621
 9971SOL    HW241542   1.681   1.333   2.530
 9972SOL     OW41543   1.430   4.585  23.514
 9972SOL    HW141544   1.399   4.518  23.575
 9972SOL    HW241545   1.489   4.640  23.566
 9973SOL     OW41546   3.142   4.521   0.228
 9973SOL    HW141547   3.230   4.498   0.257
 9973SOL    HW241548   3.137   4.616   0.238
 9974SOL     OW41549   0.715   0.714   5.793
 9974SOL    HW141550   0.682   0.780   5.853
 9974SOL    HW241551   0.748   0.644   5.850
 9975SOL     OW41552   4.244   1.385   4.406
 9975SOL    HW141553   4.224   1.399   4.499
 9975SOL    HW241554   4.236   1.472   4.367
 9976SOL     OW41555   4.649   4.026  19.924
 9976SOL    HW141556   4.664   4.082  20.001
 9976SOL    HW241557   4.583   4.073  19.873
 9977SOL     OW41558   1.727   0.624  25.397
 9977SOL    HW141559   1.820   0.614  25.415
 9977SOL    HW241560   1.723   0.695  25.333
 9978SOL     OW41561   0.765   1.295   4.525
 9978SOL    HW141562   0.691   1.354   4.539
 9978SOL    HW241563   0.821   1.308   4.602
 9979SOL     OW41564   1.131   0.338  24.816
 9979SOL    HW141565   1.211   0.316  24.864
 9979SOL    HW241566   1.106   0.424  24.849
 9980SOL     OW41567   2.600   4.754  26.983
 9980SOL    HW141568   2.541   4.683  27.008
 9980SOL    HW241569   2.632   4.730  26.896
 9981SOL     OW41570   1.632   2.330  24.964
 9981SOL    HW141571   1.541   2.300  24.957
 9981SOL    HW241572   1.653   2.323  25.057
 9982SOL     OW41573   2.357   1.909   1.022
 9982SOL    HW141574   2.269   1.880   0.998
 9982SOL    HW241575   2.356   2.003   1.006
 9983SOL     OW41576   1.848   0.880   9.671
 9983SOL    HW141577   1.759   0.884   9.707
 9983SOL    HW241578   1.884   0.967   9.686
 9984SOL     OW41579   1.436   1.084   7.464
 9984SOL    HW141580   1.438   1.002   7.513
 9984SOL    HW241581   1.423   1.057   7.373
 9985SOL     OW41582   1.002   4.530  23.270
 9985SOL    HW141583   1.064   4.577  23.326
 9985SOL    HW241584   1.017   4.438  23.290
 9986SOL     OW41585   1.585   3.826  28.261
 9986SOL    HW141586   1.551   3.790  28.343
 9986SOL    HW241587   1.508   3.864  28.218
 9987SOL     OW41588   3.476   3.010   1.301
 9987SOL    HW141589   3.499   2.989   1.211
 9987SOL    HW241590   3.498   2.931   1.351
 9988SOL     OW41591   2.965   3.196  10.398
 9988SOL    HW141592   2.966   3.261  10.328
 9988SOL    HW241593   2.921   3.239  10.471
 9989SOL     OW41594   0.330   4.633   9.010
 9989SOL    HW141595   0.296   4.611   9.097
 9989SOL    HW241596   0.369   4.720   9.021
 9990SOL     OW41597   0.316   2.704  27.008
 9990SOL    HW141598   0.391   2.719  26.951
 9990SOL    HW241599   0.333   2.759  27.084
 9991SOL     OW41600   2.515   4.072  25.231
 9991SOL    HW141601   2.475   3.992  25.196
 9991SOL    HW241602   2.477   4.142  25.179
 9992SOL     OW41603   4.201   3.086  27.503
 9992SOL    HW141604   4.242   3.138  27.434
 9992SOL    HW241605   4.202   2.996  27.469
 9993SOL     OW41606   2.253   0.910  27.050
 9993SOL    HW141607   2.255   0.999  27.086
 9993SOL    HW241608   2.228   0.922  26.958
 9994SOL     OW41609   3.142   3.397  16.331
 9994SOL    HW141610   3.225   3.350  16.331
 9994SOL    HW241611   3.094   3.360  16.257
 9995SOL     OW41612   2.820   4.041   9.264
 9995SOL    HW141613   2.725   4.030   9.256
 9995SOL    HW241614   2.835   4.054   9.358
 9996SOL     OW41615   1.205   3.064   6.412
 9996SOL    HW141616   1.208   3.152   6.449
 9996SOL    HW241617   1.261   3.012   6.469
 9997SOL     OW41618   2.772   4.386  21.211
 9997SOL    HW141619   2.743   4.420  21.127
 9997SOL    HW241620   2.863   4.414  21.218
 9998SOL     OW41621   1.904   4.519  22.480
 9998SOL    HW141622   1.908   4.607  22.443
 9998SOL    HW241623   1.823   4.482  22.445
 9999SOL     OW41624   0.419   1.929   4.306
 9999SOL    HW141625   0.488   1.977   4.261
 9999SOL    HW241626   0.442   1.935   4.399
10000SOL     OW41627   4.169   2.423   6.055
10000SOL    HW141628   4.119   2.350   6.019
10000SOL    HW241629   4.205   2.467   5.978
10001SOL     OW41630   1.974   4.362  25.997
10001SOL    HW141631   1.939   4.275  25.978
10001SOL    HW241632   1.898   4.412  26.028
10002SOL     OW41633   3.300   3.383   0.511
10002SOL    HW141634   3.240   3.337   0.452
10002SOL    HW241635   3.317   3.320   0.581
10003SOL     OW41636   0.755   2.351  19.740
10003SOL    HW141637   0.721   2.420  19.684
10003SOL    HW241638   0.718   2.270  19.704
10004SOL     OW41639   3.189   3.109   2.113
10004SOL    HW141640   3.136   3.179   2.074
10004SOL    HW241641   3.214   3.054   2.039
10005SOL     OW41642   3.221   0.260  18.920
10005SOL    HW141643   3.128   0.238  18.914
10005SOL    HW241644   3.242   0.297  18.834
10006SOL     OW41645   0.144   4.550  21.792
10006SOL    HW141646   0.079   4.483  21.814
10006SOL    HW241647   0.225   4.501  21.776
10007SOL     OW41648   2.229   4.119   4.194
10007SOL    HW141649   2.217   4.104   4.100
10007SOL    HW241650   2.140   4.119   4.230
10008SOL     OW41651   1.574   4.214   3.513
10008SOL    HW141652   1.493   4.263   3.525
10008SOL    HW241653   1.643   4.279   3.528
10009SOL     OW41654   2.470   3.059  25.583
10009SOL    HW141655   2.456   3.148  25.552
10009SOL    HW241656   2.553   3.032  25.543
10010SOL     OW41657   3.981   0.462   1.607
10010SOL    HW141658   3.987   0.369   1.629
10010SOL    HW241659   3.964   0.463   1.513
10011SOL     OW41660   0.533   3.444   4.656
10011SOL    HW141661   0.458   3.421   4.711
10011SOL    HW241662   0.547   3.367   4.601
10012SOL     OW41663   0.073   1.831   4.517
10012SOL    HW141664   0.065   1.745   4.476
10012SOL    HW241665   0.077   1.892   4.444
10013SOL     OW41666   4.320   4.750  27.904
10013SOL    HW141667   4.371   4.761  27.824
10013SOL    HW241668   4.237   0.013  27.886
10014SOL     OW41669   3.141   2.197   7.851
10014SOL    HW141670   3.222   2.238   7.881
10014SOL    HW241671   3.074   2.262   7.869
10015SOL     OW41672   2.492   3.680  10.912
10015SOL    HW141673   2.568   3.739  10.910
10015SOL    HW241674   2.471   3.671  11.005
10016SOL     OW41675   4.009   0.476   0.377
10016SOL    HW141676   4.030   0.439   0.291
10016SOL    HW241677   4.080   0.446   0.434
10017SOL     OW41678   4.636   3.049  22.664
10017SOL    HW141679   4.613   3.135  22.700
10017SOL    HW241680   4.651   3.066  22.571
10018SOL     OW41681   2.784   0.938   7.919
10018SOL    HW141682   2.846   1.010   7.912
10018SOL    HW241683   2.705   0.978   7.955
10019SOL     OW41684   0.824   0.921  22.710
10019SOL    HW141685   0.759   0.860  22.744
10019SOL    HW241686   0.841   0.891  22.621
10020SOL     OW41687   0.360   1.523   3.414
10020SOL    HW141688   0.294   1.514   3.482
10020SOL    HW241689   0.430   1.463   3.441
10021SOL     OW41690   4.243   4.727  25.047
10021SOL    HW141691   4.267   0.018  25.107
10021SOL    HW241692   4.307   4.658  25.066
10022SOL     OW41693   0.539   1.430   7.754
10022SOL    HW141694   0.500   1.348   7.724
10022SOL    HW241695   0.630   1.426   7.725
10023SOL     OW41696   3.857   2.382   0.355
10023SOL    HW141697   3.903   2.311   0.401
10023SOL    HW241698   3.924   2.422   0.300
10024SOL     OW41699   0.045   4.281  24.768
10024SOL    HW141700   0.047   4.232  24.686
10024SOL    HW241701   0.101   4.357  24.752
10025SOL     OW41702   4.067   3.387  10.887
10025SOL    HW141703   4.034   3.391  10.797
10025SOL    HW241704   4.067   3.478  10.917
10026SOL     OW41705   0.835   0.346   0.864
10026SOL    HW141706   0.811   0.439   0.865
10026SOL    HW241707   0.763   0.302   0.908
10027SOL     OW41708   3.006   3.809  22.550
10027SOL    HW141709   3.019   3.836  22.641
10027SOL    HW241710   3.087   3.764  22.526
10028SOL     OW41711   2.341   1.346  18.293
10028SOL    HW141712   2.331   1.438  18.318
10028SOL    HW241713   2.253   1.310  18.300
10029SOL     OW41714   0.183   0.421  21.899
10029SOL    HW141715   0.129   0.500  21.893
10029SOL    HW241716   0.250   0.442  21.964
10030SOL     OW41717   1.476   4.185  23.529
10030SOL    HW141718   1.400   4.229  23.491
10030SOL    HW241719   1.534   4.168  23.454
10031SOL     OW41720   0.491   4.101  27.640
10031SOL    HW141721   0.567   4.151  27.671
10031SOL    HW241722   0.417   4.161  27.649
10032SOL     OW41723   1.184   2.001  26.938
10032SOL    HW141724   1.230   1.940  26.880
10032SOL    HW241725   1.168   2.078  26.884
10033SOL     OW41726   4.436   0.188  21.801
10033SOL    HW141727   4.489   0.171  21.723
10033SOL    HW241728   4.488   0.250  21.853
10034SOL     OW41729   3.875   0.918  26.482
10034SOL    HW141730   3.796   0.936  26.430
10034SOL    HW241731   3.851   0.845  26.539
10035SOL     OW41732   0.375   1.694  21.043
10035SOL    HW141733   0.369   1.617  21.100
10035SOL    HW241734   0.413   1.661  20.962
10036SOL     OW41735   3.442   2.687  17.626
10036SOL    HW141736   3.408   2.767  17.586
10036SOL    HW241737   3.515   2.661  17.570
10037SOL     OW41738   0.488   1.323  18.870
10037SOL    HW141739   0.527   1.321  18.782
10037SOL    HW241740   0.561   1.306  18.929
10038SOL     OW41741   2.704   4.211   8.075
10038SOL    HW141742   2.797   4.206   8.054
10038SOL    HW241743   2.689   4.138   8.136
10039SOL     OW41744   0.729   4.446  19.391
10039SOL    HW141745   0.670   4.508  19.349
10039SOL    HW241746   0.693   4.435  19.479
10040SOL     OW41747   2.703   4.572   3.714
10040SOL    HW141748   2.745   4.657   3.728
10040SOL    HW241749   2.744   4.538   3.635
10041SOL     OW41750   1.504   3.095   1.914
10041SOL    HW141751   1.596   3.102   1.890
10041SOL    HW241752   1.494   3.005   1.945
10042SOL     OW41753   0.284   1.824   6.114
10042SOL    HW141754   0.351   1.756   6.122
10042SOL    HW241755   0.236   1.820   6.197
10043SOL     OW41756   2.844   1.142  24.109
10043SOL    HW141757   2.818   1.104  24.193
10043SOL    HW241758   2.764   1.143  24.057
10044SOL     OW41759   0.636   2.601  10.133
10044SOL    HW141760   0.575   2.645  10.192
10044SOL    HW241761   0.581   2.571  10.060
10045SOL     OW41762   3.650   1.289   4.393
10045SOL    HW141763   3.670   1.197   4.375
10045SOL    HW241764   3.733   1.327   4.421
10046SOL     OW41765   2.417   0.088  20.173
10046SOL    HW141766   2.479   0.092  20.100
10046SOL    HW241767   2.466   0.047  20.244
10047SOL     OW41768   1.165   2.681  11.767
10047SOL    HW141769   1.246   2.700  11.815
10047SOL    HW241770   1.188   2.607  11.710
10048SOL     OW41771   2.772   4.736   0.251
10048SOL    HW141772   2.772   4.641   0.260
10048SOL    HW241773   2.860   4.757   0.220
10049SOL     OW41774   2.271   1.528  25.019
10049SOL    HW141775   2.208   1.574  25.074
10049SOL    HW241776   2.220   1.460  24.975
10050SOL     OW41777   2.320   1.016   5.599
10050SOL    HW141778   2.273   1.017   5.683
10050SOL    HW241779   2.410   0.992   5.622
10051SOL     OW41780   0.958   2.602   6.935
10051SOL    HW141781   0.892   2.535   6.953
10051SOL    HW241782   1.008   2.567   6.862
10052SOL     OW41783   2.566   4.721   4.111
10052SOL    HW141784   2.641   4.779   4.098
10052SOL    HW241785   2.597   4.656   4.174
10053SOL     OW41786   3.671   3.621   8.710
10053SOL    HW141787   3.669   3.687   8.640
10053SOL    HW241788   3.623   3.547   8.675
10054SOL     OW41789   0.708   0.325   4.452
10054SOL    HW141790   0.669   0.253   4.502
10054SOL    HW241791   0.752   0.379   4.518
10055SOL     OW41792   2.011   1.278  23.515
10055SOL    HW141793   2.087   1.244  23.562
10055SOL    HW241794   2.048   1.324  23.440
10056SOL     OW41795   2.937   2.439  21.319
10056SOL    HW141796   2.949   2.344  21.315
10056SOL    HW241797   2.844   2.452  21.302
10057SOL     OW41798   1.130   4.591   8.491
10057SOL    HW141799   1.056   4.579   8.432
10057SOL    HW241800   1.095   4.572   8.578
10058SOL     OW41801   2.349   3.659   0.085
10058SOL    HW141802   2.389   3.581   0.047
10058SOL    HW241803   2.255   3.643   0.080
10059SOL     OW41804   0.618   1.768   0.201
10059SOL    HW141805   0.640   1.707   0.131
10059SOL    HW241806   0.637   1.854   0.164
10060SOL     OW41807   3.542   4.026   7.378
10060SOL    HW141808   3.604   4.095   7.352
10060SOL    HW241809   3.540   4.030   7.474
10061SOL     OW41810   3.499   1.736  20.715
10061SOL    HW141811   3.548   1.818  20.709
10061SOL    HW241812   3.433   1.753  20.782
10062SOL     OW41813   4.464   4.030   4.222
10062SOL    HW141814   4.371   4.045   4.206
10062SOL    HW241815   4.470   3.937   4.243
10063SOL     OW41816   3.948   3.266   1.154
10063SOL    HW141817   3.978   3.176   1.143
10063SOL    HW241818   4.025   3.319   1.136
10064SOL     OW41819   2.086   1.681   5.042
10064SOL    HW141820   1.996   1.650   5.052
10064SOL    HW241821   2.100   1.684   4.947
10065SOL     OW41822   4.728   3.070  18.430
10065SOL    HW141823   0.004   3.001  18.465
10065SOL    HW241824   4.762   3.086  18.342
10066SOL     OW41825   1.609   1.076   3.774
10066SOL    HW141826   1.534   1.076   3.715
10066SOL    HW241827   1.678   1.031   3.725
10067SOL     OW41828   3.753   1.321  20.043
10067SOL    HW141829   3.774   1.412  20.062
10067SOL    HW241830   3.790   1.271  20.116
10068SOL     OW41831   4.322   2.748   4.049
10068SOL    HW141832   4.262   2.729   3.977
10068SOL    HW241833   4.407   2.760   4.006
10069SOL     OW41834   4.141   1.767   5.051
10069SOL    HW141835   4.054   1.801   5.070
10069SOL    HW241836   4.129   1.673   5.041
10070SOL     OW41837   3.945   0.430   3.255
10070SOL    HW141838   3.991   0.385   3.184
10070SOL    HW241839   3.994   0.407   3.334
10071SOL     OW41840   0.216   4.680  24.012
10071SOL    HW141841   0.165   4.738  24.068
10071SOL    HW241842   0.151   4.627  23.967
10072SOL     OW41843   2.863   3.780  28.394
10072SOL    HW141844   2.853   3.867  28.434
10072SOL    HW241845   2.947   3.748  28.428
10073SOL     OW41846   1.744   0.035  26.456
10073SOL    HW141847   1.805   0.045  26.529
10073SOL    HW241848   1.659   0.019  26.498
10074SOL     OW41849   1.623   2.279   0.311
10074SOL    HW141850   1.541   2.315   0.277
10074SOL    HW241851   1.690   2.310   0.250
10075SOL     OW41852   3.196   1.712   5.359
10075SOL    HW141853   3.112   1.752   5.380
10075SOL    HW241854   3.209   1.729   5.266
10076SOL     OW41855   3.903   0.221   2.603
10076SOL    HW141856   3.952   0.261   2.675
10076SOL    HW241857   3.849   0.155   2.645
10077SOL     OW41858   3.504   3.703  26.674
10077SOL    HW141859   3.507   3.733  26.765
10077SOL    HW241860   3.594   3.680  26.653
10078SOL     OW41861   4.062   4.055   8.153
10078SOL    HW141862   4.106   4.024   8.073
10078SOL    HW241863   4.118   4.024   8.224
10079SOL     OW41864   0.740   0.432   8.584
10079SOL    HW141865   0.830   0.399   8.580
10079SOL    HW241866   0.687   0.355   8.606
10080SOL     OW41867   3.062   4.524   3.374
10080SOL    HW141868   3.115   4.591   3.331
10080SOL    HW241869   3.032   4.468   3.303
10081SOL     OW41870   2.770   3.188   8.330
10081SOL    HW141871   2.781   3.101   8.368
10081SOL    HW241872   2.795   3.178   8.238
10082SOL     OW41873   2.696   0.651  25.572
10082SOL    HW141874   2.675   0.562  25.544
10082SOL    HW241875   2.787   0.646  25.601
10083SOL     OW41876   4.680   1.671  28.174
10083SOL    HW141877   4.651   1.761  28.188
10083SOL    HW241878   4.672   1.658  28.080
10084SOL     OW41879   1.006   4.136  25.315
10084SOL    HW141880   0.911   4.150  25.319
10084SOL    HW241881   1.039   4.212  25.267
10085SOL     OW41882   0.637   0.598  21.256
10085SOL    HW141883   0.554   0.551  21.248
10085SOL    HW241884   0.683   0.554  21.328
10086SOL     OW41885   1.945   3.098   3.617
10086SOL    HW141886   1.873   3.114   3.678
10086SOL    HW241887   1.993   3.181   3.614
10087SOL     OW41888   0.568   3.185   7.983
10087SOL    HW141889   0.655   3.213   7.956
10087SOL    HW241890   0.584   3.128   8.059
10088SOL     OW41891   0.134   4.537  25.252
10088SOL    HW141892   0.095   4.594  25.185
10088SOL    HW241893   0.217   4.579  25.274
10089SOL     OW41894   0.794   1.022  23.508
10089SOL    HW141895   0.742   1.051  23.583
10089SOL    HW241896   0.859   0.963  23.546
10090SOL     OW41897   2.622   0.626   8.463
10090SOL    HW141898   2.603   0.541   8.422
10090SOL    HW241899   2.652   0.681   8.391
10091SOL     OW41900   0.192   2.042   7.075
10091SOL    HW141901   0.137   2.069   7.149
10091SOL    HW241902   0.205   1.948   7.088
10092SOL     OW41903   3.217   3.986  26.445
10092SOL    HW141904   3.305   3.963  26.476
10092SOL    HW241905   3.217   4.082  26.442
10093SOL     OW41906   4.359   4.426   1.838
10093SOL    HW141907   4.402   4.351   1.796
10093SOL    HW241908   4.308   4.387   1.909
10094SOL     OW41909   3.534   1.834  23.990
10094SOL    HW141910   3.556   1.834  24.083
10094SOL    HW241911   3.452   1.882  23.985
10095SOL     OW41912   4.363   0.768   9.227
10095SOL    HW141913   4.424   0.702   9.193
10095SOL    HW241914   4.375   0.844   9.170
10096SOL     OW41915   3.456   3.713   7.763
10096SOL    HW141916   3.376   3.766   7.768
10096SOL    HW241917   3.457   3.679   7.674
10097SOL     OW41918   3.606   4.018   1.357
10097SOL    HW141919   3.621   3.961   1.282
10097SOL    HW241920   3.511   4.033   1.358
10098SOL     OW41921   0.371   2.227   3.422
10098SOL    HW141922   0.353   2.154   3.363
10098SOL    HW241923   0.335   2.199   3.506
10099SOL     OW41924   0.546   0.907   7.983
10099SOL    HW141925   0.519   0.828   7.936
10099SOL    HW241926   0.533   0.885   8.075
10100SOL     OW41927   3.559   3.460  18.491
10100SOL    HW141928   3.636   3.431  18.540
10100SOL    HW241929   3.568   3.555  18.487
10101SOL     OW41930   1.179   2.815  20.539
10101SOL    HW141931   1.096   2.835  20.496
10101SOL    HW241932   1.237   2.885  20.511
10102SOL     OW41933   2.401   2.203  24.101
10102SOL    HW141934   2.440   2.185  24.187
10102SOL    HW241935   2.409   2.121  24.053
10103SOL     OW41936   2.203   2.450  23.274
10103SOL    HW141937   2.209   2.543  23.254
10103SOL    HW241938   2.141   2.445  23.346
10104SOL     OW41939   3.826   4.198  21.582
10104SOL    HW141940   3.880   4.254  21.637
10104SOL    HW241941   3.813   4.118  21.634
10105SOL     OW41942   3.600   4.024  24.161
10105SOL    HW141943   3.562   4.068  24.085
10105SOL    HW241944   3.525   3.998  24.214
10106SOL     OW41945   2.091   1.242   7.038
10106SOL    HW141946   2.064   1.274   7.124
10106SOL    HW241947   2.010   1.240   6.987
10107SOL     OW41948   3.880   1.987   1.807
10107SOL    HW141949   3.956   1.955   1.856
10107SOL    HW241950   3.914   2.005   1.719
10108SOL     OW41951   2.160   0.064  12.523
10108SOL    HW141952   2.131   0.154  12.512
10108SOL    HW241953   2.086   0.020  12.566
10109SOL     OW41954   3.345   2.650  24.161
10109SOL    HW141955   3.423   2.619  24.207
10109SOL    HW241956   3.276   2.648  24.227
10110SOL     OW41957   3.073   0.840  26.332
10110SOL    HW141958   3.059   0.751  26.364
10110SOL    HW241959   3.010   0.894  26.380
10111SOL     OW41960   4.184   3.362   3.492
10111SOL    HW141961   4.236   3.334   3.568
10111SOL    HW241962   4.243   3.418   3.442
10112SOL     OW41963   3.224   2.541   8.110
10112SOL    HW141964   3.298   2.601   8.099
10112SOL    HW241965   3.254   2.458   8.074
10113SOL     OW41966   2.050   2.007   2.711
10113SOL    HW141967   2.005   1.995   2.794
10113SOL    HW241968   2.101   1.927   2.700
10114SOL     OW41969   4.604   3.775  23.016
10114SOL    HW141970   4.696   3.761  22.992
10114SOL    HW241971   4.582   3.859  22.976
10115SOL     OW41972   4.156   2.495   1.938
10115SOL    HW141973   4.222   2.564   1.926
10115SOL    HW241974   4.116   2.515   2.022
10116SOL     OW41975   2.748   3.072   6.794
10116SOL    HW141976   2.702   2.998   6.755
10116SOL    HW241977   2.687   3.145   6.787
10117SOL     OW41978   0.939   3.509  10.794
10117SOL    HW141979   0.886   3.437  10.828
10117SOL    HW241980   0.881   3.585  10.797
10118SOL     OW41981   0.445   3.125  19.003
10118SOL    HW141982   0.458   3.068  18.927
10118SOL    HW241983   0.446   3.214  18.967
10119SOL     OW41984   1.135   0.523   7.640
10119SOL    HW141985   1.197   0.490   7.575
10119SOL    HW241986   1.107   0.608   7.606
10120SOL     OW41987   2.613   0.005   6.064
10120SOL    HW141988   2.652   4.755   5.982
10120SOL    HW241989   2.629   0.099   6.065
10121SOL     OW41990   2.559   1.002   9.555
10121SOL    HW141991   2.511   1.067   9.503
10121SOL    HW241992   2.647   1.038   9.563
10122SOL     OW41993   3.375   1.361   5.940
10122SOL    HW141994   3.445   1.410   5.898
10122SOL    HW241995   3.295   1.391   5.897
10123SOL     OW41996   1.172   1.378   7.485
10123SOL    HW141997   1.239   1.440   7.457
10123SOL    HW241998   1.090   1.416   7.455
10124SOL     OW41999   0.919   2.762  25.846
10124SOL    HW142000   0.926   2.749  25.941
10124SOL    HW242001   0.829   2.739  25.825
10125SOL     OW42002   0.976   1.736   9.060
10125SOL    HW142003   0.991   1.812   9.116
10125SOL    HW242004   0.900   1.760   9.007
10126SOL     OW42005   1.374   1.631   3.752
10126SOL    HW142006   1.286   1.648   3.786
10126SOL    HW242007   1.380   1.536   3.748
10127SOL     OW42008   1.797   2.923   1.874
10127SOL    HW142009   1.774   2.832   1.855
10127SOL    HW242010   1.889   2.920   1.899
10128SOL     OW42011   1.881   2.250   0.462
10128SOL    HW142012   1.796   2.285   0.436
10128SOL    HW242013   1.869   2.221   0.552
10129SOL     OW42014   2.817   2.931  28.397
10129SOL    HW142015   2.780   2.843  28.393
10129SOL    HW242016   2.911   2.918  28.386
10130SOL     OW42017   2.159   2.865  24.033
10130SOL    HW142018   2.148   2.828  24.121
10130SOL    HW242019   2.230   2.814  23.994
10131SOL     OW42020   4.067   3.059   7.236
10131SOL    HW142021   4.058   3.143   7.281
10131SOL    HW242022   4.116   3.004   7.297
10132SOL     OW42023   3.388   4.726   0.803
10132SOL    HW142024   3.396   0.002   0.726
10132SOL    HW242025   3.409   0.003   0.877
10133SOL     OW42026   1.318   3.635  23.052
10133SOL    HW142027   1.406   3.669  23.068
10133SOL    HW242028   1.291   3.599  23.137
10134SOL     OW42029   3.652   4.715   0.710
10134SOL    HW142030   3.662   0.008   0.770
10134SOL    HW242031   3.581   4.663   0.747
10135SOL     OW42032   4.209   4.259  26.210
10135SOL    HW142033   4.239   4.168  26.215
10135SOL    HW242034   4.165   4.265  26.125
10136SOL     OW42035   2.786   3.391  23.929
10136SOL    HW142036   2.847   3.414  23.999
10136SOL    HW242037   2.842   3.368  23.854
10137SOL     OW42038   3.510   0.723  23.571
10137SOL    HW142039   3.457   0.675  23.508
10137SOL    HW242040   3.457   0.799  23.594
10138SOL     OW42041   4.266   4.546  24.386
10138SOL    HW142042   4.290   4.507  24.302
10138SOL    HW242043   4.253   4.639  24.367
10139SOL     OW42044   4.358   0.513   5.164
10139SOL    HW142045   4.354   0.595   5.213
10139SOL    HW242046   4.446   0.479   5.181
10140SOL     OW42047   3.319   2.433   4.761
10140SOL    HW142048   3.344   2.386   4.681
10140SOL    HW242049   3.224   2.440   4.755
10141SOL     OW42050   4.433   4.196  19.726
10141SOL    HW142051   4.480   4.169  19.647
10141SOL    HW242052   4.420   4.290  19.714
10142SOL     OW42053   2.376   3.653   7.667
10142SOL    HW142054   2.374   3.728   7.726
10142SOL    HW242055   2.309   3.594   7.702
10143SOL     OW42056   0.356   4.130   2.039
10143SOL    HW142057   0.419   4.133   1.967
10143SOL    HW242058   0.274   4.104   1.998
10144SOL     OW42059   0.922   3.842  21.644
10144SOL    HW142060   0.831   3.853  21.670
10144SOL    HW242061   0.959   3.783  21.710
10145SOL     OW42062   2.489   3.104  24.088
10145SOL    HW142063   2.510   3.169  24.021
10145SOL    HW242064   2.394   3.098  24.087
10146SOL     OW42065   3.938   3.076  27.813
10146SOL    HW142066   3.846   3.087  27.789
10146SOL    HW242067   3.966   3.162  27.844
10147SOL     OW42068   0.406   1.991   0.280
10147SOL    HW142069   0.416   2.080   0.315
10147SOL    HW242070   0.493   1.969   0.246
10148SOL     OW42071   2.522   0.710  23.410
10148SOL    HW142072   2.452   0.776  23.407
10148SOL    HW242073   2.603   0.761  23.411
10149SOL     OW42074   2.262   2.323  11.571
10149SOL    HW142075   2.307   2.386  11.516
10149SOL    HW242076   2.243   2.371  11.652
10150SOL     OW42077   0.774   4.201  26.385
10150SOL    HW142078   0.840   4.251  26.337
10150SOL    HW242079   0.799   4.110  26.372
10151SOL     OW42080   3.693   2.124   3.955
10151SOL    HW142081   3.752   2.124   4.031
10151SOL    HW242082   3.711   2.207   3.911
10152SOL     OW42083   3.118   2.224  25.843
10152SOL    HW142084   3.105   2.143  25.892
10152SOL    HW242085   3.049   2.222  25.776
10153SOL     OW42086   1.297   3.504  26.910
10153SOL    HW142087   1.255   3.494  26.825
10153SOL    HW242088   1.322   3.415  26.935
10154SOL     OW42089   3.835   2.277  25.755
10154SOL    HW142090   3.769   2.343  25.775
10154SOL    HW242091   3.872   2.254  25.840
10155SOL     OW42092   1.178   2.783  26.741
10155SOL    HW142093   1.100   2.838  26.748
10155SOL    HW242094   1.248   2.844  26.719
10156SOL     OW42095   3.089   1.664  23.159
10156SOL    HW142096   3.159   1.606  23.188
10156SOL    HW242097   3.127   1.752  23.165
10157SOL     OW42098   1.681   2.415   1.401
10157SOL    HW142099   1.658   2.328   1.433
10157SOL    HW242100   1.714   2.461   1.478
10158SOL     OW42101   2.030   4.762   6.867
10158SOL    HW142102   2.075   4.681   6.843
10158SOL    HW242103   1.959   4.734   6.924
10159SOL     OW42104   3.065   1.350   5.422
10159SOL    HW142105   3.124   1.309   5.359
10159SOL    HW242106   2.980   1.310   5.404
10160SOL     OW42107   3.515   1.725   2.701
10160SOL    HW142108   3.494   1.739   2.609
10160SOL    HW242109   3.515   1.630   2.712
10161SOL     OW42110   4.329   3.711   8.701
10161SOL    HW142111   4.257   3.744   8.755
10161SOL    HW242112   4.385   3.664   8.763
10162SOL     OW42113   2.325   4.160   0.014
10162SOL    HW142114   2.376   4.084   0.042
10162SOL    HW242115   2.234   4.134   0.027
10163SOL     OW42116   3.870   3.688   7.478
10163SOL    HW142117   3.908   3.773   7.501
10163SOL    HW242118   3.822   3.661   7.556
10164SOL     OW42119   1.277   0.218   5.064
10164SOL    HW142120   1.204   0.214   5.126
10164SOL    HW242121   1.326   0.296   5.090
10165SOL     OW42122   3.592   1.117  19.940
10165SOL    HW142123   3.637   1.194  19.975
10165SOL    HW242124   3.626   1.107  19.851
10166SOL     OW42125   0.641   2.061  20.409
10166SOL    HW142126   0.628   2.149  20.444
10166SOL    HW242127   0.666   2.009  20.485
10167SOL     OW42128   1.773   2.879   0.140
10167SOL    HW142129   1.700   2.940   0.126
10167SOL    HW242130   1.794   2.846   0.053
10168SOL     OW42131   1.842   4.610   5.752
10168SOL    HW142132   1.873   4.593   5.841
10168SOL    HW242133   1.872   4.535   5.701
10169SOL     OW42134   0.983   4.613  25.898
10169SOL    HW142135   1.047   4.555  25.856
10169SOL    HW242136   1.025   4.640  25.980
10170SOL     OW42137   2.417   4.129   1.695
10170SOL    HW142138   2.364   4.134   1.616
10170SOL    HW242139   2.494   4.182   1.675
10171SOL     OW42140   3.023   3.417  17.706
10171SOL    HW142141   3.019   3.380  17.794
10171SOL    HW242142   3.116   3.425  17.687
10172SOL     OW42143   1.264   2.919  19.654
10172SOL    HW142144   1.288   3.010  19.635
10172SOL    HW242145   1.346   2.871  19.647
10173SOL     OW42146   0.454   0.262  22.509
10173SOL    HW142147   0.478   0.326  22.576
10173SOL    HW242148   0.535   0.245  22.462
10174SOL     OW42149   1.973   2.744   8.541
10174SOL    HW142150   1.968   2.654   8.573
10174SOL    HW242151   1.949   2.739   8.449
10175SOL     OW42152   1.733   4.543   2.160
10175SOL    HW142153   1.652   4.575   2.199
10175SOL    HW242154   1.704   4.487   2.088
10176SOL     OW42155   4.678   3.916  20.743
10176SOL    HW142156   4.697   3.930  20.650
10176SOL    HW242157   4.657   3.823  20.749
10177SOL     OW42158   4.264   0.349  26.683
10177SOL    HW142159   4.211   0.425  26.657
10177SOL    HW242160   4.213   0.307  26.753
10178SOL     OW42161   0.454   0.127   7.858
10178SOL    HW142162   0.508   0.183   7.802
10178SOL    HW242163   0.477   0.152   7.947
10179SOL     OW42164   1.375   1.029   7.879
10179SOL    HW142165   1.379   1.028   7.975
10179SOL    HW242166   1.311   0.961   7.857
10180SOL     OW42167   2.288   3.489   3.185
10180SOL    HW142168   2.328   3.496   3.272
10180SOL    HW242169   2.201   3.452   3.201
10181SOL     OW42170   1.162   2.288  27.063
10181SOL    HW142171   1.217   2.319  26.991
10181SOL    HW242172   1.073   2.308  27.035
10182SOL     OW42173   0.225   2.546  10.217
10182SOL    HW142174   0.278   2.611  10.264
10182SOL    HW242175   0.174   2.597  10.154
10183SOL     OW42176   0.457   3.515  26.289
10183SOL    HW142177   0.504   3.583  26.241
10183SOL    HW242178   0.480   3.434  26.244
10184SOL     OW42179   1.277   1.268  21.134
10184SOL    HW142180   1.341   1.310  21.191
10184SOL    HW242181   1.199   1.258  21.189
10185SOL     OW42182   4.097   1.897  26.980
10185SOL    HW142183   4.086   1.980  27.026
10185SOL    HW242184   4.151   1.919  26.904
10186SOL     OW42185   3.968   1.950  18.121
10186SOL    HW142186   3.882   1.908  18.114
10186SOL    HW242187   3.971   2.011  18.047
10187SOL     OW42188   0.543   1.140  26.940
10187SOL    HW142189   0.626   1.179  26.967
10187SOL    HW242190   0.477   1.205  26.964
10188SOL     OW42191   2.078   3.086   7.248
10188SOL    HW142192   2.064   3.098   7.342
10188SOL    HW242193   2.017   3.147   7.207
10189SOL     OW42194   1.054   4.725  21.243
10189SOL    HW142195   0.993   4.658  21.274
10189SOL    HW242196   1.123   4.676  21.199
10190SOL     OW42197   3.844   1.008   0.665
10190SOL    HW142198   3.861   1.030   0.757
10190SOL    HW242199   3.749   1.000   0.660
10191SOL     OW42200   2.034   3.541   2.256
10191SOL    HW142201   2.092   3.488   2.201
10191SOL    HW242202   2.017   3.486   2.333
10192SOL     OW42203   4.642   4.565  21.484
10192SOL    HW142204   4.612   4.591  21.397
10192SOL    HW242205   4.732   4.535  21.470
10193SOL     OW42206   1.238   3.375  22.793
10193SOL    HW142207   1.172   3.367  22.862
10193SOL    HW242208   1.197   3.431  22.727
10194SOL     OW42209   1.274   3.669  24.949
10194SOL    HW142210   1.285   3.657  24.855
10194SOL    HW242211   1.297   3.761  24.964
10195SOL     OW42212   3.253   2.442  10.892
10195SOL    HW142213   3.193   2.391  10.946
10195SOL    HW242214   3.317   2.378  10.861
10196SOL     OW42215   1.720   2.888  20.268
10196SOL    HW142216   1.667   2.927  20.199
10196SOL    HW242217   1.669   2.812  20.298
10197SOL     OW42218   4.355   3.463  21.157
10197SOL    HW142219   4.412   3.508  21.095
10197SOL    HW242220   4.390   3.485  21.243
10198SOL     OW42221   2.502   3.799   4.433
10198SOL    HW142222   2.477   3.866   4.370
10198SOL    HW242223   2.508   3.846   4.516
10199SOL     OW42224   1.575   3.889   2.253
10199SOL    HW142225   1.636   3.881   2.179
10199SOL    HW242226   1.604   3.967   2.299
10200SOL     OW42227   3.757   0.419  23.573
10200SOL    HW142228   3.661   0.412  23.575
10200SOL    HW242229   3.781   0.391  23.485
10201SOL     OW42230   2.862   0.962   2.106
10201SOL    HW142231   2.905   0.972   2.191
10201SOL    HW242232   2.910   0.890   2.064
10202SOL     OW42233   2.671   1.687  26.206
10202SOL    HW142234   2.633   1.624  26.268
10202SOL    HW242235   2.615   1.764  26.212
10203SOL     OW42236   1.163   0.675   2.712
10203SOL    HW142237   1.200   0.658   2.626
10203SOL    HW242238   1.226   0.733   2.755
10204SOL     OW42239   4.487   2.169   8.016
10204SOL    HW142240   4.441   2.087   8.033
10204SOL    HW242241   4.530   2.156   7.931
10205SOL     OW42242   3.000   3.294   9.214
10205SOL    HW142243   3.026   3.268   9.302
10205SOL    HW242244   2.923   3.240   9.195
10206SOL     OW42245   4.279   4.596   0.219
10206SOL    HW142246   4.328   4.678   0.215
10206SOL    HW242247   4.206   4.609   0.158
10207SOL     OW42248   1.455   3.919   0.033
10207SOL    HW142249   1.516   3.987   0.005
10207SOL    HW242250   1.370   3.949   0.002
10208SOL     OW42251   1.676   1.290  25.337
10208SOL    HW142252   1.640   1.293  25.248
10208SOL    HW242253   1.659   1.201  25.367
10209SOL     OW42254   3.531   2.254   4.145
10209SOL    HW142255   3.444   2.218   4.162
10209SOL    HW242256   3.561   2.207   4.067
10210SOL     OW42257   0.785   3.668  21.888
10210SOL    HW142258   0.873   3.673  21.851
10210SOL    HW242259   0.795   3.616  21.968
10211SOL     OW42260   1.938   0.546  23.567
10211SOL    HW142261   1.875   0.502  23.623
10211SOL    HW242262   1.981   0.475  23.519
10212SOL     OW42263   1.105   1.350   5.309
10212SOL    HW142264   1.164   1.402   5.363
10212SOL    HW242265   1.151   1.267   5.297
10213SOL     OW42266   2.523   1.373  24.656
10213SOL    HW142267   2.503   1.292  24.702
10213SOL    HW242268   2.468   1.439  24.699
10214SOL     OW42269   0.892   3.700  24.010
10214SOL    HW142270   0.857   3.628  23.957
10214SOL    HW242271   0.961   3.659  24.063
10215SOL     OW42272   2.007   3.276   5.213
10215SOL    HW142273   1.987   3.358   5.257
10215SOL    HW242274   2.081   3.297   5.156
10216SOL     OW42275   3.165   4.080  23.596
10216SOL    HW142276   3.240   4.024  23.576
10216SOL    HW242277   3.191   4.167  23.564
10217SOL     OW42278   0.464   3.688  22.104
10217SOL    HW142279   0.530   3.624  22.130
10217SOL    HW242280   0.399   3.637  22.055
10218SOL     OW42281   4.102   2.080  17.330
10218SOL    HW142282   4.105   2.128  17.413
10218SOL    HW242283   4.131   2.144  17.264
10219SOL     OW42284   0.172   2.507   0.035
10219SOL    HW142285   0.179   2.415   0.011
10219SOL    HW242286   0.078   2.524   0.040
10220SOL     OW42287   2.132   0.105  22.016
10220SOL    HW142288   2.186   0.093  21.938
10220SOL    HW242289   2.142   0.023  22.065
10221SOL     OW42290   4.119   1.477  10.594
10221SOL    HW142291   4.033   1.462  10.633
10221SOL    HW242292   4.107   1.459  10.501
10222SOL     OW42293   3.139   3.763  23.790
10222SOL    HW142294   3.128   3.688  23.732
10222SOL    HW242295   3.050   3.790  23.813
10223SOL     OW42296   2.346   2.698   5.942
10223SOL    HW142297   2.356   2.720   5.849
10223SOL    HW242298   2.282   2.761   5.975
10224SOL     OW42299   4.430   1.955  26.074
10224SOL    HW142300   4.369   1.891  26.037
10224SOL    HW242301   4.389   2.040  26.057
10225SOL     OW42302   3.040   1.378   2.881
10225SOL    HW142303   3.067   1.361   2.791
10225SOL    HW242304   2.985   1.303   2.904
10226SOL     OW42305   2.726   1.859   4.550
10226SOL    HW142306   2.718   1.876   4.644
10226SOL    HW242307   2.795   1.793   4.543
10227SOL     OW42308   0.882   2.202   5.652
10227SOL    HW142309   0.882   2.293   5.681
10227SOL    HW242310   0.965   2.167   5.683
10228SOL     OW42311   3.302   4.566   3.839
10228SOL    HW142312   3.296   4.503   3.767
10228SOL    HW242313   3.305   4.651   3.795
10229SOL     OW42314   1.842   0.564   6.389
10229SOL    HW142315   1.816   0.614   6.311
10229SOL    HW242316   1.930   0.596   6.409
10230SOL     OW42317   0.898   4.052   7.022
10230SOL    HW142318   0.846   4.021   7.096
10230SOL    HW242319   0.838   4.049   6.947
10231SOL     OW42320   3.583   1.430   0.331
10231SOL    HW142321   3.648   1.360   0.338
10231SOL    HW242322   3.634   1.511   0.331
10232SOL     OW42323   2.778   2.652  25.408
10232SOL    HW142324   2.709   2.587  25.398
10232SOL    HW242325   2.849   2.606  25.452
10233SOL     OW42326   2.032   2.911   7.559
10233SOL    HW142327   2.124   2.893   7.576
10233SOL    HW242328   1.988   2.827   7.571
10234SOL     OW42329   4.071   1.158  20.042
10234SOL    HW142330   4.059   1.252  20.029
10234SOL    HW242331   4.101   1.151  20.133
10235SOL     OW42332   1.129   2.971   3.518
10235SOL    HW142333   1.101   2.942   3.431
10235SOL    HW242334   1.177   3.052   3.502
10236SOL     OW42335   2.109   1.588   8.663
10236SOL    HW142336   2.176   1.563   8.726
10236SOL    HW242337   2.105   1.683   8.669
10237SOL     OW42338   3.611   3.115   2.075
10237SOL    HW142339   3.592   3.022   2.089
10237SOL    HW242340   3.706   3.120   2.067
10238SOL     OW42341   0.994   4.033   3.359
10238SOL    HW142342   1.015   4.002   3.271
10238SOL    HW242343   1.000   4.128   3.353
10239SOL     OW42344   2.661   2.173  21.491
10239SOL    HW142345   2.679   2.260  21.526
10239SOL    HW242346   2.735   2.155  21.432
10240SOL     OW42347   2.830   2.968   8.628
10240SOL    HW142348   2.908   2.913   8.638
10240SOL    HW242349   2.803   2.955   8.537
10241SOL     OW42350   0.895   4.273  25.075
10241SOL    HW142351   0.973   4.323  25.099
10241SOL    HW242352   0.894   4.199  25.136
10242SOL     OW42353   1.529   2.071  23.976
10242SOL    HW142354   1.508   2.007  24.044
10242SOL    HW242355   1.540   2.019  23.897
10243SOL     OW42356   1.028   1.012   4.620
10243SOL    HW142357   1.069   1.061   4.691
10243SOL    HW242358   1.100   0.961   4.581
10244SOL     OW42359   2.074   1.314  18.977
10244SOL    HW142360   2.020   1.373  19.029
10244SOL    HW242361   2.012   1.251  18.940
10245SOL     OW42362   1.372   3.385   3.476
10245SOL    HW142363   1.456   3.429   3.490
10245SOL    HW242364   1.306   3.452   3.497
10246SOL     OW42365   4.666   1.043   6.756
10246SOL    HW142366   4.691   1.132   6.782
10246SOL    HW242367   4.730   1.018   6.690
10247SOL     OW42368   3.045   4.655  21.461
10247SOL    HW142369   3.094   4.737  21.454
10247SOL    HW242370   3.029   4.629  21.370
10248SOL     OW42371   0.946   0.327   6.359
10248SOL    HW142372   1.023   0.383   6.351
10248SOL    HW242373   0.948   0.297   6.450
10249SOL     OW42374   3.995   2.617   7.578
10249SOL    HW142375   3.932   2.585   7.513
10249SOL    HW242376   3.966   2.706   7.597
10250SOL     OW42377   2.453   1.453   7.942
10250SOL    HW142378   2.390   1.477   7.874
10250SOL    HW242379   2.399   1.427   8.017
10251SOL     OW42380   0.171   1.907  20.522
10251SOL    HW142381   0.212   1.993  20.512
10251SOL    HW242382   0.082   1.919  20.490
10252SOL     OW42383   4.648   4.384  22.237
10252SOL    HW142384   4.742   4.369  22.241
10252SOL    HW242385   4.621   4.345  22.154
10253SOL     OW42386   0.820   2.243  25.110
10253SOL    HW142387   0.771   2.290  25.178
10253SOL    HW242388   0.897   2.209  25.155
10254SOL     OW42389   1.559   1.276  11.420
10254SOL    HW142390   1.636   1.285  11.364
10254SOL    HW242391   1.536   1.366  11.443
10255SOL     OW42392   4.660   3.102  10.610
10255SOL    HW142393   4.619   3.015  10.606
10255SOL    HW242394   4.587   3.163  10.607
10256SOL     OW42395   0.987   4.258  26.680
10256SOL    HW142396   1.055   4.270  26.746
10256SOL    HW242397   0.969   4.346  26.648
10257SOL     OW42398   4.386   2.850   5.501
10257SOL    HW142399   4.401   2.934   5.544
10257SOL    HW242400   4.302   2.820   5.535
10258SOL     OW42401   2.638   3.541  25.380
10258SOL    HW142402   2.716   3.493  25.354
10258SOL    HW242403   2.577   3.529  25.307
10259SOL     OW42404   0.738   0.996   9.167
10259SOL    HW142405   0.809   1.033   9.219
10259SOL    HW242406   0.781   0.952   9.094
10260SOL     OW42407   3.780   2.468   4.383
10260SOL    HW142408   3.862   2.454   4.430
10260SOL    HW242409   3.772   2.563   4.378
10261SOL     OW42410   4.576   2.133   4.081
10261SOL    HW142411   4.534   2.181   4.010
10261SOL    HW242412   4.517   2.145   4.156
10262SOL     OW42413   0.567   3.252   1.510
10262SOL    HW142414   0.532   3.331   1.551
10262SOL    HW242415   0.527   3.180   1.559
10263SOL     OW42416   2.996   1.803  28.324
10263SOL    HW142417   2.989   1.733  28.389
10263SOL    HW242418   2.965   1.881  28.369
10264SOL     OW42419   1.171   0.309  12.541
10264SOL    HW142420   1.192   0.295  12.448
10264SOL    HW242421   1.208   0.232  12.585
10265SOL     OW42422   0.909   2.628   3.942
10265SOL    HW142423   1.001   2.631   3.914
10265SOL    HW242424   0.862   2.674   3.872
10266SOL     OW42425   2.568   3.926   2.870
10266SOL    HW142426   2.572   3.856   2.935
10266SOL    HW242427   2.489   3.908   2.820
10267SOL     OW42428   4.469   2.186  28.087
10267SOL    HW142429   4.417   2.151  28.160
10267SOL    HW242430   4.411   2.181  28.011
10268SOL     OW42431   2.330   3.310   4.686
10268SOL    HW142432   2.321   3.215   4.680
10268SOL    HW242433   2.423   3.324   4.704
10269SOL     OW42434   0.108   3.658  25.302
10269SOL    HW142435   0.177   3.623  25.246
10269SOL    HW242436   0.036   3.676  25.242
10270SOL     OW42437   4.275   3.144  22.253
10270SOL    HW142438   4.213   3.074  22.273
10270SOL    HW242439   4.331   3.149  22.330
10271SOL     OW42440   4.652   3.228  27.004
10271SOL    HW142441   4.572   3.279  27.019
10271SOL    HW242442   4.627   3.162  26.940
10272SOL     OW42443   1.461   1.992   9.352
10272SOL    HW142444   1.530   1.962   9.411
10272SOL    HW242445   1.452   2.085   9.372
10273SOL     OW42446   4.643   2.516  23.948
10273SOL    HW142447   4.668   2.533  23.857
10273SOL    HW242448   4.548   2.526  23.948
10274SOL     OW42449   3.933   0.837  18.494
10274SOL    HW142450   3.961   0.807  18.407
10274SOL    HW242451   3.981   0.782  18.555
10275SOL     OW42452   1.023   4.418   9.159
10275SOL    HW142453   1.028   4.502   9.205
10275SOL    HW242454   1.106   4.411   9.112
10276SOL     OW42455   0.748   4.639   0.881
10276SOL    HW142456   0.736   4.573   0.949
10276SOL    HW242457   0.667   4.689   0.882
10277SOL     OW42458   3.362   1.754   7.956
10277SOL    HW142459   3.342   1.719   8.043
10277SOL    HW242460   3.333   1.686   7.895
10278SOL     OW42461   0.649   1.876   7.021
10278SOL    HW142462   0.612   1.945   6.967
10278SOL    HW242463   0.744   1.882   7.007
10279SOL     OW42464   1.445   0.187  19.763
10279SOL    HW142465   1.492   0.153  19.839
10279SOL    HW242466   1.353   0.174  19.785
10280SOL     OW42467   0.825   3.865   2.507
10280SOL    HW142468   0.914   3.834   2.524
10280SOL    HW242469   0.805   3.922   2.581
10281SOL     OW42470   0.325   2.591  26.427
10281SOL    HW142471   0.372   2.567  26.507
10281SOL    HW242472   0.357   2.530  26.361
10282SOL     OW42473   1.887   1.443   4.774
10282SOL    HW142474   1.882   1.530   4.733
10282SOL    HW242475   1.804   1.401   4.751
10283SOL     OW42476   4.498   0.895  21.040
10283SOL    HW142477   4.501   0.962  21.108
10283SOL    HW242478   4.540   0.819  21.080
10284SOL     OW42479   2.837   2.180   3.743
10284SOL    HW142480   2.848   2.192   3.837
10284SOL    HW242481   2.926   2.177   3.709
10285SOL     OW42482   0.688   2.323  28.032
10285SOL    HW142483   0.728   2.369  27.958
10285SOL    HW242484   0.614   2.276  27.994
10286SOL     OW42485   3.714   2.690   3.402
10286SOL    HW142486   3.702   2.678   3.308
10286SOL    HW242487   3.797   2.737   3.410
10287SOL     OW42488   0.020   4.423   2.735
10287SOL    HW142489   4.728   4.372   2.698
10287SOL    HW242490   0.032   4.495   2.673
10288SOL     OW42491   3.747   4.136  25.717
10288SOL    HW142492   3.769   4.228  25.701
10288SOL    HW242493   3.657   4.139  25.749
10289SOL     OW42494   1.928   4.624   4.131
10289SOL    HW142495   1.949   4.688   4.199
10289SOL    HW242496   1.933   4.539   4.176
10290SOL     OW42497   2.324   2.191   0.980
10290SOL    HW142498   2.383   2.250   1.027
10290SOL    HW242499   2.236   2.221   1.003
10291SOL     OW42500   4.491   3.916   7.211
10291SOL    HW142501   4.495   3.997   7.262
10291SOL    HW242502   4.555   3.858   7.252
10292SOL     OW42503   2.878   4.390  15.790
10292SOL    HW142504   2.863   4.393  15.884
10292SOL    HW242505   2.791   4.377  15.752
10293SOL     OW42506   3.426   4.523  21.760
10293SOL    HW142507   3.473   4.440  21.752
10293SOL    HW242508   3.353   4.504  21.819
10294SOL     OW42509   4.717   1.324   3.856
10294SOL    HW142510   4.676   1.409   3.874
10294SOL    HW242511   4.657   1.260   3.894
10295SOL     OW42512   1.995   0.698   9.426
10295SOL    HW142513   2.052   0.728   9.497
10295SOL    HW242514   2.055   0.662   9.361
10296SOL     OW42515   0.817   0.556  19.817
10296SOL    HW142516   0.856   0.536  19.902
10296SOL    HW242517   0.765   0.635  19.833
10297SOL     OW42518   2.691   3.473  23.553
10297SOL    HW142519   2.710   3.501  23.463
10297SOL    HW242520   2.710   3.379  23.553
10298SOL     OW42521   4.297   4.009  26.229
10298SOL    HW142522   4.209   3.975  26.248
10298SOL    HW242523   4.352   3.972  26.298
10299SOL     OW42524   3.540   1.234   1.774
10299SOL    HW142525   3.597   1.202   1.704
10299SOL    HW242526   3.465   1.174   1.772
10300SOL     OW42527   0.024   2.544  20.614
10300SOL    HW142528   0.037   2.639  20.618
10300SOL    HW242529   4.752   2.530  20.535
10301SOL     OW42530   4.240   4.581   3.066
10301SOL    HW142531   4.252   4.625   2.982
10301SOL    HW242532   4.194   4.500   3.044
10302SOL     OW42533   0.435   0.336   9.207
10302SOL    HW142534   0.475   0.415   9.243
10302SOL    HW242535   0.439   0.348   9.112
10303SOL     OW42536   4.051   3.954  23.421
10303SOL    HW142537   4.128   3.898  23.431
10303SOL    HW242538   3.977   3.893  23.415
10304SOL     OW42539   1.966   1.233   5.394
10304SOL    HW142540   1.992   1.159   5.339
10304SOL    HW242541   2.048   1.280   5.410
10305SOL     OW42542   3.739   0.953   5.520
10305SOL    HW142543   3.776   0.885   5.576
10305SOL    HW242544   3.770   0.931   5.432
10306SOL     OW42545   3.588   0.312  24.155
10306SOL    HW142546   3.582   0.293  24.061
10306SOL    HW242547   3.653   0.381  24.162
10307SOL     OW42548   1.677   3.699   8.358
10307SOL    HW142549   1.767   3.696   8.390
10307SOL    HW242550   1.626   3.655   8.426
10308SOL     OW42551   4.344   4.394  18.626
10308SOL    HW142552   4.337   4.308  18.667
10308SOL    HW242553   4.429   4.392  18.582
10309SOL     OW42554   1.504   2.410  10.398
10309SOL    HW142555   1.552   2.327  10.393
10309SOL    HW242556   1.572   2.477  10.396
10310SOL     OW42557   3.301   3.114   9.777
10310SOL    HW142558   3.345   3.131   9.860
10310SOL    HW242559   3.237   3.045   9.797
10311SOL     OW42560   2.708   0.519   8.044
10311SOL    HW142561   2.781   0.536   8.104
10311SOL    HW242562   2.733   0.563   7.963
10312SOL     OW42563   2.066   0.157  25.330
10312SOL    HW142564   2.048   0.188  25.241
10312SOL    HW242565   1.995   0.193  25.383
10313SOL     OW42566   3.540   4.039   5.097
10313SOL    HW142567   3.534   4.134   5.092
10313SOL    HW242568   3.532   4.010   5.006
10314SOL     OW42569   4.735   2.255   2.992
10314SOL    HW142570   4.663   2.250   3.055
10314SOL    HW242571   0.013   2.183   3.016
10315SOL     OW42572   0.922   1.854   4.909
10315SOL    HW142573   0.995   1.793   4.895
10315SOL    HW242574   0.963   1.940   4.913
10316SOL     OW42575   4.505   4.049  22.954
10316SOL    HW142576   4.560   4.079  22.881
10316SOL    HW242577   4.421   4.092  22.939
10317SOL     OW42578   4.094   2.490  12.441
10317SOL    HW142579   4.037   2.421  12.407
10317SOL    HW242580   4.046   2.526  12.515
10318SOL     OW42581   1.209   0.177   8.799
10318SOL    HW142582   1.154   0.220   8.864
10318SOL    HW242583   1.148   0.127   8.745
10319SOL     OW42584   1.263   2.262   5.675
10319SOL    HW142585   1.238   2.283   5.765
10319SOL    HW242586   1.209   2.320   5.621
10320SOL     OW42587   1.101   1.283   2.755
10320SOL    HW142588   1.014   1.248   2.774
10320SOL    HW242589   1.128   1.327   2.836
10321SOL     OW42590   1.471   4.681  20.052
10321SOL    HW142591   1.561   4.654  20.036
10321SOL    HW242592   1.418   4.618  20.003
10322SOL     OW42593   3.953   2.444  22.062
10322SOL    HW142594   3.884   2.507  22.082
10322SOL    HW242595   3.993   2.477  21.981
10323SOL     OW42596   3.530   2.692  20.107
10323SOL    HW142597   3.572   2.611  20.078
10323SOL    HW242598   3.478   2.666  20.183
10324SOL     OW42599   1.365   4.449  25.374
10324SOL    HW142600   1.348   4.378  25.436
10324SOL    HW242601   1.378   4.405  25.290
10325SOL     OW42602   1.192   4.074  26.092
10325SOL    HW142603   1.174   4.153  26.041
10325SOL    HW242604   1.251   4.103  26.161
10326SOL     OW42605   1.047   3.418   1.616
10326SOL    HW142606   0.952   3.428   1.608
10326SOL    HW242607   1.060   3.380   1.703
10327SOL     OW42608   2.139   4.313  26.393
10327SOL    HW142609   2.094   4.309  26.477
10327SOL    HW242610   2.072   4.343  26.332
10328SOL     OW42611   4.743   2.356  19.248
10328SOL    HW142612   4.768   2.327  19.160
10328SOL    HW242613   4.649   2.337  19.254
10329SOL     OW42614   0.908   4.773  21.709
10329SOL    HW142615   1.000   4.754  21.689
10329SOL    HW242616   0.860   4.742  21.632
10330SOL     OW42617   0.390   2.910   5.142
10330SOL    HW142618   0.299   2.924   5.117
10330SOL    HW242619   0.435   2.893   5.059
10331SOL     OW42620   1.075   2.673   2.518
10331SOL    HW142621   1.034   2.689   2.433
10331SOL    HW242622   1.015   2.614   2.563
10332SOL     OW42623   1.690   2.668   3.174
10332SOL    HW142624   1.653   2.618   3.247
10332SOL    HW242625   1.737   2.603   3.122
10333SOL     OW42626   3.095   3.428  20.259
10333SOL    HW142627   3.086   3.393  20.348
10333SOL    HW242628   3.116   3.520  20.271
10334SOL     OW42629   3.408   4.724  23.287
10334SOL    HW142630   3.325   4.761  23.316
10334SOL    HW242631   3.439   4.673  23.362
10335SOL     OW42632   0.027   1.616  17.895
10335SOL    HW142633   4.737   1.681  17.893
10335SOL    HW242634   0.007   1.557  17.823
10336SOL     OW42635   0.544   1.863  24.328
10336SOL    HW142636   0.636   1.864  24.302
10336SOL    HW242637   0.546   1.835  24.420
10337SOL     OW42638   2.702   2.926   0.851
10337SOL    HW142639   2.741   2.972   0.925
10337SOL    HW242640   2.633   2.872   0.889
10338SOL     OW42641   1.976   2.721   3.075
10338SOL    HW142642   1.965   2.774   3.154
10338SOL    HW242643   2.004   2.635   3.108
10339SOL     OW42644   1.321   3.035  25.485
10339SOL    HW142645   1.359   2.949  25.467
10339SOL    HW242646   1.248   3.042  25.424
10340SOL     OW42647   4.539   1.892   3.246
10340SOL    HW142648   4.615   1.834   3.243
10340SOL    HW242649   4.467   1.834   3.271
10341SOL     OW42650   1.291   0.266   1.688
10341SOL    HW142651   1.372   0.231   1.724
10341SOL    HW242652   1.243   0.299   1.764
10342SOL     OW42653   4.235   3.040   3.584
10342SOL    HW142654   4.286   3.078   3.656
10342SOL    HW242655   4.147   3.075   3.597
10343SOL     OW42656   4.528   0.665   8.813
10343SOL    HW142657   4.477   0.698   8.739
10343SOL    HW242658   4.556   0.744   8.860
10344SOL     OW42659   2.190   1.580   2.285
10344SOL    HW142660   2.134   1.535   2.348
10344SOL    HW242661   2.275   1.537   2.294
10345SOL     OW42662   4.180   3.616  28.344
10345SOL    HW142663   4.232   3.610  28.424
10345SOL    HW242664   4.177   3.710  28.324
10346SOL     OW42665   3.079   3.507  22.178
10346SOL    HW142666   3.011   3.574  22.178
10346SOL    HW242667   3.062   3.455  22.256
10347SOL     OW42668   3.108   3.751   1.625
10347SOL    HW142669   3.165   3.756   1.701
10347SOL    HW242670   3.143   3.679   1.573
10348SOL     OW42671   0.231   3.616   8.798
10348SOL    HW142672   0.242   3.711   8.794
10348SOL    HW242673   0.316   3.584   8.829
10349SOL     OW42674   0.647   1.425   9.055
10349SOL    HW142675   0.590   1.386   8.989
10349SOL    HW242676   0.609   1.398   9.139
10350SOL     OW42677   2.896   3.081  25.714
10350SOL    HW142678   2.884   3.011  25.779
10350SOL    HW242679   2.873   3.040  25.630
10351SOL     OW42680   2.116   0.531  25.099
10351SOL    HW142681   2.125   0.463  25.032
10351SOL    HW242682   2.176   0.504  25.169
10352SOL     OW42683   0.743   2.631  19.901
10352SOL    HW142684   0.760   2.537  19.910
10352SOL    HW242685   0.830   2.670  19.892
10353SOL     OW42686   1.066   1.262  19.115
10353SOL    HW142687   1.038   1.235  19.028
10353SOL    HW242688   1.158   1.286  19.104
10354SOL     OW42689   3.181   0.471   0.222
10354SOL    HW142690   3.217   0.460   0.310
10354SOL    HW242691   3.257   0.480   0.165
10355SOL     OW42692   4.326   3.340  10.862
10355SOL    HW142693   4.232   3.357  10.871
10355SOL    HW242694   4.343   3.267  10.921
10356SOL     OW42695   1.289   0.747   2.985
10356SOL    HW142696   1.208   0.791   2.961
10356SOL    HW242697   1.353   0.818   2.994
10357SOL     OW42698   2.441   2.980   6.170
10357SOL    HW142699   2.498   2.972   6.094
10357SOL    HW242700   2.409   3.070   6.167
10358SOL     OW42701   1.955   1.613  21.550
10358SOL    HW142702   1.862   1.594  21.540
10358SOL    HW242703   1.982   1.645  21.464
10359SOL     OW42704   1.606   3.774   5.850
10359SOL    HW142705   1.513   3.797   5.842
10359SOL    HW242706   1.652   3.847   5.809
10360SOL     OW42707   4.143   0.027   0.546
10360SOL    HW142708   4.081   0.071   0.604
10360SOL    HW242709   4.105   4.721   0.532
10361SOL     OW42710   2.545   2.839  20.785
10361SOL    HW142711   2.503   2.870  20.865
10361SOL    HW242712   2.608   2.907  20.762
10362SOL     OW42713   3.442   2.562  19.468
10362SOL    HW142714   3.521   2.558  19.414
10362SOL    HW242715   3.474   2.556  19.558
10363SOL     OW42716   1.918   1.404  24.305
10363SOL    HW142717   1.927   1.312  24.279
10363SOL    HW242718   1.965   1.410  24.388
10364SOL     OW42719   1.225   4.406   5.567
10364SOL    HW142720   1.211   4.321   5.610
10364SOL    HW242721   1.141   4.451   5.576
10365SOL     OW42722   4.648   2.506  22.013
10365SOL    HW142723   4.618   2.576  21.955
10365SOL    HW242724   4.590   2.432  21.994
10366SOL     OW42725   4.551   2.478   6.554
10366SOL    HW142726   4.512   2.401   6.595
10366SOL    HW242727   4.476   2.531   6.525
10367SOL     OW42728   3.595   0.673  27.438
10367SOL    HW142729   3.563   0.667  27.528
10367SOL    HW242730   3.665   0.738  27.442
10368SOL     OW42731   4.692   2.054   1.926
10368SOL    HW142732   4.778   2.022   1.954
10368SOL    HW242733   4.675   2.129   1.984
10369SOL     OW42734   1.117   0.140   9.986
10369SOL    HW142735   1.101   0.176   9.899
10369SOL    HW242736   1.046   0.077   9.999
10370SOL     OW42737   1.724   4.600  20.032
10370SOL    HW142738   1.758   4.512  20.045
10370SOL    HW242739   1.800   4.652  20.006
10371SOL     OW42740   3.696   4.590   4.497
10371SOL    HW142741   3.749   4.634   4.431
10371SOL    HW242742   3.759   4.564   4.564
10372SOL     OW42743   0.512   4.244  24.871
10372SOL    HW142744   0.600   4.211  24.889
10372SOL    HW242745   0.464   4.232  24.953
10373SOL     OW42746   1.476   3.117  24.520
10373SOL    HW142747   1.505   3.026  24.514
10373SOL    HW242748   1.417   3.119  24.596
10374SOL     OW42749   3.338   0.063  20.907
10374SOL    HW142750   3.315   0.142  20.858
10374SOL    HW242751   3.338   0.090  20.999
10375SOL     OW42752   4.718   1.002   5.430
10375SOL    HW142753   4.730   1.074   5.368
10375SOL    HW242754   0.015   1.005   5.486
10376SOL     OW42755   3.782   2.683  22.713
10376SOL    HW142756   3.838   2.610  22.741
10376SOL    HW242757   3.693   2.655  22.735
10377SOL     OW42758   2.205   4.100  26.644
10377SOL    HW142759   2.180   4.009  26.661
10377SOL    HW242760   2.300   4.101  26.653
10378SOL     OW42761   2.959   4.450  11.245
10378SOL    HW142762   3.006   4.434  11.163
10378SOL    HW242763   3.027   4.480  11.306
10379SOL     OW42764   3.143   0.138   0.593
10379SOL    HW142765   3.227   0.097   0.571
10379SOL    HW242766   3.126   0.111   0.683
10380SOL     OW42767   1.753   0.420   7.042
10380SOL    HW142768   1.733   0.363   6.967
10380SOL    HW242769   1.839   0.390   7.072
10381SOL     OW42770   4.307   0.707   6.053
10381SOL    HW142771   4.301   0.656   6.134
10381SOL    HW242772   4.229   0.681   6.003
10382SOL     OW42773   2.092   0.438   4.274
10382SOL    HW142774   2.006   0.395   4.272
10382SOL    HW242775   2.092   0.488   4.356
10383SOL     OW42776   2.412   2.424   2.474
10383SOL    HW142777   2.462   2.496   2.437
10383SOL    HW242778   2.322   2.439   2.444
10384SOL     OW42779   3.406   1.098   0.559
10384SOL    HW142780   3.330   1.048   0.529
10384SOL    HW242781   3.382   1.189   0.543
10385SOL     OW42782   2.421   1.412  27.061
10385SOL    HW142783   2.502   1.373  27.028
10385SOL    HW242784   2.447   1.499  27.090
10386SOL     OW42785   2.325   4.566   0.203
10386SOL    HW142786   2.234   4.589   0.186
10386SOL    HW242787   2.339   4.591   0.294
10387SOL     OW42788   1.060   4.086  19.794
10387SOL    HW142789   1.078   4.046  19.879
10387SOL    HW242790   1.075   4.180  19.808
10388SOL     OW42791   0.448   3.509   0.716
10388SOL    HW142792   0.372   3.545   0.762
10388SOL    HW242793   0.519   3.511   0.780
10389SOL     OW42794   3.942   0.163   4.618
10389SOL    HW142795   3.960   0.112   4.697
10389SOL    HW242796   3.864   0.215   4.639
10390SOL     OW42797   3.137   2.690   2.551
10390SOL    HW142798   3.184   2.770   2.526
10390SOL    HW242799   3.047   2.705   2.521
10391SOL     OW42800   3.351   1.526   0.701
10391SOL    HW142801   3.393   1.603   0.738
10391SOL    HW242802   3.312   1.481   0.776
10392SOL     OW42803   2.062   1.795  18.746
10392SOL    HW142804   1.979   1.840  18.760
10392SOL    HW242805   2.038   1.708  18.716
10393SOL     OW42806   4.358   2.099   4.686
10393SOL    HW142807   4.443   2.081   4.646
10393SOL    HW242808   4.376   2.102   4.780
10394SOL     OW42809   2.578   1.097   0.024
10394SOL    HW142810   2.484   1.077   0.021
10394SOL    HW242811   2.584   1.175   0.080
10395SOL     OW42812   2.354   1.950   5.070
10395SOL    HW142813   2.399   1.985   5.147
10395SOL    HW242814   2.341   1.857   5.091
10396SOL     OW42815   0.649   2.324   0.862
10396SOL    HW142816   0.683   2.280   0.784
10396SOL    HW242817   0.677   2.415   0.852
10397SOL     OW42818   1.468   4.320   4.583
10397SOL    HW142819   1.432   4.231   4.587
10397SOL    HW242820   1.435   4.363   4.662
10398SOL     OW42821   2.874   2.316   8.560
10398SOL    HW142822   2.896   2.245   8.620
10398SOL    HW242823   2.959   2.348   8.529
10399SOL     OW42824   4.689   1.898  25.311
10399SOL    HW142825   4.635   1.853  25.246
10399SOL    HW242826   4.663   1.990  25.304
10400SOL     OW42827   2.060   4.194  22.519
10400SOL    HW142828   2.005   4.183  22.441
10400SOL    HW242829   1.998   4.196  22.592
10401SOL     OW42830   2.204   1.429  18.657
10401SOL    HW142831   2.207   1.473  18.572
10401SOL    HW242832   2.274   1.470  18.708
10402SOL     OW42833   0.415   4.524  28.339
10402SOL    HW142834   0.438   4.504  28.430
10402SOL    HW242835   0.319   4.527  28.339
10403SOL     OW42836   3.582   3.688   4.845
10403SOL    HW142837   3.535   3.643   4.775
10403SOL    HW242838   3.570   3.632   4.922
10404SOL     OW42839   1.024   4.103   2.791
10404SOL    HW142840   0.959   4.043   2.754
10404SOL    HW242841   0.973   4.180   2.818
10405SOL     OW42842   3.246   0.924  24.477
10405SOL    HW142843   3.295   0.951  24.399
10405SOL    HW242844   3.154   0.940  24.455
10406SOL     OW42845   3.226   4.120  20.285
10406SOL    HW142846   3.187   4.111  20.372
10406SOL    HW242847   3.320   4.112  20.300
10407SOL     OW42848   1.922   2.039  26.963
10407SOL    HW142849   1.905   2.037  27.057
10407SOL    HW242850   1.887   2.123  26.934
10408SOL     OW42851   3.151   3.437   9.881
10408SOL    HW142852   3.151   3.507   9.816
10408SOL    HW242853   3.078   3.458   9.940
10409SOL     OW42854   3.046   4.366  25.184
10409SOL    HW142855   3.081   4.428  25.248
10409SOL    HW242856   3.001   4.421  25.120
10410SOL     OW42857   1.621   4.666   8.001
10410SOL    HW142858   1.633   4.723   7.925
10410SOL    HW242859   1.533   4.687   8.033
10411SOL     OW42860   1.520   1.839   6.106
10411SOL    HW142861   1.589   1.786   6.146
10411SOL    HW242862   1.566   1.899   6.047
10412SOL     OW42863   4.394   0.431  25.247
10412SOL    HW142864   4.304   0.447  25.277
10412SOL    HW242865   4.444   0.419  25.327
10413SOL     OW42866   0.457   1.360  24.468
10413SOL    HW142867   0.395   1.427  24.440
10413SOL    HW242868   0.476   1.311  24.388
10414SOL     OW42869   3.411   2.127  23.740
10414SOL    HW142870   3.337   2.074  23.770
10414SOL    HW242871   3.485   2.097  23.794
10415SOL     OW42872   4.401   2.814  21.423
10415SOL    HW142873   4.462   2.791  21.353
10415SOL    HW242874   4.330   2.860  21.379
10416SOL     OW42875   2.421   0.666  27.914
10416SOL    HW142876   2.499   0.719  27.897
10416SOL    HW242877   2.410   0.669  28.009
10417SOL     OW42878   0.561   0.580   9.805
10417SOL    HW142879   0.494   0.530   9.852
10417SOL    HW242880   0.559   0.667   9.845
10418SOL     OW42881   4.171   1.445  10.932
10418SOL    HW142882   4.095   1.434  10.875
10418SOL    HW242883   4.142   1.414  11.018
10419SOL     OW42884   2.283   2.889  23.123
10419SOL    HW142885   2.192   2.876  23.149
10419SOL    HW242886   2.295   2.984  23.126
10420SOL     OW42887   1.043   0.757  27.916
10420SOL    HW142888   0.964   0.704  27.904
10420SOL    HW242889   1.057   0.799  27.831
10421SOL     OW42890   1.874   0.028  12.314
10421SOL    HW142891   1.911   4.768  12.392
10421SOL    HW242892   1.834   0.109  12.346
10422SOL     OW42893   2.950   3.646   6.125
10422SOL    HW142894   2.890   3.672   6.195
10422SOL    HW242895   2.906   3.673   6.044
10423SOL     OW42896   0.389   1.728   9.495
10423SOL    HW142897   0.321   1.749   9.430
10423SOL    HW242898   0.460   1.690   9.444
10424SOL     OW42899   4.056   0.965  21.701
10424SOL    HW142900   4.099   0.983  21.785
10424SOL    HW242901   3.978   0.915  21.724
10425SOL     OW42902   0.670   3.828   1.845
10425SOL    HW142903   0.632   3.740   1.838
10425SOL    HW242904   0.754   3.822   1.800
10426SOL     OW42905   0.214   2.183  21.917
10426SOL    HW142906   0.214   2.249  21.848
10426SOL    HW242907   0.193   2.101  21.872
10427SOL     OW42908   3.770   1.390   9.347
10427SOL    HW142909   3.706   1.387   9.418
10427SOL    HW242910   3.723   1.431   9.274
10428SOL     OW42911   3.264   3.023   0.033
10428SOL    HW142912   3.320   2.969   0.089
10428SOL    HW242913   3.200   3.061   0.093
10429SOL     OW42914   4.745   0.349  17.923
10429SOL    HW142915   4.746   0.360  17.828
10429SOL    HW242916   0.020   0.420  17.956
10430SOL     OW42917   0.578   0.779  23.049
10430SOL    HW142918   0.611   0.720  22.982
10430SOL    HW242919   0.631   0.759  23.126
10431SOL     OW42920   0.158   1.948  26.357
10431SOL    HW142921   0.206   1.889  26.299
10431SOL    HW242922   0.079   1.899  26.380
10432SOL     OW42923   1.319   4.156   2.228
10432SOL    HW142924   1.267   4.147   2.308
10432SOL    HW242925   1.409   4.139   2.255
10433SOL     OW42926   1.565   2.946   0.924
10433SOL    HW142927   1.554   3.025   0.871
10433SOL    HW242928   1.624   2.972   0.995
10434SOL     OW42929   2.856   3.135   9.406
10434SOL    HW142930   2.922   3.098   9.465
10434SOL    HW242931   2.814   3.059   9.365
10435SOL     OW42932   2.880   3.594  10.027
10435SOL    HW142933   2.805   3.561   9.978
10435SOL    HW242934   2.849   3.674  10.068
10436SOL     OW42935   3.261   0.003  10.708
10436SOL    HW142936   3.351   0.026  10.730
10436SOL    HW242937   3.226   0.082  10.666
10437SOL     OW42938   0.754   3.003  21.885
10437SOL    HW142939   0.735   2.982  21.794
10437SOL    HW242940   0.805   2.928  21.917
10438SOL     OW42941   2.779   0.776   8.619
10438SOL    HW142942   2.859   0.737   8.583
10438SOL    HW242943   2.708   0.733   8.571
10439SOL     OW42944   3.253   3.362  10.577
10439SOL    HW142945   3.212   3.362  10.663
10439SOL    HW242946   3.306   3.282  10.575
10440SOL     OW42947   0.792   2.355  22.225
10440SOL    HW142948   0.822   2.356  22.316
10440SOL    HW242949   0.866   2.390  22.175
10441SOL     OW42950   0.926   3.885   3.840
10441SOL    HW142951   0.834   3.860   3.846
10441SOL    HW242952   0.951   3.866   3.750
10442SOL     OW42953   0.761   3.576  16.996
10442SOL    HW142954   0.783   3.644  17.060
10442SOL    HW242955   0.845   3.536  16.974
10443SOL     OW42956   0.122   3.364   0.580
10443SOL    HW142957   0.211   3.347   0.550
10443SOL    HW242958   0.087   3.427   0.517
10444SOL     OW42959   4.078   2.408  18.028
10444SOL    HW142960   4.098   2.316  18.044
10444SOL    HW242961   4.146   2.456  18.075
10445SOL     OW42962   0.599   0.588  25.071
10445SOL    HW142963   0.513   0.548  25.085
10445SOL    HW242964   0.658   0.514  25.059
10446SOL     OW42965   1.601   0.047  11.253
10446SOL    HW142966   1.634   0.005  11.332
10446SOL    HW242967   1.605   0.141  11.272
10447SOL     OW42968   0.176   2.793   8.676
10447SOL    HW142969   0.100   2.742   8.648
10447SOL    HW242970   0.238   2.728   8.709
10448SOL     OW42971   0.914   1.241  24.389
10448SOL    HW142972   1.000   1.280  24.376
10448SOL    HW242973   0.915   1.162  24.334
10449SOL     OW42974   4.343   1.861  24.030
10449SOL    HW142975   4.375   1.771  24.025
10449SOL    HW242976   4.254   1.857  23.994
10450SOL     OW42977   2.618   2.942  23.160
10450SOL    HW142978   2.572   2.866  23.195
10450SOL    HW242979   2.552   3.012  23.159
10451SOL     OW42980   2.736   0.128   8.483
10451SOL    HW142981   2.669   0.065   8.458
10451SOL    HW242982   2.750   0.112   8.576
10452SOL     OW42983   0.720   3.496  11.166
10452SOL    HW142984   0.697   3.573  11.114
10452SOL    HW242985   0.714   3.525  11.257
10453SOL     OW42986   4.395   3.226  22.044
10453SOL    HW142987   4.346   3.186  22.116
10453SOL    HW242988   4.333   3.228  21.971
10454SOL     OW42989   0.506   4.250   3.639
10454SOL    HW142990   0.428   4.244   3.694
10454SOL    HW242991   0.531   4.342   3.643
10455SOL     OW42992   2.731   3.133   7.381
10455SOL    HW142993   2.742   3.226   7.359
10455SOL    HW242994   2.794   3.088   7.325
10456SOL     OW42995   0.520   2.513   2.441
10456SOL    HW142996   0.523   2.608   2.434
10456SOL    HW242997   0.548   2.482   2.355
10457SOL     OW42998   0.360   0.191  24.615
10457SOL    HW142999   0.422   0.119  24.619
10457SOL    HW243000   0.404   0.258  24.563
10458SOL     OW43001   3.066   2.577  27.127
10458SOL    HW143002   3.015   2.566  27.047
10458SOL    HW243003   3.136   2.512  27.120
10459SOL     OW43004   3.924   2.221   3.144
10459SOL    HW143005   4.001   2.173   3.173
10459SOL    HW243006   3.861   2.211   3.215
10460SOL     OW43007   2.346   0.971  24.227
10460SOL    HW143008   2.253   0.947  24.226
10460SOL    HW243009   2.357   1.027  24.150
10461SOL     OW43010   3.724   1.218  22.567
10461SOL    HW143011   3.696   1.273  22.641
10461SOL    HW243012   3.643   1.176  22.537
10462SOL     OW43013   3.555   0.121   5.693
10462SOL    HW143014   3.474   0.074   5.715
10462SOL    HW243015   3.526   0.201   5.650
10463SOL     OW43016   1.352   0.357  22.436
10463SOL    HW143017   1.405   0.368  22.515
10463SOL    HW243018   1.289   0.289  22.459
10464SOL     OW43019   2.698   1.318   7.486
10464SOL    HW143020   2.648   1.372   7.426
10464SOL    HW243021   2.636   1.296   7.556
10465SOL     OW43022   0.713   1.821   8.620
10465SOL    HW143023   0.629   1.838   8.578
10465SOL    HW243024   0.699   1.843   8.712
10466SOL     OW43025   0.069   1.447   5.282
10466SOL    HW143026   0.057   1.430   5.375
10466SOL    HW243027   0.136   1.385   5.254
10467SOL     OW43028   2.652   0.310  23.120
10467SOL    HW143029   2.619   0.228  23.082
10467SOL    HW243030   2.590   0.377  23.090
10468SOL     OW43031   4.120   4.583  27.494
10468SOL    HW143032   4.127   4.674  27.524
10468SOL    HW243033   4.030   4.557  27.515
10469SOL     OW43034   2.996   0.279  10.919
10469SOL    HW143035   2.964   0.363  10.886
10469SOL    HW243036   3.017   0.296  11.011
10470SOL     OW43037   1.832   3.579   1.536
10470SOL    HW143038   1.875   3.663   1.522
10470SOL    HW243039   1.751   3.584   1.485
10471SOL     OW43040   0.910   2.240   7.625
10471SOL    HW143041   0.919   2.145   7.622
10471SOL    HW243042   0.998   2.273   7.609
10472SOL     OW43043   0.299   2.020   3.241
10472SOL    HW143044   0.286   1.926   3.227
10472SOL    HW243045   0.227   2.062   3.194
10473SOL     OW43046   0.988   2.266   8.067
10473SOL    HW143047   0.979   2.274   7.972
10473SOL    HW243048   1.008   2.355   8.096
10474SOL     OW43049   4.458   3.190   5.305
10474SOL    HW143050   4.364   3.192   5.288
10474SOL    HW243051   4.492   3.270   5.265
10475SOL     OW43052   0.832   4.338  23.718
10475SOL    HW143053   0.828   4.291  23.801
10475SOL    HW243054   0.923   4.328  23.689
10476SOL     OW43055   1.359   2.860   5.441
10476SOL    HW143056   1.340   2.832   5.352
10476SOL    HW243057   1.454   2.854   5.448
10477SOL     OW43058   0.148   0.484   6.549
10477SOL    HW143059   0.090   0.433   6.493
10477SOL    HW243060   0.167   0.426   6.623
10478SOL     OW43061   3.203   3.781   2.499
10478SOL    HW143062   3.110   3.795   2.519
10478SOL    HW243063   3.205   3.768   2.404
10479SOL     OW43064   4.324   2.209   0.391
10479SOL    HW143065   4.372   2.247   0.464
10479SOL    HW243066   4.383   2.142   0.356
10480SOL     OW43067   2.909   3.824   6.577
10480SOL    HW143068   2.864   3.908   6.587
10480SOL    HW243069   2.944   3.805   6.664
10481SOL     OW43070   1.514   0.995  24.486
10481SOL    HW143071   1.515   1.057  24.413
10481SOL    HW243072   1.425   1.000  24.520
10482SOL     OW43073   2.862   2.255  26.916
10482SOL    HW143074   2.903   2.185  26.865
10482SOL    HW243075   2.769   2.233  26.918
10483SOL     OW43076   3.737   2.985   6.009
10483SOL    HW143077   3.669   3.032   5.961
10483SOL    HW243078   3.816   3.038   5.998
10484SOL     OW43079   1.766   0.823  22.662
10484SOL    HW143080   1.775   0.905  22.614
10484SOL    HW243081   1.807   0.757  22.605
10485SOL     OW43082   0.544   3.609   9.835
10485SOL    HW143083   0.601   3.666   9.887
10485SOL    HW243084   0.548   3.524   9.878
10486SOL     OW43085   3.745   0.410  22.130
10486SOL    HW143086   3.788   0.329  22.101
10486SOL    HW243087   3.657   0.383  22.157
10487SOL     OW43088   4.466   4.063   7.445
10487SOL    HW143089   4.430   3.979   7.472
10487SOL    HW243090   4.545   4.074   7.498
10488SOL     OW43091   4.105   1.223  11.918
10488SOL    HW143092   4.189   1.228  11.872
10488SOL    HW243093   4.127   1.190  12.005
10489SOL     OW43094   0.504   4.028   4.786
10489SOL    HW143095   0.564   4.088   4.742
10489SOL    HW243096   0.470   3.973   4.716
10490SOL     OW43097   2.608   2.186  26.522
10490SOL    HW143098   2.613   2.105  26.471
10490SOL    HW243099   2.689   2.187  26.574
10491SOL     OW43100   1.326   4.507  21.570
10491SOL    HW143101   1.347   4.488  21.479
10491SOL    HW243102   1.242   4.464  21.585
10492SOL     OW43103   1.034   1.538  25.356
10492SOL    HW143104   1.100   1.540  25.425
10492SOL    HW243105   0.963   1.485  25.392
10493SOL     OW43106   1.860   0.242   0.991
10493SOL    HW143107   1.918   0.220   1.064
10493SOL    HW243108   1.775   0.257   1.032
10494SOL     OW43109   3.433   2.348  25.115
10494SOL    HW143110   3.428   2.410  25.188
10494SOL    HW243111   3.443   2.403  25.037
10495SOL     OW43112   1.617   3.612  19.028
10495SOL    HW143113   1.664   3.682  18.982
10495SOL    HW243114   1.682   3.542  19.038
10496SOL     OW43115   4.604   0.453   9.744
10496SOL    HW143116   4.520   0.499   9.751
10496SOL    HW243117   4.655   0.484   9.818
10497SOL     OW43118   4.249   0.973   5.836
10497SOL    HW143119   4.170   1.027   5.830
10497SOL    HW243120   4.296   1.009   5.911
10498SOL     OW43121   2.410   2.989   2.483
10498SOL    HW143122   2.357   3.005   2.561
10498SOL    HW243123   2.500   2.984   2.516
10499SOL     OW43124   1.021   1.735  18.929
10499SOL    HW143125   0.968   1.675  18.877
10499SOL    HW243126   1.056   1.681  19.000
10500SOL     OW43127   3.373   1.371  22.152
10500SOL    HW143128   3.290   1.350  22.109
10500SOL    HW243129   3.366   1.464  22.173
10501SOL     OW43130   3.775   4.715   0.290
10501SOL    HW143131   3.855   4.731   0.241
10501SOL    HW243132   3.732   0.020   0.295
10502SOL     OW43133   4.587   1.576   0.660
10502SOL    HW143134   4.526   1.527   0.714
10502SOL    HW243135   4.673   1.544   0.686
10503SOL     OW43136   4.337   1.915  28.135
10503SOL    HW143137   4.368   1.874  28.054
10503SOL    HW243138   4.319   1.842  28.194
10504SOL     OW43139   3.057   3.608   9.349
10504SOL    HW143140   3.064   3.702   9.368
10504SOL    HW243141   3.135   3.570   9.389
10505SOL     OW43142   3.542   2.258  20.788
10505SOL    HW143143   3.461   2.299  20.757
10505SOL    HW243144   3.598   2.332  20.812
10506SOL     OW43145   3.219   0.418  20.063
10506SOL    HW143146   3.217   0.422  20.159
10506SOL    HW243147   3.242   0.507  20.036
10507SOL     OW43148   4.473   3.211   6.997
10507SOL    HW143149   4.380   3.189   6.990
10507SOL    HW243150   4.514   3.170   6.921
10508SOL     OW43151   1.937   1.816   0.532
10508SOL    HW143152   2.016   1.868   0.517
10508SOL    HW243153   1.906   1.793   0.444
10509SOL     OW43154   4.009   2.884   7.642
10509SOL    HW143155   4.003   2.896   7.737
10509SOL    HW243156   3.936   2.936   7.607
10510SOL     OW43157   3.729   4.234  23.644
10510SOL    HW143158   3.690   4.317  23.672
10510SOL    HW243159   3.821   4.255  23.629
10511SOL     OW43160   2.092   3.415  22.111
10511SOL    HW143161   2.051   3.445  22.030
10511SOL    HW243162   2.080   3.487  22.173
10512SOL     OW43163   2.435   3.379   2.634
10512SOL    HW143164   2.421   3.386   2.728
10512SOL    HW243165   2.526   3.349   2.625
10513SOL     OW43166   3.685   4.495  21.362
10513SOL    HW143167   3.778   4.514  21.373
10513SOL    HW243168   3.679   4.449  21.278
10514SOL     OW43169   0.439   2.246  19.842
10514SOL    HW143170   0.344   2.251  19.829
10514SOL    HW243171   0.469   2.182  19.777
10515SOL     OW43172   4.708   3.045   7.122
10515SOL    HW143173   4.755   2.967   7.094
10515SOL    HW243174   4.616   3.025   7.103
10516SOL     OW43175   1.156   3.762   7.981
10516SOL    HW143176   1.092   3.762   8.053
10516SOL    HW243177   1.201   3.846   7.989
10517SOL     OW43178   1.987   3.184   2.373
10517SOL    HW143179   2.011   3.166   2.464
10517SOL    HW243180   2.032   3.116   2.322
10518SOL     OW43181   2.692   4.043  28.469
10518SOL    HW143182   2.639   3.981  28.519
10518SOL    HW243183   2.739   4.093   0.016
10519SOL     OW43184   0.972   4.305   0.782
10519SOL    HW143185   1.040   4.269   0.839
10519SOL    HW243186   0.892   4.260   0.809
10520SOL     OW43187   4.459   4.423   0.269
10520SOL    HW143188   4.393   4.491   0.262
10520SOL    HW243189   4.473   4.394   0.179
10521SOL     OW43190   1.921   4.007  23.360
10521SOL    HW143191   1.917   3.985  23.453
10521SOL    HW243192   2.015   4.009  23.340
10522SOL     OW43193   1.161   1.549  25.598
10522SOL    HW143194   1.214   1.472  25.618
10522SOL    HW243195   1.164   1.602  25.678
10523SOL     OW43196   4.351   3.468   6.896
10523SOL    HW143197   4.430   3.449   6.947
10523SOL    HW243198   4.280   3.464   6.960
10524SOL     OW43199   4.458   0.726   7.793
10524SOL    HW143200   4.420   0.735   7.706
10524SOL    HW243201   4.383   0.730   7.853
10525SOL     OW43202   2.465   1.639   4.301
10525SOL    HW143203   2.542   1.684   4.335
10525SOL    HW243204   2.395   1.659   4.363
10526SOL     OW43205   4.008   2.483   3.767
10526SOL    HW143206   4.091   2.444   3.795
10526SOL    HW243207   4.009   2.474   3.672
10527SOL     OW43208   3.470   4.201  25.774
10527SOL    HW143209   3.411   4.202  25.698
10527SOL    HW243210   3.489   4.293  25.790
10528SOL     OW43211   3.682   3.369  19.869
10528SOL    HW143212   3.668   3.287  19.821
10528SOL    HW243213   3.607   3.423  19.846
10529SOL     OW43214   0.044   1.266  11.619
10529SOL    HW143215   0.139   1.272  11.610
10529SOL    HW243216   0.031   1.219  11.701
10530SOL     OW43217   1.492   4.593  25.170
10530SOL    HW143218   1.490   4.580  25.265
10530SOL    HW243219   1.477   4.506  25.134
10531SOL     OW43220   2.590   0.065  25.435
10531SOL    HW143221   2.514   0.016  25.404
10531SOL    HW243222   2.650   0.066  25.360
10532SOL     OW43223   3.729   0.393  26.356
10532SOL    HW143224   3.776   0.322  26.313
10532SOL    HW243225   3.665   0.421  26.291
10533SOL     OW43226   1.819   2.943  11.319
10533SOL    HW143227   1.910   2.938  11.349
10533SOL    HW243228   1.786   2.854  11.327
10534SOL     OW43229   3.807   3.097  25.786
10534SOL    HW143230   3.892   3.129  25.816
10534SOL    HW243231   3.789   3.020  25.840
10535SOL     OW43232   0.014   0.143  19.911
10535SOL    HW143233   4.731   0.162  19.842
10535SOL    HW243234   0.067   0.222  19.918
10536SOL     OW43235   3.247   2.017  25.636
10536SOL    HW143236   3.271   2.057  25.720
10536SOL    HW243237   3.330   1.987  25.599
10537SOL     OW43238   1.649   2.731  22.114
10537SOL    HW143239   1.614   2.787  22.045
10537SOL    HW243240   1.659   2.645  22.072
10538SOL     OW43241   0.580   3.276   9.805
10538SOL    HW143242   0.598   3.303   9.895
10538SOL    HW243243   0.622   3.191   9.797
10539SOL     OW43244   0.314   3.262  24.289
10539SOL    HW143245   0.243   3.319  24.259
10539SOL    HW243246   0.366   3.245  24.210
10540SOL     OW43247   3.629   0.217   8.710
10540SOL    HW143248   3.693   0.257   8.769
10540SOL    HW243249   3.656   0.126   8.703
10541SOL     OW43250   4.377   3.963   6.634
10541SOL    HW143251   4.308   3.972   6.699
10541SOL    HW243252   4.395   4.053   6.606
10542SOL     OW43253   0.915   2.614  27.345
10542SOL    HW143254   0.900   2.652  27.259
10542SOL    HW243255   0.980   2.671  27.386
10543SOL     OW43256   3.746   0.205   0.152
10543SOL    HW143257   3.841   0.217   0.150
10543SOL    HW243258   3.711   0.292   0.170
10544SOL     OW43259   3.207   0.377  11.121
10544SOL    HW143260   3.285   0.328  11.095
10544SOL    HW243261   3.186   0.345  11.209
10545SOL     OW43262   0.556   0.433  27.507
10545SOL    HW143263   0.625   0.422  27.441
10545SOL    HW243264   0.516   0.518  27.486
10546SOL     OW43265   1.307   3.481  20.517
10546SOL    HW143266   1.325   3.574  20.505
10546SOL    HW243267   1.271   3.475  20.605
10547SOL     OW43268   1.446   2.191   1.925
10547SOL    HW143269   1.508   2.259   1.900
10547SOL    HW243270   1.375   2.238   1.970
10548SOL     OW43271   0.506   1.533  26.896
10548SOL    HW143272   0.455   1.472  26.843
10548SOL    HW243273   0.547   1.592  26.833
10549SOL     OW43274   2.354   2.691  23.956
10549SOL    HW143275   2.366   2.598  23.973
10549SOL    HW243276   2.417   2.711  23.886
10550SOL     OW43277   4.659   2.389  26.276
10550SOL    HW143278   4.690   2.299  26.276
10550SOL    HW243279   4.624   2.403  26.364
10551SOL     OW43280   2.723   3.099   4.146
10551SOL    HW143281   2.813   3.115   4.118
10551SOL    HW243282   2.670   3.154   4.088
10552SOL     OW43283   0.264   4.006  22.623
10552SOL    HW143284   0.322   4.022  22.549
10552SOL    HW243285   0.323   4.001  22.699
10553SOL     OW43286   3.364   3.760  20.973
10553SOL    HW143287   3.453   3.725  20.963
10553SOL    HW243288   3.320   3.697  21.030
10554SOL     OW43289   2.036   1.749   2.918
10554SOL    HW143290   2.112   1.695   2.896
10554SOL    HW243291   2.050   1.774   3.009
10555SOL     OW43292   3.048   2.627   4.239
10555SOL    HW143293   3.115   2.658   4.300
10555SOL    HW243294   3.096   2.571   4.178
10556SOL     OW43295   2.407   3.404   1.732
10556SOL    HW143296   2.472   3.357   1.784
10556SOL    HW243297   2.455   3.478   1.694
10557SOL     OW43298   2.531   3.818   3.719
10557SOL    HW143299   2.584   3.766   3.658
10557SOL    HW243300   2.574   3.904   3.720
10558SOL     OW43301   3.727   3.604   5.771
10558SOL    HW143302   3.713   3.690   5.809
10558SOL    HW243303   3.751   3.548   5.845
10559SOL     OW43304   2.790   0.945   0.168
10559SOL    HW143305   2.711   0.980   0.128
10559SOL    HW243306   2.859   1.006   0.143
10560SOL     OW43307   1.930   1.022  20.174
10560SOL    HW143308   2.008   0.990  20.128
10560SOL    HW243309   1.947   1.115  20.188
10561SOL     OW43310   2.728   3.964   2.656
10561SOL    HW143311   2.684   4.024   2.595
10561SOL    HW243312   2.664   3.951   2.726
10562SOL     OW43313   0.942   0.952   6.969
10562SOL    HW143314   0.957   1.031   6.917
10562SOL    HW243315   0.970   0.880   6.912
10563SOL     OW43316   4.230   2.519   0.446
10563SOL    HW143317   4.198   2.454   0.508
10563SOL    HW243318   4.177   2.597   0.464
10564SOL     OW43319   3.208   0.036  24.254
10564SOL    HW143320   3.243   0.105  24.311
10564SOL    HW243321   3.271   0.031  24.182
10565SOL     OW43322   3.513   4.636  21.488
10565SOL    HW143323   3.515   4.588  21.571
10565SOL    HW243324   3.566   4.582  21.429
10566SOL     OW43325   4.281   3.256  28.480
10566SOL    HW143326   4.218   3.205  28.429
10566SOL    HW243327   4.340   3.293  28.415
10567SOL     OW43328   1.807   4.370   3.498
10567SOL    HW143329   1.831   4.384   3.406
10567SOL    HW243330   1.891   4.366   3.544
10568SOL     OW43331   2.154   2.354   5.818
10568SOL    HW143332   2.193   2.320   5.737
10568SOL    HW243333   2.191   2.299   5.887
10569SOL     OW43334   3.868   3.455   4.826
10569SOL    HW143335   3.949   3.406   4.811
10569SOL    HW243336   3.819   3.446   4.744
10570SOL     OW43337   2.785   1.966  20.296
10570SOL    HW143338   2.852   1.930  20.354
10570SOL    HW243339   2.816   1.945  20.208
10571SOL     OW43340   4.305   4.013   4.885
10571SOL    HW143341   4.386   4.044   4.844
10571SOL    HW243342   4.304   4.054   4.971
10572SOL     OW43343   2.356   1.892   8.883
10572SOL    HW143344   2.391   1.807   8.911
10572SOL    HW243345   2.434   1.945   8.866
10573SOL     OW43346   1.514   3.027  10.816
10573SOL    HW143347   1.489   2.952  10.762
10573SOL    HW243348   1.433   3.077  10.826
10574SOL     OW43349   0.556   0.419  20.079
10574SOL    HW143350   0.633   0.365  20.099
10574SOL    HW243351   0.548   0.478  20.154
10575SOL     OW43352   3.282   3.376  22.014
10575SOL    HW143353   3.352   3.352  22.074
10575SOL    HW243354   3.226   3.436  22.064
10576SOL     OW43355   3.594   2.135   5.486
10576SOL    HW143356   3.523   2.198   5.497
10576SOL    HW243357   3.554   2.051   5.508
10577SOL     OW43358   2.058   2.080  26.115
10577SOL    HW143359   2.001   2.004  26.101
10577SOL    HW243360   1.998   2.151  26.138
10578SOL     OW43361   1.934   1.328  21.235
10578SOL    HW143362   1.915   1.384  21.160
10578SOL    HW243363   1.922   1.239  21.202
10579SOL     OW43364   2.795   0.866   9.362
10579SOL    HW143365   2.780   0.958   9.342
10579SOL    HW243366   2.856   0.836   9.294
10580SOL     OW43367   1.268   0.642   4.408
10580SOL    HW143368   1.245   0.680   4.493
10580SOL    HW243369   1.261   0.715   4.347
10581SOL     OW43370   0.430   2.165   7.265
10581SOL    HW143371   0.510   2.217   7.272
10581SOL    HW243372   0.380   2.207   7.195
10582SOL     OW43373   3.265   3.084  20.797
10582SOL    HW143374   3.321   3.152  20.760
10582SOL    HW243375   3.263   3.104  20.891
10583SOL     OW43376   1.786   0.240   1.875
10583SOL    HW143377   1.699   0.206   1.896
10583SOL    HW243378   1.843   0.163   1.874
10584SOL     OW43379   4.132   0.013  28.175
10584SOL    HW143380   4.051   0.028  28.126
10584SOL    HW243381   4.193   0.079  28.141
10585SOL     OW43382   2.970   1.868  19.530
10585SOL    HW143383   2.891   1.907  19.568
10585SOL    HW243384   2.993   1.927  19.458
10586SOL     OW43385   3.739   1.330   3.034
10586SOL    HW143386   3.671   1.268   3.007
10586SOL    HW243387   3.742   1.395   2.963
10587SOL     OW43388   2.738   0.264  25.766
10587SOL    HW143389   2.749   0.319  25.689
10587SOL    HW243390   2.806   0.293  25.827
10588SOL     OW43391   2.842   3.786  25.224
10588SOL    HW143392   2.903   3.834  25.167
10588SOL    HW243393   2.896   3.755  25.296
10589SOL     OW43394   3.480   3.747   7.191
10589SOL    HW143395   3.443   3.814   7.134
10589SOL    HW243396   3.521   3.685   7.131
10590SOL     OW43397   2.095   3.651  20.604
10590SOL    HW143398   2.074   3.574  20.657
10590SOL    HW243399   2.019   3.708  20.614
10591SOL     OW43400   0.701   4.182   0.809
10591SOL    HW143401   0.611   4.194   0.779
10591SOL    HW243402   0.734   4.107   0.760
10592SOL     OW43403   4.181   0.531   2.703
10592SOL    HW143404   4.179   0.602   2.767
10592SOL    HW243405   4.116   0.468   2.735
10593SOL     OW43406   2.295   1.733  27.459
10593SOL    HW143407   2.282   1.659  27.518
10593SOL    HW243408   2.229   1.721  27.391
10594SOL     OW43409   3.501   1.844   1.263
10594SOL    HW143410   3.475   1.936   1.258
10594SOL    HW243411   3.506   1.826   1.357
10595SOL     OW43412   1.874   2.195   5.877
10595SOL    HW143413   1.948   2.201   5.938
10595SOL    HW243414   1.914   2.183   5.791
10596SOL     OW43415   2.880   0.439   5.328
10596SOL    HW143416   2.857   0.349   5.307
10596SOL    HW243417   2.963   0.432   5.375
10597SOL     OW43418   2.772   0.140  21.833
10597SOL    HW143419   2.808   0.071  21.778
10597SOL    HW243420   2.824   0.137  21.913
10598SOL     OW43421   1.110   1.789   9.628
10598SOL    HW143422   1.024   1.828   9.613
10598SOL    HW243423   1.132   1.745   9.546
10599SOL     OW43424   0.203   3.693   2.153
10599SOL    HW143425   0.184   3.787   2.158
10599SOL    HW243426   0.228   3.669   2.242
10600SOL     OW43427   0.769   0.194  10.267
10600SOL    HW143428   0.703   0.251  10.228
10600SOL    HW243429   0.821   0.252  10.323
10601SOL     OW43430   3.240   1.274   6.564
10601SOL    HW143431   3.193   1.210   6.510
10601SOL    HW243432   3.323   1.232   6.585
10602SOL     OW43433   3.692   1.016   2.491
10602SOL    HW143434   3.615   1.071   2.480
10602SOL    HW243435   3.732   1.046   2.572
10603SOL     OW43436   4.408   0.210  24.696
10603SOL    HW143437   4.375   0.267  24.765
10603SOL    HW243438   4.438   0.131  24.742
10604SOL     OW43439   1.170   1.378   4.608
10604SOL    HW143440   1.261   1.402   4.627
10604SOL    HW243441   1.176   1.298   4.556
10605SOL     OW43442   0.625   2.719   3.539
10605SOL    HW143443   0.561   2.718   3.610
10605SOL    HW243444   0.580   2.761   3.466
10606SOL     OW43445   3.861   3.976   9.804
10606SOL    HW143446   3.946   3.970   9.848
10606SOL    HW243447   3.880   4.025   9.724
10607SOL     OW43448   1.509   1.931  24.771
10607SOL    HW143449   1.548   1.871  24.708
10607SOL    HW243450   1.583   1.964  24.822
10608SOL     OW43451   1.750   1.537  21.367
10608SOL    HW143452   1.788   1.500  21.287
10608SOL    HW243453   1.700   1.612  21.336
10609SOL     OW43454   1.389   4.445   4.807
10609SOL    HW143455   1.374   4.539   4.821
10609SOL    HW243456   1.343   4.402   4.880
10610SOL     OW43457   1.105   0.599   5.335
10610SOL    HW143458   1.067   0.686   5.322
10610SOL    HW243459   1.182   0.614   5.390
10611SOL     OW43460   4.542   2.095  22.271
10611SOL    HW143461   4.577   2.130  22.353
10611SOL    HW243462   4.552   2.000  22.280
10612SOL     OW43463   1.073   4.214   4.511
10612SOL    HW143464   1.168   4.220   4.516
10612SOL    HW243465   1.042   4.287   4.564
10613SOL     OW43466   1.571   4.681   5.758
10613SOL    HW143467   1.570   4.766   5.802
10613SOL    HW243468   1.664   4.663   5.745
10614SOL     OW43469   1.701   1.181   5.861
10614SOL    HW143470   1.718   1.137   5.944
10614SOL    HW243471   1.658   1.263   5.885
10615SOL     OW43472   0.731   0.498  21.916
10615SOL    HW143473   0.811   0.496  21.968
10615SOL    HW243474   0.760   0.525  21.829
10616SOL     OW43475   0.105   0.969   6.620
10616SOL    HW143476   0.153   0.970   6.703
10616SOL    HW243477   0.144   0.896   6.571
10617SOL     OW43478   3.151   2.124  17.988
10617SOL    HW143479   3.112   2.194  17.935
10617SOL    HW243480   3.080   2.094  18.045
10618SOL     OW43481   3.020   3.206   0.674
10618SOL    HW143482   3.111   3.202   0.702
10618SOL    HW243483   3.011   3.133   0.613
10619SOL     OW43484   2.622   1.246  26.075
10619SOL    HW143485   2.553   1.231  26.140
10619SOL    HW243486   2.683   1.173  26.087
10620SOL     OW43487   4.161   2.220  18.240
10620SOL    HW143488   4.193   2.134  18.212
10620SOL    HW243489   4.208   2.282  18.184
10621SOL     OW43490   1.266   2.680   1.690
10621SOL    HW143491   1.244   2.772   1.675
10621SOL    HW243492   1.182   2.638   1.707
10622SOL     OW43493   2.415   1.281  25.504
10622SOL    HW143494   2.439   1.300  25.595
10622SOL    HW243495   2.496   1.248  25.464
10623SOL     OW43496   4.647   1.815   7.502
10623SOL    HW143497   4.712   1.810   7.572
10623SOL    HW243498   4.563   1.825   7.547
10624SOL     OW43499   1.461   1.817  20.753
10624SOL    HW143500   1.407   1.818  20.832
10624SOL    HW243501   1.435   1.737  20.707
10625SOL     OW43502   2.123   3.504   4.593
10625SOL    HW143503   2.187   3.439   4.622
10625SOL    HW243504   2.150   3.526   4.504
10626SOL     OW43505   4.773   2.794   6.477
10626SOL    HW143506   0.004   2.877   6.431
10626SOL    HW243507   4.680   2.792   6.500
10627SOL     OW43508   3.213   4.665   7.879
10627SOL    HW143509   3.206   4.694   7.788
10627SOL    HW243510   3.123   4.644   7.905
10628SOL     OW43511   3.676   2.444   9.588
10628SOL    HW143512   3.646   2.519   9.537
10628SOL    HW243513   3.617   2.441   9.663
10629SOL     OW43514   3.122   0.774  25.010
10629SOL    HW143515   3.111   0.854  24.959
10629SOL    HW243516   3.104   0.703  24.948
10630SOL     OW43517   1.804   0.464   8.225
10630SOL    HW143518   1.832   0.546   8.184
10630SOL    HW243519   1.878   0.439   8.281
10631SOL     OW43520   0.787   4.398   4.851
10631SOL    HW143521   0.754   4.488   4.859
10631SOL    HW243522   0.744   4.351   4.922
10632SOL     OW43523   0.448   3.400  10.776
10632SOL    HW143524   0.370   3.382  10.723
10632SOL    HW243525   0.521   3.366  10.724
10633SOL     OW43526   0.286   0.012  10.322
10633SOL    HW143527   0.286   4.697  10.319
10633SOL    HW243528   0.215   0.034  10.382
10634SOL     OW43529   0.351   1.613  25.340
10634SOL    HW143530   0.279   1.658  25.384
10634SOL    HW243531   0.363   1.532  25.389
10635SOL     OW43532   4.617   1.764  19.399
10635SOL    HW143533   4.671   1.718  19.335
10635SOL    HW243534   4.529   1.763  19.362
10636SOL     OW43535   1.320   1.455  19.736
10636SOL    HW143536   1.269   1.409  19.669
10636SOL    HW243537   1.258   1.468  19.808
10637SOL     OW43538   3.501   1.249  25.112
10637SOL    HW143539   3.552   1.224  25.189
10637SOL    HW243540   3.457   1.330  25.138
10638SOL     OW43541   2.676   1.634   2.037
10638SOL    HW143542   2.639   1.721   2.053
10638SOL    HW243543   2.650   1.612   1.948
10639SOL     OW43544   0.669   3.539   3.993
10639SOL    HW143545   0.761   3.516   3.982
10639SOL    HW243546   0.663   3.628   3.959
10640SOL     OW43547   1.739   2.513   0.427
10640SOL    HW143548   1.669   2.456   0.458
10640SOL    HW243549   1.699   2.600   0.421
10641SOL     OW43550   1.773   1.685   4.670
10641SOL    HW143551   1.808   1.773   4.686
10641SOL    HW243552   1.679   1.693   4.688
10642SOL     OW43553   1.321   3.911  24.439
10642SOL    HW143554   1.321   3.920  24.534
10642SOL    HW243555   1.407   3.943  24.412
10643SOL     OW43556   3.907   1.950   3.368
10643SOL    HW143557   3.921   1.856   3.377
10643SOL    HW243558   3.870   1.976   3.452
10644SOL     OW43559   4.124   3.012   6.158
10644SOL    HW143560   4.058   3.065   6.202
10644SOL    HW243561   4.199   3.012   6.218
10645SOL     OW43562   1.410   1.847   9.711
10645SOL    HW143563   1.329   1.816   9.671
10645SOL    HW243564   1.402   1.942   9.710
10646SOL     OW43565   1.058   3.615  11.117
10646SOL    HW143566   1.036   3.623  11.210
10646SOL    HW243567   1.039   3.524  11.095
10647SOL     OW43568   0.343   4.617   2.674
10647SOL    HW143569   0.258   4.584   2.646
10647SOL    HW243570   0.323   4.683   2.741
10648SOL     OW43571   4.555   0.380   8.449
10648SOL    HW143572   4.603   0.434   8.512
10648SOL    HW243573   4.482   0.343   8.500
10649SOL     OW43574   1.228   0.560   2.091
10649SOL    HW143575   1.248   0.654   2.094
10649SOL    HW243576   1.142   0.553   2.132
10650SOL     OW43577   3.961   3.051  18.220
10650SOL    HW143578   4.044   3.077  18.261
10650SOL    HW243579   3.897   3.055  18.291
10651SOL     OW43580   0.098   0.787   9.684
10651SOL    HW143581   0.188   0.755   9.688
10651SOL    HW243582   0.079   0.816   9.773
10652SOL     OW43583   0.937   3.632  27.100
10652SOL    HW143584   0.876   3.686  27.050
10652SOL    HW243585   1.022   3.676  27.090
10653SOL     OW43586   0.849   2.251  20.650
10653SOL    HW143587   0.829   2.158  20.658
10653SOL    HW243588   0.924   2.265  20.708
10654SOL     OW43589   4.062   3.160  25.905
10654SOL    HW143590   4.117   3.235  25.927
10654SOL    HW243591   4.113   3.084  25.933
10655SOL     OW43592   3.633   1.202  21.734
10655SOL    HW143593   3.593   1.223  21.818
10655SOL    HW243594   3.717   1.248  21.735
10656SOL     OW43595   2.025   2.470   8.583
10656SOL    HW143596   2.082   2.394   8.591
10656SOL    HW243597   2.013   2.501   8.673
10657SOL     OW43598   0.356   1.549  10.412
10657SOL    HW143599   0.366   1.643  10.425
10657SOL    HW243600   0.443   1.520  10.383
10658SOL     OW43601   2.942   3.726   1.078
10658SOL    HW143602   2.895   3.666   1.020
10658SOL    HW243603   2.873   3.772   1.126
10659SOL     OW43604   1.807   4.085   3.267
10659SOL    HW143605   1.757   4.162   3.240
10659SOL    HW243606   1.858   4.115   3.342
10660SOL     OW43607   3.931   2.854  21.661
10660SOL    HW143608   3.926   2.897  21.746
10660SOL    HW243609   4.013   2.886  21.622
10661SOL     OW43610   0.650   1.645  23.711
10661SOL    HW143611   0.585   1.703  23.671
10661SOL    HW243612   0.662   1.575  23.647
10662SOL     OW43613   3.000   2.192  23.741
10662SOL    HW143614   2.976   2.237  23.660
10662SOL    HW243615   2.998   2.099  23.718
10663SOL     OW43616   2.946   4.248  22.970
10663SOL    HW143617   3.032   4.261  22.929
10663SOL    HW243618   2.960   4.270  23.062
10664SOL     OW43619   0.255   2.299   9.607
10664SOL    HW143620   0.186   2.364   9.620
10664SOL    HW243621   0.336   2.347   9.623
10665SOL     OW43622   0.120   1.300   3.449
10665SOL    HW143623   0.108   1.395   3.451
10665SOL    HW243624   0.120   1.277   3.356
10666SOL     OW43625   4.049   2.687   0.558
10666SOL    HW143626   3.975   2.730   0.514
10666SOL    HW243627   4.083   2.753   0.618
10667SOL     OW43628   1.257   2.422  25.451
10667SOL    HW143629   1.191   2.475  25.407
10667SOL    HW243630   1.340   2.465  25.429
10668SOL     OW43631   1.771   1.867  24.068
10668SOL    HW143632   1.813   1.909  24.143
10668SOL    HW243633   1.829   1.794  24.046
10669SOL     OW43634   3.176   1.482  27.749
10669SOL    HW143635   3.090   1.440  27.747
10669SOL    HW243636   3.158   1.574  27.727
10670SOL     OW43637   3.016   2.839  26.941
10670SOL    HW143638   3.011   2.747  26.916
10670SOL    HW243639   3.076   2.841  27.015
10671SOL     OW43640   2.021   3.338   3.849
10671SOL    HW143641   2.014   3.314   3.941
10671SOL    HW243642   2.114   3.326   3.828
10672SOL     OW43643   3.939   2.503  17.384
10672SOL    HW143644   3.980   2.589  17.378
10672SOL    HW243645   3.887   2.495  17.304
10673SOL     OW43646   0.435   4.056  20.330
10673SOL    HW143647   0.434   4.086  20.421
10673SOL    HW243648   0.343   4.037  20.310
10674SOL     OW43649   1.227   1.473  20.950
10674SOL    HW143650   1.249   1.395  21.001
10674SOL    HW243651   1.154   1.513  20.998
10675SOL     OW43652   4.212   2.176  22.984
10675SOL    HW143653   4.232   2.166  22.891
10675SOL    HW243654   4.120   2.149  22.991
10676SOL     OW43655   2.885   4.326  19.745
10676SOL    HW143656   2.963   4.271  19.754
10676SOL    HW243657   2.847   4.300  19.661
10677SOL     OW43658   2.827   2.147   6.211
10677SOL    HW143659   2.807   2.054   6.202
10677SOL    HW243660   2.770   2.177   6.282
10678SOL     OW43661   1.154   1.559  22.891
10678SOL    HW143662   1.228   1.499  22.891
10678SOL    HW243663   1.137   1.577  22.983
10679SOL     OW43664   1.928   1.815   6.074
10679SOL    HW143665   1.984   1.848   6.144
10679SOL    HW243666   1.981   1.748   6.030
10680SOL     OW43667   0.550   0.394  20.895
10680SOL    HW143668   0.457   0.396  20.918
10680SOL    HW243669   0.552   0.360  20.805
10681SOL     OW43670   1.798   2.306  24.317
10681SOL    HW143671   1.879   2.356  24.332
10681SOL    HW243672   1.756   2.303  24.403
10682SOL     OW43673   1.808   0.351  11.189
10682SOL    HW143674   1.812   0.424  11.251
10682SOL    HW243675   1.885   0.298  11.210
10683SOL     OW43676   3.492   2.016  12.124
10683SOL    HW143677   3.514   1.997  12.215
10683SOL    HW243678   3.538   1.949  12.074
10684SOL     OW43679   0.547   0.284  20.621
10684SOL    HW143680   0.621   0.226  20.639
10684SOL    HW243681   0.558   0.309  20.529
10685SOL     OW43682   3.276   3.830   5.191
10685SOL    HW143683   3.368   3.853   5.182
10685SOL    HW243684   3.258   3.840   5.285
10686SOL     OW43685   2.182   1.140   9.327
10686SOL    HW143686   2.179   1.063   9.270
10686SOL    HW243687   2.130   1.206   9.280
10687SOL     OW43688   0.614   3.139  17.751
10687SOL    HW143689   0.701   3.176  17.765
10687SOL    HW243690   0.554   3.205  17.784
10688SOL     OW43691   2.576   2.224  21.906
10688SOL    HW143692   2.552   2.182  21.988
10688SOL    HW243693   2.520   2.302  21.902
10689SOL     OW43694   3.906   1.890  23.739
10689SOL    HW143695   3.848   1.815  23.753
10689SOL    HW243696   3.857   1.948  23.680
10690SOL     OW43697   2.108   3.339  24.841
10690SOL    HW143698   2.066   3.360  24.924
10690SOL    HW243699   2.202   3.347  24.859
10691SOL     OW43700   1.166   0.065   5.603
10691SOL    HW143701   1.218   0.013   5.541
10691SOL    HW243702   1.196   0.155   5.590
10692SOL     OW43703   3.947   0.196  22.094
10692SOL    HW143704   4.041   0.208  22.107
10692SOL    HW243705   3.928   0.112  22.136
10693SOL     OW43706   1.330   2.484   2.573
10693SOL    HW143707   1.405   2.506   2.628
10693SOL    HW243708   1.269   2.557   2.585
10694SOL     OW43709   4.559   1.738  20.782
10694SOL    HW143710   4.580   1.811  20.840
10694SOL    HW243711   4.637   1.727  20.728
10695SOL     OW43712   0.429   3.967   5.030
10695SOL    HW143713   0.450   3.983   4.938
10695SOL    HW243714   0.473   4.037   5.078
10696SOL     OW43715   4.322   2.107   7.290
10696SOL    HW143716   4.277   2.176   7.339
10696SOL    HW243717   4.374   2.153   7.224
10697SOL     OW43718   3.473   2.930   3.406
10697SOL    HW143719   3.391   2.929   3.455
10697SOL    HW243720   3.464   2.858   3.343
10698SOL     OW43721   0.923   2.212  18.833
10698SOL    HW143722   0.935   2.285  18.772
10698SOL    HW243723   0.873   2.249  18.906
10699SOL     OW43724   3.766   1.548   6.124
10699SOL    HW143725   3.836   1.505   6.075
10699SOL    HW243726   3.797   1.638   6.137
10700SOL     OW43727   0.842   3.923   5.728
10700SOL    HW143728   0.794   3.952   5.805
10700SOL    HW243729   0.814   3.983   5.658
10701SOL     OW43730   3.130   4.594  24.355
10701SOL    HW143731   3.162   4.676  24.318
10701SOL    HW243732   3.088   4.549  24.281
10702SOL     OW43733   3.708   2.526  24.818
10702SOL    HW143734   3.754   2.503  24.898
10702SOL    HW243735   3.622   2.484  24.827
10703SOL     OW43736   4.662   2.265  23.647
10703SOL    HW143737   4.727   2.335  23.651
10703SOL    HW243738   4.698   2.202  23.584
10704SOL     OW43739   3.107   1.451  22.871
10704SOL    HW143740   3.023   1.448  22.917
10704SOL    HW243741   3.146   1.535  22.897
10705SOL     OW43742   2.883   4.342  20.394
10705SOL    HW143743   2.881   4.253  20.430
10705SOL    HW243744   2.902   4.330  20.301
10706SOL     OW43745   0.642   0.852  20.456
10706SOL    HW143746   0.604   0.929  20.498
10706SOL    HW243747   0.640   0.784  20.523
10707SOL     OW43748   2.153   4.227   1.126
10707SOL    HW143749   2.239   4.186   1.132
10707SOL    HW243750   2.147   4.283   1.204
10708SOL     OW43751   0.942   4.308   3.340
10708SOL    HW143752   1.016   4.363   3.366
10708SOL    HW243753   0.886   4.304   3.417
10709SOL     OW43754   1.264   0.675  28.106
10709SOL    HW143755   1.343   0.693  28.055
10709SOL    HW243756   1.192   0.695  28.046
10710SOL     OW43757   2.962   1.426   5.664
10710SOL    HW143758   2.981   1.388   5.578
10710SOL    HW243759   2.924   1.354   5.715
10711SOL     OW43760   0.747   1.212   0.988
10711SOL    HW143761   0.811   1.223   1.058
10711SOL    HW243762   0.777   1.270   0.918
10712SOL     OW43763   2.505   1.842   5.312
10712SOL    HW143764   2.468   1.778   5.251
10712SOL    HW243765   2.595   1.854   5.283
10713SOL     OW43766   4.688   1.169  26.494
10713SOL    HW143767   4.757   1.154  26.559
10713SOL    HW243768   4.610   1.127  26.532
10714SOL     OW43769   1.589   0.377   6.066
10714SOL    HW143770   1.523   0.336   6.121
10714SOL    HW243771   1.669   0.375   6.119
10715SOL     OW43772   3.936   3.826   2.277
10715SOL    HW143773   3.949   3.731   2.276
10715SOL    HW243774   3.981   3.857   2.198
10716SOL     OW43775   1.170   2.091  25.056
10716SOL    HW143776   1.139   2.011  25.099
10716SOL    HW243777   1.105   2.108  24.987
10717SOL     OW43778   3.639   4.742   6.617
10717SOL    HW143779   3.564   4.683   6.611
10717SOL    HW243780   3.676   4.724   6.703
10718SOL     OW43781   1.362   1.504  27.792
10718SOL    HW143782   1.343   1.509  27.698
10718SOL    HW243783   1.298   1.441  27.825
10719SOL     OW43784   0.777   3.014   3.906
10719SOL    HW143785   0.843   3.083   3.909
10719SOL    HW243786   0.827   2.933   3.895
10720SOL     OW43787   0.586   1.797  22.092
10720SOL    HW143788   0.641   1.731  22.134
10720SOL    HW243789   0.647   1.849  22.039
10721SOL     OW43790   4.634   1.192  28.235
10721SOL    HW143791   4.611   1.284  28.250
10721SOL    HW243792   4.705   1.174  28.297
10722SOL     OW43793   4.763   2.789   2.765
10722SOL    HW143794   4.761   2.784   2.669
10722SOL    HW243795   4.722   2.873   2.785
10723SOL     OW43796   2.410   2.342  27.833
10723SOL    HW143797   2.451   2.310  27.753
10723SOL    HW243798   2.359   2.418  27.805
10724SOL     OW43799   2.373   0.811  10.810
10724SOL    HW143800   2.281   0.830  10.791
10724SOL    HW243801   2.399   0.880  10.871
10725SOL     OW43802   3.198   1.168  24.599
10725SOL    HW143803   3.240   1.086  24.575
10725SOL    HW243804   3.115   1.168  24.551
10726SOL     OW43805   0.331   0.980   5.321
10726SOL    HW143806   0.359   0.926   5.395
10726SOL    HW243807   0.244   0.947   5.299
10727SOL     OW43808   2.065   2.115   1.355
10727SOL    HW143809   2.151   2.084   1.326
10727SOL    HW243810   2.004   2.051   1.318
10728SOL     OW43811   4.357   3.610  20.306
10728SOL    HW143812   4.355   3.565  20.390
10728SOL    HW243813   4.412   3.687  20.321
10729SOL     OW43814   0.477   1.764  25.114
10729SOL    HW143815   0.411   1.752  25.045
10729SOL    HW243816   0.486   1.678  25.154
10730SOL     OW43817   0.309   2.425  18.234
10730SOL    HW143818   0.220   2.410  18.266
10730SOL    HW243819   0.298   2.488  18.162
10731SOL     OW43820   2.200   1.787  22.804
10731SOL    HW143821   2.141   1.757  22.735
10731SOL    HW243822   2.286   1.793  22.762
10732SOL     OW43823   0.461   1.089   6.925
10732SOL    HW143824   0.401   1.034   6.874
10732SOL    HW243825   0.548   1.064   6.893
10733SOL     OW43826   4.008   0.377   1.348
10733SOL    HW143827   4.017   0.368   1.253
10733SOL    HW243828   3.982   0.290   1.378
10734SOL     OW43829   4.713   0.247   9.284
10734SOL    HW143830   4.779   0.288   9.228
10734SOL    HW243831   4.733   0.278   9.372
10735SOL     OW43832   1.169   2.639  26.980
10735SOL    HW143833   1.146   2.690  26.903
10735SOL    HW243834   1.135   2.690  27.054
10736SOL     OW43835   3.655   0.379   1.633
10736SOL    HW143836   3.688   0.332   1.710
10736SOL    HW243837   3.583   0.432   1.666
10737SOL     OW43838   4.403   0.575   4.475
10737SOL    HW143839   4.444   0.496   4.511
10737SOL    HW243840   4.470   0.643   4.483
10738SOL     OW43841   2.701   0.787   8.253
10738SOL    HW143842   2.788   0.809   8.220
10738SOL    HW243843   2.658   0.872   8.264
10739SOL     OW43844   0.793   1.588  27.935
10739SOL    HW143845   0.854   1.525  27.973
10739SOL    HW243846   0.774   1.650  28.006
10740SOL     OW43847   2.327   1.832  24.372
10740SOL    HW143848   2.400   1.787  24.329
10740SOL    HW243849   2.274   1.866  24.300
10741SOL     OW43850   0.347   0.144  25.476
10741SOL    HW143851   0.413   0.192  25.426
10741SOL    HW243852   0.376   0.151  25.567
10742SOL     OW43853   1.887   1.501  27.858
10742SOL    HW143854   1.797   1.494  27.888
10742SOL    HW243855   1.940   1.475  27.933
10743SOL     OW43856   1.206   3.696   9.936
10743SOL    HW143857   1.290   3.682   9.979
10743SOL    HW243858   1.225   3.755   9.863
10744SOL     OW43859   2.694   3.503   5.691
10744SOL    HW143860   2.695   3.580   5.634
10744SOL    HW243861   2.659   3.535   5.774
10745SOL     OW43862   4.329   3.987  27.060
10745SOL    HW143863   4.273   3.997  26.983
10745SOL    HW243864   4.358   4.076  27.080
10746SOL     OW43865   1.106   0.072   3.100
10746SOL    HW143866   1.040   0.087   3.168
10746SOL    HW243867   1.172   0.139   3.117
10747SOL     OW43868   3.768   3.295  26.555
10747SOL    HW143869   3.857   3.266  26.575
10747SOL    HW243870   3.717   3.271  26.632
10748SOL     OW43871   2.725   0.892   2.881
10748SOL    HW143872   2.656   0.826   2.890
10748SOL    HW243873   2.729   0.934   2.967
10749SOL     OW43874   1.453   2.679   0.992
10749SOL    HW143875   1.511   2.607   1.017
10749SOL    HW243876   1.504   2.758   1.009
10750SOL     OW43877   1.729   0.707   3.151
10750SOL    HW143878   1.707   0.703   3.058
10750SOL    HW243879   1.722   0.616   3.181
10751SOL     OW43880   1.574   1.668  24.562
10751SOL    HW143881   1.635   1.724  24.515
10751SOL    HW243882   1.500   1.657  24.502
10752SOL     OW43883   2.445   4.418  24.157
10752SOL    HW143884   2.447   4.506  24.195
10752SOL    HW243885   2.523   4.415  24.101
10753SOL     OW43886   0.957   2.246  20.393
10753SOL    HW143887   1.025   2.181  20.412
10753SOL    HW243888   0.919   2.266  20.478
10754SOL     OW43889   0.429   3.155   8.702
10754SOL    HW143890   0.335   3.140   8.691
10754SOL    HW243891   0.457   3.086   8.763
10755SOL     OW43892   4.716   3.823  23.335
10755SOL    HW143893   4.723   3.803  23.429
10755SOL    HW243894   4.752   3.745  23.292
10756SOL     OW43895   4.481   0.208   6.982
10756SOL    HW143896   4.468   0.252   7.066
10756SOL    HW243897   4.395   0.171   6.961
10757SOL     OW43898   3.217   1.304  25.306
10757SOL    HW143899   3.230   1.234  25.242
10757SOL    HW243900   3.172   1.373  25.257
10758SOL     OW43901   0.704   4.055  20.280
10758SOL    HW143902   0.612   4.079  20.292
10758SOL    HW243903   0.707   3.961  20.297
10759SOL     OW43904   1.009   0.904   0.133
10759SOL    HW143905   1.090   0.870   0.172
10759SOL    HW243906   1.038   0.973   0.073
10760SOL     OW43907   1.776   1.022   1.792
10760SOL    HW143908   1.826   1.025   1.710
10760SOL    HW243909   1.737   0.935   1.793
10761SOL     OW43910   3.691   0.792   8.098
10761SOL    HW143911   3.645   0.728   8.152
10761SOL    HW243912   3.671   0.766   8.008
10762SOL     OW43913   0.763   4.734  26.453
10762SOL    HW143914   0.689   4.679  26.429
10762SOL    HW243915   0.730   0.043  26.445
10763SOL     OW43916   0.241   4.079  26.003
10763SOL    HW143917   0.164   4.102  26.055
10763SOL    HW243918   0.240   3.983  25.999
10764SOL     OW43919   2.614   1.548  22.497
10764SOL    HW143920   2.523   1.528  22.518
10764SOL    HW243921   2.610   1.595  22.414
10765SOL     OW43922   0.511   4.726  22.164
10765SOL    HW143923   0.456   4.648  22.158
10765SOL    HW243924   0.450   0.019  22.168
10766SOL     OW43925   0.484   4.665  27.410
10766SOL    HW143926   0.483   4.676  27.505
10766SOL    HW243927   0.560   4.609  27.394
10767SOL     OW43928   4.672   1.019  27.082
10767SOL    HW143929   4.709   1.105  27.060
10767SOL    HW243930   4.676   1.014  27.177
10768SOL     OW43931   2.385   0.975   9.743
10768SOL    HW143932   2.310   1.007   9.693
10768SOL    HW243933   2.458   0.976   9.681
10769SOL     OW43934   3.047   4.381   0.560
10769SOL    HW143935   3.080   4.454   0.613
10769SOL    HW243936   3.095   4.389   0.477
10770SOL     OW43937   2.092   1.737  21.314
10770SOL    HW143938   2.029   1.725  21.243
10770SOL    HW243939   2.104   1.832  21.321
10771SOL     OW43940   3.040   3.811   3.844
10771SOL    HW143941   3.118   3.761   3.868
10771SOL    HW243942   3.063   3.851   3.760
10772SOL     OW43943   1.493   3.485  24.735
10772SOL    HW143944   1.543   3.414  24.774
10772SOL    HW243945   1.559   3.541  24.694
10773SOL     OW43946   2.783   4.057   6.679
10773SOL    HW143947   2.751   4.114   6.749
10773SOL    HW243948   2.765   4.105   6.598
10774SOL     OW43949   1.765   1.810  23.175
10774SOL    HW143950   1.799   1.802  23.086
10774SOL    HW243951   1.698   1.742  23.181
10775SOL     OW43952   0.095   2.984   7.453
10775SOL    HW143953   0.115   3.029   7.535
10775SOL    HW243954   0.177   2.941   7.429
10776SOL     OW43955   2.930   1.125   4.703
10776SOL    HW143956   2.920   1.132   4.608
10776SOL    HW243957   2.941   1.031   4.720
10777SOL     OW43958   2.380   1.699   0.170
10777SOL    HW143959   2.472   1.672   0.172
10777SOL    HW243960   2.375   1.763   0.099
10778SOL     OW43961   0.664   2.299   8.764
10778SOL    HW143962   0.719   2.245   8.708
10778SOL    HW243963   0.688   2.273   8.853
10779SOL     OW43964   0.653   3.731  25.940
10779SOL    HW143965   0.679   3.813  25.981
10779SOL    HW243966   0.567   3.711  25.978
10780SOL     OW43967   3.398   1.995  28.244
10780SOL    HW143968   3.318   2.047  28.250
10780SOL    HW243969   3.412   1.985  28.150
10781SOL     OW43970   3.863   3.858  21.980
10781SOL    HW143971   3.811   3.870  22.060
10781SOL    HW243972   3.942   3.813  22.009
10782SOL     OW43973   0.600   3.592   0.018
10782SOL    HW143974   0.517   3.555   0.049
10782SOL    HW243975   0.586   3.687   0.020
10783SOL     OW43976   1.931   2.670  27.122
10783SOL    HW143977   2.015   2.687  27.080
10783SOL    HW243978   1.894   2.597  27.072
10784SOL     OW43979   0.650   3.536   7.592
10784SOL    HW143980   0.616   3.589   7.664
10784SOL    HW243981   0.740   3.567   7.581
10785SOL     OW43982   4.179   0.992  24.802
10785SOL    HW143983   4.112   0.981  24.869
10785SOL    HW243984   4.207   1.083  24.811
10786SOL     OW43985   2.823   3.706  21.230
10786SOL    HW143986   2.739   3.735  21.193
10786SOL    HW243987   2.848   3.776  21.290
10787SOL     OW43988   1.148   1.229  18.379
10787SOL    HW143989   1.123   1.141  18.349
10787SOL    HW243990   1.143   1.283  18.300
10788SOL     OW43991   2.249   0.243  20.004
10788SOL    HW143992   2.157   0.237  20.029
10788SOL    HW243993   2.296   0.194  20.072
10789SOL     OW43994   1.413   1.763   2.002
10789SOL    HW143995   1.411   1.728   1.913
10789SOL    HW243996   1.506   1.766   2.024
10790SOL     OW43997   1.181   4.545  24.262
10790SOL    HW143998   1.245   4.524  24.330
10790SOL    HW243999   1.219   4.621  24.217
10791SOL     OW44000   4.727   2.832  19.265
10791SOL    HW144001   4.744   2.772  19.337
10791SOL    HW244002   4.639   2.810  19.235
10792SOL     OW44003   2.878   2.173  23.381
10792SOL    HW144004   2.900   2.248  23.436
10792SOL    HW244005   2.783   2.179  23.370
10793SOL     OW44006   1.723   2.525   2.452
10793SOL    HW144007   1.673   2.443   2.456
10793SOL    HW244008   1.797   2.511   2.511
10794SOL     OW44009   4.475   0.046   4.867
10794SOL    HW144010   4.423   0.099   4.927
10794SOL    HW244011   4.415   4.757   4.838
10795SOL     OW44012   2.977   2.069   4.655
10795SOL    HW144013   2.889   2.086   4.689
10795SOL    HW244014   3.034   2.127   4.706
10796SOL     OW44015   2.746   2.816  25.198
10796SOL    HW144016   2.841   2.822  25.186
10796SOL    HW244017   2.735   2.759  25.274
10797SOL     OW44018   1.697   4.252   1.641
10797SOL    HW144019   1.657   4.170   1.668
10797SOL    HW244020   1.677   4.258   1.547
10798SOL     OW44021   2.256   0.830   4.724
10798SOL    HW144022   2.304   0.845   4.806
10798SOL    HW244023   2.206   0.910   4.710
10799SOL     OW44024   4.014   2.369  11.740
10799SOL    HW144025   3.974   2.445  11.697
10799SOL    HW244026   4.014   2.392  11.833
10800SOL     OW44027   1.948   1.100  12.871
10800SOL    HW144028   1.966   1.030  12.934
10800SOL    HW244029   2.023   1.159  12.879
10801SOL     OW44030   2.741   1.319  17.781
10801SOL    HW144031   2.674   1.256  17.806
10801SOL    HW244032   2.780   1.283  17.701
10802SOL     OW44033   0.545   1.933  26.187
10802SOL    HW144034   0.571   2.013  26.141
10802SOL    HW244035   0.627   1.894  26.216
10803SOL     OW44036   0.404   1.631   3.862
10803SOL    HW144037   0.439   1.551   3.901
10803SOL    HW244038   0.419   1.699   3.928
10804SOL     OW44039   3.091   3.185   7.869
10804SOL    HW144040   3.100   3.105   7.921
10804SOL    HW244041   3.115   3.159   7.780
10805SOL     OW44042   4.074   1.987  21.904
10805SOL    HW144043   4.070   2.074  21.863
10805SOL    HW244044   4.147   1.993  21.966
10806SOL     OW44045   1.153   3.904  28.422
10806SOL    HW144046   1.104   3.960  28.362
10806SOL    HW244047   1.102   3.906  28.503
10807SOL     OW44048   2.160   1.242  20.450
10807SOL    HW144049   2.098   1.274  20.384
10807SOL    HW244050   2.220   1.185  20.402
10808SOL     OW44051   1.050   2.883  21.147
10808SOL    HW144052   1.114   2.891  21.218
10808SOL    HW244053   1.099   2.905  21.068
10809SOL     OW44054   2.136   0.764  21.267
10809SOL    HW144055   2.117   0.795  21.179
10809SOL    HW244056   2.061   0.709  21.290
10810SOL     OW44057   2.790   0.981   5.360
10810SOL    HW144058   2.772   1.074   5.344
10810SOL    HW244059   2.876   0.979   5.401
10811SOL     OW44060   4.754   0.604  21.959
10811SOL    HW144061   4.662   0.593  21.936
10811SOL    HW244062   4.756   0.596  22.054
10812SOL     OW44063   2.984   4.050  27.343
10812SOL    HW144064   2.894   4.039  27.373
10812SOL    HW244065   3.021   4.116  27.402
10813SOL     OW44066   4.362   0.508   8.078
10813SOL    HW144067   4.296   0.490   8.145
10813SOL    HW244068   4.437   0.541   8.127
10814SOL     OW44069   1.801   2.197   7.803
10814SOL    HW144070   1.851   2.116   7.801
10814SOL    HW244071   1.751   2.197   7.722
10815SOL     OW44072   3.342   1.429  18.324
10815SOL    HW144073   3.370   1.348  18.367
10815SOL    HW244074   3.251   1.413  18.299
10816SOL     OW44075   4.731   3.996  16.905
10816SOL    HW144076   4.740   4.091  16.912
10816SOL    HW244077   4.769   3.975  16.820
10817SOL     OW44078   1.921   0.662   5.972
10817SOL    HW144079   1.887   0.719   5.903
10817SOL    HW244080   1.871   0.581   5.963
10818SOL     OW44081   1.594   0.556  21.468
10818SOL    HW144082   1.587   0.486  21.533
10818SOL    HW244083   1.504   0.574  21.442
10819SOL     OW44084   2.700   2.733  10.256
10819SOL    HW144085   2.607   2.754  10.264
10819SOL    HW244086   2.705   2.638  10.266
10820SOL     OW44087   2.953   3.800   9.048
10820SOL    HW144088   2.945   3.740   9.122
10820SOL    HW244089   2.887   3.770   8.985
10821SOL     OW44090   1.317   2.561   7.386
10821SOL    HW144091   1.348   2.621   7.318
10821SOL    HW244092   1.380   2.570   7.457
10822SOL     OW44093   3.709   1.799   2.174
10822SOL    HW144094   3.643   1.860   2.142
10822SOL    HW244095   3.659   1.725   2.208
10823SOL     OW44096   0.286   3.228   4.178
10823SOL    HW144097   0.324   3.237   4.090
10823SOL    HW244098   0.328   3.150   4.214
10824SOL     OW44099   4.435   1.514  19.841
10824SOL    HW144100   4.392   1.475  19.765
10824SOL    HW244101   4.486   1.587  19.805
10825SOL     OW44102   4.293   1.625  21.839
10825SOL    HW144103   4.291   1.698  21.778
10825SOL    HW244104   4.203   1.593  21.841
10826SOL     OW44105   2.775   4.394   8.394
10826SOL    HW144106   2.710   4.345   8.445
10826SOL    HW244107   2.846   4.412   8.456
10827SOL     OW44108   2.096   1.509   3.749
10827SOL    HW144109   2.172   1.452   3.759
10827SOL    HW244110   2.026   1.451   3.721
10828SOL     OW44111   3.502   2.519   5.373
10828SOL    HW144112   3.521   2.439   5.324
10828SOL    HW244113   3.528   2.498   5.463
10829SOL     OW44114   0.540   2.061   7.635
10829SOL    HW144115   0.504   2.022   7.555
10829SOL    HW244116   0.553   2.153   7.613
10830SOL     OW44117   1.674   2.229   8.043
10830SOL    HW144118   1.670   2.316   8.083
10830SOL    HW244119   1.727   2.241   7.964
10831SOL     OW44120   4.356   0.406  22.717
10831SOL    HW144121   4.292   0.427  22.649
10831SOL    HW244122   4.363   0.486  22.769
10832SOL     OW44123   2.545   0.739   9.592
10832SOL    HW144124   2.551   0.834   9.580
10832SOL    HW244125   2.463   0.727   9.641
10833SOL     OW44126   1.710   2.117   3.234
10833SOL    HW144127   1.688   2.139   3.325
10833SOL    HW244128   1.762   2.191   3.204
10834SOL     OW44129   3.468   4.265  21.169
10834SOL    HW144130   3.540   4.298  21.115
10834SOL    HW244131   3.403   4.233  21.106
10835SOL     OW44132   3.398   0.249  19.916
10835SOL    HW144133   3.370   0.157  19.920
10835SOL    HW244134   3.327   0.297  19.958
10836SOL     OW44135   0.114   0.129  27.807
10836SOL    HW144136   0.107   0.193  27.736
10836SOL    HW244137   0.172   0.170  27.871
10837SOL     OW44138   1.257   1.865   3.278
10837SOL    HW144139   1.169   1.860   3.240
10837SOL    HW244140   1.259   1.795   3.343
10838SOL     OW44141   1.828   3.923  28.167
10838SOL    HW144142   1.774   3.957  28.096
10838SOL    HW244143   1.767   3.877  28.225
10839SOL     OW44144   3.302   0.263   8.030
10839SOL    HW144145   3.340   0.181   8.061
10839SOL    HW244146   3.306   0.322   8.105
10840SOL     OW44147   1.230   2.124   7.827
10840SOL    HW144148   1.244   2.064   7.900
10840SOL    HW244149   1.254   2.073   7.750
10841SOL     OW44150   0.626   1.890  20.935
10841SOL    HW144151   0.581   1.963  20.892
10841SOL    HW244152   0.643   1.921  21.024
10842SOL     OW44153   0.637   3.269   2.748
10842SOL    HW144154   0.687   3.251   2.668
10842SOL    HW244155   0.661   3.359   2.771
10843SOL     OW44156   4.390   3.566  23.915
10843SOL    HW144157   4.474   3.604  23.939
10843SOL    HW244158   4.376   3.594  23.825
10844SOL     OW44159   2.190   0.566   9.251
10844SOL    HW144160   2.272   0.615   9.243
10844SOL    HW244161   2.212   0.491   9.306
10845SOL     OW44162   3.475   1.788  11.820
10845SOL    HW144163   3.556   1.823  11.857
10845SOL    HW244164   3.486   1.799  11.725
10846SOL     OW44165   3.067   2.260  11.575
10846SOL    HW144166   3.144   2.221  11.615
10846SOL    HW244167   3.086   2.260  11.481
10847SOL     OW44168   3.388   2.071  10.198
10847SOL    HW144169   3.296   2.092  10.211
10847SOL    HW244170   3.421   2.140  10.140
10848SOL     OW44171   1.311   3.210  26.975
10848SOL    HW144172   1.233   3.191  26.923
10848SOL    HW244173   1.336   3.126  27.013
10849SOL     OW44174   1.925   3.810   0.495
10849SOL    HW144175   1.989   3.770   0.554
10849SOL    HW244176   1.907   3.896   0.533
10850SOL     OW44177   0.444   0.860  11.483
10850SOL    HW144178   0.419   0.883  11.572
10850SOL    HW244179   0.521   0.914  11.465
10851SOL     OW44180   4.568   3.514   7.153
10851SOL    HW144181   4.611   3.515   7.067
10851SOL    HW244182   4.628   3.465   7.209
10852SOL     OW44183   1.307   2.127   3.326
10852SOL    HW144184   1.392   2.136   3.369
10852SOL    HW244185   1.289   2.033   3.326
10853SOL     OW44186   3.226   4.600  20.919
10853SOL    HW144187   3.255   4.584  20.829
10853SOL    HW244188   3.228   4.695  20.929
10854SOL     OW44189   2.390   3.980  26.314
10854SOL    HW144190   2.393   4.005  26.406
10854SOL    HW244191   2.482   3.970  26.289
10855SOL     OW44192   3.362   4.692  11.522
10855SOL    HW144193   3.375   4.654  11.609
10855SOL    HW244194   3.386   0.004  11.533
10856SOL     OW44195   3.733   2.883  22.172
10856SOL    HW144196   3.745   2.934  22.252
10856SOL    HW244197   3.817   2.890  22.126
10857SOL     OW44198   2.488   4.277  19.748
10857SOL    HW144199   2.554   4.341  19.774
10857SOL    HW244200   2.493   4.208  19.814
10858SOL     OW44201   0.815   1.114   4.167
10858SOL    HW144202   0.787   1.204   4.180
10858SOL    HW244203   0.780   1.089   4.082
10859SOL     OW44204   2.299   1.624   6.648
10859SOL    HW144205   2.394   1.618   6.662
10859SOL    HW244206   2.262   1.561   6.710
10860SOL     OW44207   2.371   2.658   6.992
10860SOL    HW144208   2.412   2.741   7.015
10860SOL    HW244209   2.444   2.599   6.973
10861SOL     OW44210   2.940   0.595   8.210
10861SOL    HW144211   2.985   0.512   8.224
10861SOL    HW244212   2.999   0.645   8.153
10862SOL     OW44213   2.518   2.200   8.690
10862SOL    HW144214   2.517   2.173   8.782
10862SOL    HW244215   2.531   2.295   8.693
10863SOL     OW44216   3.865   2.050  24.051
10863SOL    HW144217   3.855   1.972  24.105
10863SOL    HW244218   3.945   2.035  24.001
10864SOL     OW44219   2.934   3.140  18.369
10864SOL    HW144220   2.889   3.223  18.386
10864SOL    HW244221   3.023   3.165  18.345
10865SOL     OW44222   4.690   4.672  21.226
10865SOL    HW144223   4.621   4.725  21.186
10865SOL    HW244224   4.724   4.618  21.155
10866SOL     OW44225   2.577   1.117  21.212
10866SOL    HW144226   2.525   1.167  21.149
10866SOL    HW244227   2.568   1.026  21.183
10867SOL     OW44228   1.708   3.560  28.384
10867SOL    HW144229   1.683   3.527  28.470
10867SOL    HW244230   1.625   3.579  28.340
10868SOL     OW44231   0.366   3.364   5.989
10868SOL    HW144232   0.350   3.458   5.979
10868SOL    HW244233   0.351   3.328   5.902
10869SOL     OW44234   4.280   2.283   9.303
10869SOL    HW144235   4.314   2.293   9.392
10869SOL    HW244236   4.186   2.268   9.314
10870SOL     OW44237   4.154   1.582  11.720
10870SOL    HW144238   4.069   1.625  11.720
10870SOL    HW244239   4.159   1.540  11.806
10871SOL     OW44240   1.984   1.553   7.620
10871SOL    HW144241   2.007   1.624   7.680
10871SOL    HW244242   1.935   1.491   7.674
10872SOL     OW44243   3.647   2.890  11.030
10872SOL    HW144244   3.612   2.822  10.972
10872SOL    HW244245   3.732   2.856  11.057
10873SOL     OW44246   2.544   0.804  21.665
10873SOL    HW144247   2.514   0.855  21.740
10873SOL    HW244248   2.575   0.869  21.602
10874SOL     OW44249   0.232   0.288   1.944
10874SOL    HW144250   0.166   0.231   1.983
10874SOL    HW244251   0.187   0.371   1.930
10875SOL     OW44252   3.404   1.609   1.712
10875SOL    HW144253   3.424   1.641   1.624
10875SOL    HW244254   3.483   1.561   1.739
10876SOL     OW44255   1.674   1.037  20.217
10876SOL    HW144256   1.622   0.996  20.148
10876SOL    HW244257   1.764   1.032  20.185
10877SOL     OW44258   1.545   3.780   3.410
10877SOL    HW144259   1.530   3.853   3.471
10877SOL    HW244260   1.599   3.817   3.341
10878SOL     OW44261   4.112   2.728   7.173
10878SOL    HW144262   4.139   2.780   7.249
10878SOL    HW244263   4.054   2.661   7.209
10879SOL     OW44264   0.595   3.984  26.056
10879SOL    HW144265   0.559   3.940  26.133
10879SOL    HW244266   0.550   4.069  26.054
10880SOL     OW44267   3.838   3.213  12.018
10880SOL    HW144268   3.857   3.281  11.953
10880SOL    HW244269   3.876   3.247  12.099
10881SOL     OW44270   2.695   2.806   5.503
10881SOL    HW144271   2.773   2.842   5.460
10881SOL    HW244272   2.696   2.844   5.591
10882SOL     OW44273   0.690   2.071  22.696
10882SOL    HW144274   0.688   2.059  22.601
10882SOL    HW244275   0.700   1.982  22.731
10883SOL     OW44276   4.472   0.391   8.754
10883SOL    HW144277   4.383   0.379   8.788
10883SOL    HW244278   4.490   0.484   8.767
10884SOL     OW44279   3.706   3.629   3.065
10884SOL    HW144280   3.624   3.601   3.106
10884SOL    HW244281   3.719   3.719   3.096
10885SOL     OW44282   3.688   1.203  11.903
10885SOL    HW144283   3.635   1.123  11.903
10885SOL    HW244284   3.627   1.272  11.930
10886SOL     OW44285   4.086   0.631  21.157
10886SOL    HW144286   4.028   0.595  21.090
10886SOL    HW244287   4.081   0.569  21.230
10887SOL     OW44288   1.614   2.912   9.595
10887SOL    HW144289   1.529   2.950   9.575
10887SOL    HW244290   1.625   2.842   9.531
10888SOL     OW44291   3.285   1.350   3.951
10888SOL    HW144292   3.302   1.333   3.858
10888SOL    HW244293   3.367   1.328   3.995
10889SOL     OW44294   2.714   1.549   4.582
10889SOL    HW144295   2.736   1.584   4.668
10889SOL    HW244296   2.640   1.602   4.552
10890SOL     OW44297   0.410   3.469   0.446
10890SOL    HW144298   0.385   3.511   0.528
10890SOL    HW244299   0.505   3.460   0.452
10891SOL     OW44300   3.139   3.081  27.364
10891SOL    HW144301   3.045   3.081  27.381
10891SOL    HW244302   3.154   3.004  27.309
10892SOL     OW44303   2.750   1.471   8.726
10892SOL    HW144304   2.657   1.476   8.705
10892SOL    HW244305   2.788   1.420   8.654
10893SOL     OW44306   2.378   1.833  19.462
10893SOL    HW144307   2.442   1.868  19.400
10893SOL    HW244308   2.349   1.909  19.512
10894SOL     OW44309   3.796   3.456  20.357
10894SOL    HW144310   3.776   3.436  20.265
10894SOL    HW244311   3.890   3.473  20.358
10895SOL     OW44312   2.594   3.764   9.773
10895SOL    HW144313   2.656   3.819   9.820
10895SOL    HW244314   2.612   3.675   9.805
10896SOL     OW44315   2.968   4.729  11.990
10896SOL    HW144316   3.039   4.682  11.947
10896SOL    HW244317   2.972   0.037  11.954
10897SOL     OW44318   4.722   3.861   1.441
10897SOL    HW144319   0.021   3.911   1.462
10897SOL    HW244320   4.689   3.901   1.360
10898SOL     OW44321   0.237   0.524   8.459
10898SOL    HW144322   0.164   0.580   8.434
10898SOL    HW244323   0.198   0.455   8.513
10899SOL     OW44324   0.870   2.218   3.800
10899SOL    HW144325   0.851   2.145   3.858
10899SOL    HW244326   0.787   2.235   3.755
10900SOL     OW44327   3.093   1.184   7.227
10900SOL    HW144328   3.161   1.122   7.254
10900SOL    HW244329   3.095   1.253   7.293
10901SOL     OW44330   1.798   3.894  17.747
10901SOL    HW144331   1.775   3.838  17.821
10901SOL    HW244332   1.893   3.905  17.753
10902SOL     OW44333   2.932   3.530   6.472
10902SOL    HW144334   2.912   3.470   6.544
10902SOL    HW244335   2.919   3.617   6.509
10903SOL     OW44336   1.087   0.666  12.220
10903SOL    HW144337   1.130   0.611  12.155
10903SOL    HW244338   1.090   0.614  12.301
10904SOL     OW44339   4.488   2.638  12.363
10904SOL    HW144340   4.405   2.684  12.377
10904SOL    HW244341   4.465   2.545  12.372
10905SOL     OW44342   2.766   2.574   7.506
10905SOL    HW144343   2.699   2.528   7.557
10905SOL    HW244344   2.813   2.505   7.460
10906SOL     OW44345   0.837   0.942  27.677
10906SOL    HW144346   0.932   0.932  27.674
10906SOL    HW244347   0.823   1.032  27.706
10907SOL     OW44348   1.955   1.368  12.056
10907SOL    HW144349   1.941   1.349  12.149
10907SOL    HW244350   1.884   1.323  12.011
10908SOL     OW44351   2.243   0.885   3.543
10908SOL    HW144352   2.181   0.813   3.555
10908SOL    HW244353   2.320   0.859   3.594
10909SOL     OW44354   0.376   1.220   4.745
10909SOL    HW144355   0.352   1.183   4.830
10909SOL    HW244356   0.430   1.296   4.766
10910SOL     OW44357   2.841   0.677  27.711
10910SOL    HW144358   2.794   0.729  27.777
10910SOL    HW244359   2.925   0.721  27.701
10911SOL     OW44360   0.597   2.635  27.935
10911SOL    HW144361   0.584   2.698  28.005
10911SOL    HW244362   0.519   2.579  27.938
10912SOL     OW44363   2.566   2.441   6.654
10912SOL    HW144364   2.647   2.395   6.633
10912SOL    HW244365   2.573   2.462   6.747
10913SOL     OW44366   3.572   1.560   5.784
10913SOL    HW144367   3.658   1.592   5.810
10913SOL    HW244368   3.590   1.479   5.736
10914SOL     OW44369   0.542   0.859   8.259
10914SOL    HW144370   0.582   0.783   8.300
10914SOL    HW244371   0.468   0.881   8.316
10915SOL     OW44372   3.673   2.597  20.532
10915SOL    HW144373   3.722   2.539  20.474
10915SOL    HW244374   3.586   2.558  20.538
10916SOL     OW44375   1.003   3.220  23.671
10916SOL    HW144376   0.910   3.222  23.693
10916SOL    HW244377   1.044   3.278  23.735
10917SOL     OW44378   1.950   2.967   0.374
10917SOL    HW144379   2.013   3.009   0.315
10917SOL    HW244380   1.877   2.941   0.317
10918SOL     OW44381   2.021   0.347  23.387
10918SOL    HW144382   1.962   0.315  23.319
10918SOL    HW244383   2.042   0.269  23.439
10919SOL     OW44384   4.652   4.543  13.250
10919SOL    HW144385   4.713   4.484  13.294
10919SOL    HW244386   4.566   4.504  13.264
10920SOL     OW44387   4.718   3.689   1.152
10920SOL    HW144388   4.722   3.607   1.103
10920SOL    HW244389   4.638   3.732   1.120
10921SOL     OW44390   0.022   2.558   0.593
10921SOL    HW144391   0.022   2.574   0.499
10921SOL    HW244392   4.734   2.615   0.627
10922SOL     OW44393   2.576   0.443   9.935
10922SOL    HW144394   2.492   0.425   9.892
10922SOL    HW244395   2.588   0.537   9.925
10923SOL     OW44396   4.184   4.726   8.021
10923SOL    HW144397   4.207   4.671   7.946
10923SOL    HW244398   4.102   4.690   8.053
10924SOL     OW44399   0.211   3.328  27.908
10924SOL    HW144400   0.209   3.366  27.820
10924SOL    HW244401   0.170   3.394  27.964
10925SOL     OW44402   3.492   0.257   7.825
10925SOL    HW144403   3.411   0.267   7.875
10925SOL    HW244404   3.467   0.275   7.734
10926SOL     OW44405   0.394   1.125   0.003
10926SOL    HW144406   0.380   1.214   0.034
10926SOL    HW244407   0.397   1.133  28.427
10927SOL     OW44408   3.710   2.192  19.950
10927SOL    HW144409   3.789   2.146  19.920
10927SOL    HW244410   3.647   2.122  19.968
10928SOL     OW44411   3.081   4.185  10.311
10928SOL    HW144412   3.155   4.226  10.267
10928SOL    HW244413   3.099   4.091  10.306
10929SOL     OW44414   4.624   1.715  12.688
10929SOL    HW144415   4.564   1.756  12.750
10929SOL    HW244416   4.698   1.776  12.682
10930SOL     OW44417   0.987   0.191   7.514
10930SOL    HW144418   1.004   0.209   7.606
10930SOL    HW244419   1.071   0.163   7.479
10931SOL     OW44420   3.218   0.811  10.684
10931SOL    HW144421   3.152   0.811  10.614
10931SOL    HW244422   3.274   0.886  10.664
10932SOL     OW44423   1.830   4.636   8.925
10932SOL    HW144424   1.750   4.677   8.957
10932SOL    HW244425   1.826   4.546   8.957
10933SOL     OW44426   0.068   4.625   4.121
10933SOL    HW144427   0.087   4.671   4.202
10933SOL    HW244428   0.152   4.622   4.074
10934SOL     OW44429   3.639   3.048  11.906
10934SOL    HW144430   3.704   3.091  11.961
10934SOL    HW244431   3.663   2.955  11.909
10935SOL     OW44432   0.945   0.407  26.805
10935SOL    HW144433   0.956   0.322  26.764
10935SOL    HW244434   1.015   0.461  26.769
10936SOL     OW44435   1.441   3.361  27.772
10936SOL    HW144436   1.536   3.356  27.782
10936SOL    HW244437   1.425   3.345  27.679
10937SOL     OW44438   3.664   1.080   2.856
10937SOL    HW144439   3.617   1.041   2.929
10937SOL    HW244440   3.751   1.041   2.860
10938SOL     OW44441   2.461   1.091   7.883
10938SOL    HW144442   2.535   1.151   7.889
10938SOL    HW244443   2.389   1.144   7.850
10939SOL     OW44444   0.181   2.781  19.148
10939SOL    HW144445   0.086   2.783  19.160
10939SOL    HW244446   0.208   2.872  19.160
10940SOL     OW44447   3.932   1.172  11.667
10940SOL    HW144448   3.878   1.169  11.588
10940SOL    HW244449   4.004   1.112  11.649
10941SOL     OW44450   0.913   3.620  26.727
10941SOL    HW144451   0.829   3.575  26.722
10941SOL    HW244452   0.909   3.669  26.809
10942SOL     OW44453   3.745   0.967   0.002
10942SOL    HW144454   3.696   1.045   0.028
10942SOL    HW244455   3.777   0.987  28.433
10943SOL     OW44456   0.717   1.646  23.272
10943SOL    HW144457   0.699   1.619  23.182
10943SOL    HW244458   0.672   1.730  23.281
10944SOL     OW44459   3.036   3.879   4.737
10944SOL    HW144460   3.024   3.961   4.785
10944SOL    HW244461   3.085   3.904   4.659
10945SOL     OW44462   1.779   3.891  18.332
10945SOL    HW144463   1.808   3.876  18.422
10945SOL    HW244464   1.790   3.806  18.289
10946SOL     OW44465   0.328   1.140  12.066
10946SOL    HW144466   0.254   1.080  12.056
10946SOL    HW244467   0.388   1.095  12.126
10947SOL     OW44468   1.848   2.834   3.384
10947SOL    HW144469   1.773   2.816   3.328
10947SOL    HW244470   1.812   2.836   3.473
10948SOL     OW44471   1.244   0.466   3.731
10948SOL    HW144472   1.336   0.439   3.724
10948SOL    HW244473   1.198   0.386   3.755
10949SOL     OW44474   2.624   1.578   9.514
10949SOL    HW144475   2.707   1.554   9.472
10949SOL    HW244476   2.624   1.529   9.596
10950SOL     OW44477   0.147   4.568   5.553
10950SOL    HW144478   0.072   4.588   5.608
10950SOL    HW244479   0.220   4.613   5.595
10951SOL     OW44480   3.050   0.859  11.313
10951SOL    HW144481   3.022   0.873  11.404
10951SOL    HW244482   3.048   0.946  11.274
10952SOL     OW44483   1.229   2.944   1.681
10952SOL    HW144484   1.197   2.964   1.593
10952SOL    HW244485   1.258   3.029   1.715
10953SOL     OW44486   0.707   3.630   2.604
10953SOL    HW144487   0.717   3.552   2.549
10953SOL    HW244488   0.772   3.692   2.570
10954SOL     OW44489   0.615   1.782   0.956
10954SOL    HW144490   0.708   1.761   0.956
10954SOL    HW244491   0.612   1.877   0.962
10955SOL     OW44492   1.722   1.393  11.228
10955SOL    HW144493   1.798   1.360  11.181
10955SOL    HW244494   1.747   1.482  11.253
10956SOL     OW44495   1.290   0.288   1.020
10956SOL    HW144496   1.262   0.229   0.950
10956SOL    HW244497   1.222   0.279   1.087
10957SOL     OW44498   2.285   2.232   7.478
10957SOL    HW144499   2.246   2.206   7.561
10957SOL    HW244500   2.369   2.271   7.502
10958SOL     OW44501   3.885   3.926  28.038
10958SOL    HW144502   3.811   3.987  28.038
10958SOL    HW244503   3.877   3.879  27.955
10959SOL     OW44504   1.792   3.402  26.280
10959SOL    HW144505   1.798   3.497  26.267
10959SOL    HW244506   1.880   3.369  26.262
10960SOL     OW44507   4.303   2.123  10.019
10960SOL    HW144508   4.382   2.069  10.021
10960SOL    HW244509   4.238   2.074  10.069
10961SOL     OW44510   2.654   3.854  24.114
10961SOL    HW144511   2.662   3.947  24.093
10961SOL    HW244512   2.560   3.838  24.114
10962SOL     OW44513   1.228   3.660  26.185
10962SOL    HW144514   1.306   3.617  26.150
10962SOL    HW244515   1.204   3.608  26.262
10963SOL     OW44516   1.652   1.724   9.271
10963SOL    HW144517   1.701   1.695   9.194
10963SOL    HW244518   1.696   1.682   9.345
10964SOL     OW44519   3.114   1.379   7.410
10964SOL    HW144520   3.161   1.344   7.486
10964SOL    HW244521   3.054   1.443   7.447
10965SOL     OW44522   1.759   4.716   0.018
10965SOL    HW144523   1.773   4.772   0.094
10965SOL    HW244524   1.794   4.766  28.463
10966SOL     OW44525   4.720   2.245  17.941
10966SOL    HW144526   4.721   2.338  17.964
10966SOL    HW244527   4.773   2.203  18.009
10967SOL     OW44528   0.839   3.195  19.532
10967SOL    HW144529   0.843   3.109  19.491
10967SOL    HW244530   0.806   3.178  19.620
10968SOL     OW44531   2.983   4.101   4.872
10968SOL    HW144532   2.986   4.135   4.961
10968SOL    HW244533   2.912   4.150   4.830
10969SOL     OW44534   0.023   1.619  24.206
10969SOL    HW144535   4.754   1.642  24.285
10969SOL    HW244536   0.078   1.695  24.189
10970SOL     OW44537   2.091   2.159   3.227
10970SOL    HW144538   2.004   2.192   3.206
10970SOL    HW244539   2.151   2.216   3.179
10971SOL     OW44540   2.936   0.156   6.148
10971SOL    HW144541   3.011   0.205   6.182
10971SOL    HW244542   2.955   0.144   6.055
10972SOL     OW44543   3.083   1.348  18.437
10972SOL    HW144544   3.112   1.289  18.506
10972SOL    HW244545   2.995   1.318  18.414
10973SOL     OW44546   2.098   0.781  27.254
10973SOL    HW144547   2.134   0.808  27.169
10973SOL    HW244548   2.173   0.744  27.301
10974SOL     OW44549   3.249   3.067  25.465
10974SOL    HW144550   3.155   3.082  25.474
10974SOL    HW244551   3.288   3.155  25.468
10975SOL     OW44552   3.324   3.403  12.515
10975SOL    HW144553   3.267   3.448  12.577
10975SOL    HW244554   3.336   3.315  12.552
10976SOL     OW44555   4.090   0.012  12.893
10976SOL    HW144556   4.014   0.060  12.925
10976SOL    HW244557   4.064   4.700  12.897
10977SOL     OW44558   4.699   4.220  12.445
10977SOL    HW144559   4.656   4.181  12.369
10977SOL    HW244560   4.631   4.274  12.486
10978SOL     OW44561   2.050   2.257  11.931
10978SOL    HW144562   2.040   2.168  11.899
10978SOL    HW244563   1.996   2.310  11.873
10979SOL     OW44564   2.647   2.538  12.197
10979SOL    HW144565   2.731   2.498  12.217
10979SOL    HW244566   2.613   2.566  12.282
10980SOL     OW44567   4.633   1.276  13.195
10980SOL    HW144568   4.669   1.242  13.277
10980SOL    HW244569   4.709   1.310  13.148
10981SOL     OW44570   2.244   2.735   2.036
10981SOL    HW144571   2.269   2.647   2.009
10981SOL    HW244572   2.245   2.732   2.132
10982SOL     OW44573   0.241   4.575  12.415
10982SOL    HW144574   0.268   4.483  12.409
10982SOL    HW244575   0.223   4.589  12.508
10983SOL     OW44576   3.496   1.755  11.468
10983SOL    HW144577   3.578   1.799  11.492
10983SOL    HW244578   3.515   1.662  11.480
10984SOL     OW44579   0.804   2.279  12.909
10984SOL    HW144580   0.813   2.283  13.004
10984SOL    HW244581   0.886   2.240  12.879
10985SOL     OW44582   3.228   1.559  11.430
10985SOL    HW144583   3.261   1.643  11.399
10985SOL    HW244584   3.190   1.578  11.516
10986SOL     OW44585   3.909   2.254  11.295
10986SOL    HW144586   3.828   2.300  11.316
10986SOL    HW244587   3.955   2.247  11.379
10987SOL     OW44588   4.255   0.291  12.912
10987SOL    HW144589   4.198   0.216  12.897
10987SOL    HW244590   4.207   0.365  12.876
10988SOL     OW44591   1.168   1.264  12.309
10988SOL    HW144592   1.155   1.170  12.317
10988SOL    HW244593   1.262   1.274  12.293
10989SOL     OW44594   4.471   0.249  22.960
10989SOL    HW144595   4.463   0.228  22.867
10989SOL    HW244596   4.381   0.255  22.991
10990SOL     OW44597   3.119   1.161  11.453
10990SOL    HW144598   3.071   1.087  11.491
10990SOL    HW244599   3.114   1.146  11.358
10991SOL     OW44600   0.921   3.535   2.273
10991SOL    HW144601   0.976   3.584   2.211
10991SOL    HW244602   0.984   3.490   2.330
10992SOL     OW44603   4.470   0.775  13.071
10992SOL    HW144604   4.477   0.840  13.001
10992SOL    HW244605   4.534   0.804  13.136
10993SOL     OW44606   2.190   4.674  12.901
10993SOL    HW144607   2.104   4.637  12.879
10993SOL    HW244608   2.171   4.745  12.962
10994SOL     OW44609   0.077   1.406  13.001
10994SOL    HW144610   0.147   1.381  12.941
10994SOL    HW244611   0.123   1.433  13.081
10995SOL     OW44612   4.353   1.005  11.354
10995SOL    HW144613   4.423   0.981  11.415
10995SOL    HW244614   4.311   1.081  11.395
10996SOL     OW44615   4.605   0.370  12.605
10996SOL    HW144616   4.538   0.433  12.631
10996SOL    HW244617   4.612   0.309  12.679
10997SOL     OW44618   0.318   0.627   7.365
10997SOL    HW144619   0.364   0.707   7.391
10997SOL    HW244620   0.374   0.587   7.299
10998SOL     OW44621   0.614   2.429  21.093
10998SOL    HW144622   0.672   2.371  21.143
10998SOL    HW244623   0.554   2.465  21.158
10999SOL     OW44624   0.440   0.572  12.485
10999SOL    HW144625   0.406   0.615  12.563
10999SOL    HW244626   0.481   0.492  12.518
11000SOL     OW44627   0.748   3.700  22.788
11000SOL    HW144628   0.789   3.614  22.800
11000SOL    HW244629   0.815   3.763  22.814
11001SOL     OW44630   2.999   3.395  13.095
11001SOL    HW144631   3.015   3.461  13.028
11001SOL    HW244632   2.926   3.343  13.061
11002SOL     OW44633   4.581   4.060  12.193
11002SOL    HW144634   4.553   3.980  12.149
11002SOL    HW244635   4.570   4.129  12.127
11003SOL     OW44636   3.950   1.967  11.729
11003SOL    HW144637   4.004   1.888  11.730
11003SOL    HW244638   3.975   2.015  11.808
11004SOL     OW44639   4.138   2.873   5.672
11004SOL    HW144640   4.124   2.855   5.765
11004SOL    HW244641   4.146   2.968   5.667
11005SOL     OW44642   3.882   0.988  11.935
11005SOL    HW144643   3.882   0.998  12.030
11005SOL    HW244644   3.850   0.899  11.920
11006SOL     OW44645   3.475   1.107  10.366
11006SOL    HW144646   3.561   1.099  10.408
11006SOL    HW244647   3.468   1.030  10.310
11007SOL     OW44648   0.894   2.474   1.245
11007SOL    HW144649   0.850   2.557   1.227
11007SOL    HW244650   0.830   2.423   1.295
11008SOL     OW44651   3.063   0.858  12.201
11008SOL    HW144652   2.984   0.872  12.253
11008SOL    HW244653   3.036   0.797  12.133
11009SOL     OW44654   4.446   2.575  13.311
11009SOL    HW144655   4.488   2.577  13.397
11009SOL    HW244656   4.355   2.599  13.328
11010SOL     OW44657   1.125   0.803  12.590
11010SOL    HW144658   1.131   0.728  12.531
11010SOL    HW244659   1.126   0.880  12.533
11011SOL     OW44660   4.594   0.720  12.683
11011SOL    HW144661   4.635   0.714  12.769
11011SOL    HW244662   4.509   0.677  12.694
11012SOL     OW44663   3.799   2.254  13.288
11012SOL    HW144664   3.847   2.231  13.208
11012SOL    HW244665   3.738   2.181  13.301
11013SOL     OW44666   4.216   0.172  12.188
11013SOL    HW144667   4.236   0.264  12.171
11013SOL    HW244668   4.279   0.145  12.254
11014SOL     OW44669   3.978   3.017   5.422
11014SOL    HW144670   3.983   3.049   5.512
11014SOL    HW244671   3.925   3.082   5.376
11015SOL     OW44672   4.551   2.351  13.174
11015SOL    HW144673   4.644   2.372  13.184
11015SOL    HW244674   4.505   2.425  13.213
11016SOL     OW44675   3.948   4.143  11.879
11016SOL    HW144676   3.873   4.107  11.926
11016SOL    HW244677   3.927   4.236  11.867
11017SOL     OW44678   3.839   4.315  13.823
11017SOL    HW144679   3.746   4.308  13.800
11017SOL    HW244680   3.845   4.399  13.869
11018SOL     OW44681   1.010   2.889  13.682
11018SOL    HW144682   0.992   2.964  13.626
11018SOL    HW244683   0.929   2.876  13.731
11019SOL     OW44684   3.821   0.250  25.659
11019SOL    HW144685   3.789   0.173  25.706
11019SOL    HW244686   3.813   0.321  25.723
11020SOL     OW44687   4.603   2.250  12.762
11020SOL    HW144688   4.677   2.311  12.767
11020SOL    HW244689   4.535   2.298  12.715
11021SOL     OW44690   3.538   4.575  11.340
11021SOL    HW144691   3.472   4.618  11.395
11021SOL    HW244692   3.622   4.597  11.381
11022SOL     OW44693   0.217   0.035  13.436
11022SOL    HW144694   0.135   0.075  13.408
11022SOL    HW244695   0.280   0.058  13.368
11023SOL     OW44696   1.202   2.364  12.982
11023SOL    HW144697   1.253   2.291  13.017
11023SOL    HW244698   1.151   2.395  13.056
11024SOL     OW44699   4.515   0.717  12.249
11024SOL    HW144700   4.458   0.701  12.324
11024SOL    HW244701   4.604   0.709  12.284
11025SOL     OW44702   4.360   4.442  12.939
11025SOL    HW144703   4.452   4.419  12.954
11025SOL    HW244704   4.353   4.533  12.967
11026SOL     OW44705   2.956   1.333  12.698
11026SOL    HW144706   3.025   1.394  12.724
11026SOL    HW244707   2.980   1.251  12.740
11027SOL     OW44708   3.864   1.007   6.703
11027SOL    HW144709   3.819   1.068   6.645
11027SOL    HW244710   3.922   1.062   6.755
11028SOL     OW44711   4.473   0.963  12.883
11028SOL    HW144712   4.505   1.030  12.822
11028SOL    HW244713   4.411   0.912  12.831
11029SOL     OW44714   3.717   0.586  12.823
11029SOL    HW144715   3.627   0.553  12.828
11029SOL    HW244716   3.771   0.514  12.854
11030SOL     OW44717   4.298   1.608  13.576
11030SOL    HW144718   4.349   1.663  13.517
11030SOL    HW244719   4.233   1.668  13.614
11031SOL     OW44720   3.765   1.193  12.620
11031SOL    HW144721   3.811   1.109  12.617
11031SOL    HW244722   3.799   1.237  12.698
11032SOL     OW44723   1.542   2.525  13.784
11032SOL    HW144724   1.484   2.504  13.857
11032SOL    HW244725   1.615   2.463  13.793
11033SOL     OW44726   3.626   2.041  13.366
11033SOL    HW144727   3.594   1.991  13.441
11033SOL    HW244728   3.562   2.024  13.297
11034SOL     OW44729   3.247   2.703  12.745
11034SOL    HW144730   3.190   2.628  12.726
11034SOL    HW244731   3.225   2.767  12.678
11035SOL     OW44732   3.014   1.753  12.731
11035SOL    HW144733   2.976   1.828  12.776
11035SOL    HW244734   2.988   1.764  12.639
11036SOL     OW44735   2.904   0.720  12.031
11036SOL    HW144736   2.870   0.751  11.947
11036SOL    HW244737   2.892   0.625  12.028
11037SOL     OW44738   2.926   1.254   2.221
11037SOL    HW144739   2.924   1.335   2.170
11037SOL    HW244740   2.838   1.218   2.213
11038SOL     OW44741   3.932   1.683   3.453
11038SOL    HW144742   4.020   1.645   3.458
11038SOL    HW244743   3.875   1.618   3.493
11039SOL     OW44744   0.487   2.161  10.792
11039SOL    HW144745   0.434   2.205  10.859
11039SOL    HW244746   0.429   2.153  10.717
11040SOL     OW44747   0.617   4.330  27.403
11040SOL    HW144748   0.673   4.329  27.481
11040SOL    HW244749   0.679   4.337  27.330
11041SOL     OW44750   4.158   1.077  10.945
11041SOL    HW144751   4.216   1.153  10.947
11041SOL    HW244752   4.088   1.098  11.007
11042SOL     OW44753   4.507   4.771  13.218
11042SOL    HW144754   4.560   0.070  13.228
11042SOL    HW244755   4.561   4.701  13.255
11043SOL     OW44756   4.218   1.343  13.043
11043SOL    HW144757   4.292   1.404  13.050
11043SOL    HW244758   4.249   1.263  13.086
11044SOL     OW44759   0.307   1.431  13.461
11044SOL    HW144760   0.313   1.336  13.470
11044SOL    HW244761   0.313   1.464  13.551
11045SOL     OW44762   0.268   3.576   2.433
11045SOL    HW144763   0.330   3.509   2.403
11045SOL    HW244764   0.323   3.645   2.469
11046SOL     OW44765   0.165   2.430  12.358
11046SOL    HW144766   0.238   2.459  12.412
11046SOL    HW244767   0.087   2.450  12.410
11047SOL     OW44768   1.146   0.952  12.339
11047SOL    HW144769   1.239   0.931  12.346
11047SOL    HW244770   1.110   0.881  12.285
11048SOL     OW44771   4.512   0.769  14.079
11048SOL    HW144772   4.576   0.708  14.116
11048SOL    HW244773   4.537   0.854  14.115
11049SOL     OW44774   4.455   0.772  14.595
11049SOL    HW144775   4.395   0.726  14.536
11049SOL    HW244776   4.437   0.735  14.681
11050SOL     OW44777   3.833   2.069  15.329
11050SOL    HW144778   3.792   2.073  15.416
11050SOL    HW244779   3.772   2.018  15.276
11051SOL     OW44780   4.119   0.635  15.190
11051SOL    HW144781   4.044   0.657  15.134
11051SOL    HW244782   4.193   0.631  15.130
11052SOL     OW44783   0.061   0.440  12.484
11052SOL    HW144784   4.756   0.430  12.525
11052SOL    HW244785   0.121   0.391  12.540
11053SOL     OW44786   3.711   2.362  12.688
11053SOL    HW144787   3.696   2.362  12.783
11053SOL    HW244788   3.779   2.429  12.675
11054SOL     OW44789   3.760   1.843  13.200
11054SOL    HW144790   3.699   1.899  13.248
11054SOL    HW244791   3.720   1.832  13.114
11055SOL     OW44792   0.402   0.157  13.267
11055SOL    HW144793   0.384   0.242  13.227
11055SOL    HW244794   0.475   0.173  13.327
11056SOL     OW44795   4.717   2.024  12.871
11056SOL    HW144796   4.654   2.083  12.829
11056SOL    HW244797   4.756   1.975  12.798
11057SOL     OW44798   4.235   1.357  13.871
11057SOL    HW144799   4.185   1.292  13.921
11057SOL    HW244800   4.324   1.322  13.869
11058SOL     OW44801   3.786   1.411  13.919
11058SOL    HW144802   3.706   1.382  13.876
11058SOL    HW244803   3.856   1.388  13.857
11059SOL     OW44804   0.227   1.716  13.882
11059SOL    HW144805   0.299   1.740  13.824
11059SOL    HW244806   0.158   1.780  13.863
11060SOL     OW44807   0.559   0.722  14.106
11060SOL    HW144808   0.616   0.653  14.073
11060SOL    HW244809   0.499   0.677  14.165
11061SOL     OW44810   0.116   0.895  13.745
11061SOL    HW144811   0.131   0.834  13.817
11061SOL    HW244812   0.204   0.916  13.713
11062SOL     OW44813   0.122   1.478  13.723
11062SOL    HW144814   0.186   1.527  13.774
11062SOL    HW244815   0.047   1.537  13.717
11063SOL     OW44816   4.684   1.543  13.429
11063SOL    HW144817   4.692   1.593  13.510
11063SOL    HW244818   4.606   1.489  13.442
11064SOL     OW44819   0.132   1.283  15.820
11064SOL    HW144820   0.186   1.212  15.785
11064SOL    HW244821   0.195   1.353  15.840
11065SOL     OW44822   2.300   4.764  12.306
11065SOL    HW144823   2.229   0.014  12.363
11065SOL    HW244824   2.379   4.773  12.359
11066SOL     OW44825   3.890   1.318  14.160
11066SOL    HW144826   3.848   1.355  14.082
11066SOL    HW244827   3.951   1.253  14.125
11067SOL     OW44828   3.852   3.966  12.285
11067SOL    HW144829   3.887   3.883  12.317
11067SOL    HW244830   3.789   3.993  12.352
11068SOL     OW44831   0.341   4.505  15.078
11068SOL    HW144832   0.271   4.440  15.071
11068SOL    HW244833   0.363   4.527  14.987
11069SOL     OW44834   0.165   4.611  13.585
11069SOL    HW144835   0.251   4.570  13.588
11069SOL    HW244836   0.174   4.683  13.523
11070SOL     OW44837   0.107   1.205  13.660
11070SOL    HW144838   0.125   1.293  13.693
11070SOL    HW244839   0.089   1.153  13.739
11071SOL     OW44840   0.965   0.688  13.947
11071SOL    HW144841   0.919   0.770  13.966
11071SOL    HW244842   1.047   0.695  13.995
11072SOL     OW44843   3.463   2.989  12.917
11072SOL    HW144844   3.489   3.026  12.833
11072SOL    HW244845   3.494   3.052  12.982
11073SOL     OW44846   4.761   1.913  13.797
11073SOL    HW144847   0.018   1.992  13.837
11073SOL    HW244848   4.670   1.937  13.779
11074SOL     OW44849   4.364   0.161  13.955
11074SOL    HW144850   4.337   0.239  14.004
11074SOL    HW244851   4.284   0.132  13.911
11075SOL     OW44852   0.500   1.341  16.288
11075SOL    HW144853   0.527   1.312  16.375
11075SOL    HW244854   0.470   1.431  16.302
11076SOL     OW44855   0.135   0.607  13.280
11076SOL    HW144856   0.091   0.552  13.345
11076SOL    HW244857   0.065   0.660  13.242
11077SOL     OW44858   4.064   4.246  12.198
11077SOL    HW144859   4.033   4.250  12.289
11077SOL    HW244860   4.054   4.154  12.173
11078SOL     OW44861   4.254   0.725  14.010
11078SOL    HW144862   4.346   0.747  14.025
11078SOL    HW244863   4.224   0.691  14.094
11079SOL     OW44864   0.605   1.905  14.467
11079SOL    HW144865   0.648   1.823  14.441
11079SOL    HW244866   0.644   1.927  14.551
11080SOL     OW44867   0.941   0.093  13.801
11080SOL    HW144868   0.868   0.155  13.806
11080SOL    HW244869   0.983   0.098  13.887
11081SOL     OW44870   4.273   0.401  14.104
11081SOL    HW144871   4.229   0.480  14.136
11081SOL    HW244872   4.365   0.414  14.125
11082SOL     OW44873   3.827   0.999  14.333
11082SOL    HW144874   3.793   0.940  14.400
11082SOL    HW244875   3.794   0.964  14.250
11083SOL     OW44876   0.404   0.561  14.250
11083SOL    HW144877   0.438   0.533  14.335
11083SOL    HW244878   0.385   0.479  14.204
11084SOL     OW44879   3.693   1.247  14.324
11084SOL    HW144880   3.765   1.294  14.282
11084SOL    HW244881   3.725   1.157  14.333
11085SOL     OW44882   0.071   4.384  13.332
11085SOL    HW144883   0.091   4.410  13.422
11085SOL    HW244884   0.057   4.289  13.337
11086SOL     OW44885   0.217   0.120  13.719
11086SOL    HW144886   0.144   0.181  13.725
11086SOL    HW244887   0.229   0.107  13.625
11087SOL     OW44888   3.974   2.139  14.024
11087SOL    HW144889   3.885   2.105  14.034
11087SOL    HW244890   3.982   2.207  14.091
11088SOL     OW44891   0.819   2.269  17.558
11088SOL    HW144892   0.821   2.216  17.638
11088SOL    HW244893   0.903   2.252  17.516
11089SOL     OW44894   2.922   0.463  14.715
11089SOL    HW144895   2.998   0.516  14.692
11089SOL    HW244896   2.954   0.373  14.715
11090SOL     OW44897   1.062   0.076  14.042
11090SOL    HW144898   1.055   4.766  14.073
11090SOL    HW244899   1.072   0.128  14.122
11091SOL     OW44900   4.445   2.294  14.262
11091SOL    HW144901   4.476   2.381  14.289
11091SOL    HW244902   4.489   2.278  14.178
11092SOL     OW44903   0.372   1.389  14.229
11092SOL    HW144904   0.369   1.457  14.161
11092SOL    HW244905   0.330   1.429  14.305
11093SOL     OW44906   0.902   1.576  14.851
11093SOL    HW144907   0.914   1.485  14.823
11093SOL    HW244908   0.991   1.612  14.854
11094SOL     OW44909   4.725   1.260  13.448
11094SOL    HW144910   4.777   1.248  13.527
11094SOL    HW244911   4.711   1.354  13.442
11095SOL     OW44912   0.387   1.539  14.023
11095SOL    HW144913   0.319   1.598  13.991
11095SOL    HW244914   0.416   1.492  13.945
11096SOL     OW44915   1.372   0.342  12.321
11096SOL    HW144916   1.303   0.347  12.254
11096SOL    HW244917   1.437   0.407  12.293
11097SOL     OW44918   0.903   1.471  14.070
11097SOL    HW144919   0.934   1.491  14.158
11097SOL    HW244920   0.810   1.495  14.072
11098SOL     OW44921   4.512   0.448  13.540
11098SOL    HW144922   4.426   0.481  13.513
11098SOL    HW244923   4.496   0.404  13.623
11099SOL     OW44924   0.978   0.136  13.525
11099SOL    HW144925   1.047   0.075  13.497
11099SOL    HW244926   0.968   0.120  13.619
11100SOL     OW44927   4.335   1.209  13.367
11100SOL    HW144928   4.371   1.172  13.286
11100SOL    HW244929   4.401   1.271  13.397
11101SOL     OW44930   0.690   1.248  14.459
11101SOL    HW144931   0.770   1.237  14.511
11101SOL    HW244932   0.621   1.260  14.524
11102SOL     OW44933   3.143   1.523  12.794
11102SOL    HW144934   3.102   1.604  12.764
11102SOL    HW244935   3.208   1.551  12.859
11103SOL     OW44936   0.403   4.437  13.352
11103SOL    HW144937   0.496   4.456  13.338
11103SOL    HW244938   0.395   4.427  13.447
11104SOL     OW44939   4.124   1.379  13.479
11104SOL    HW144940   4.177   1.306  13.448
11104SOL    HW244941   4.188   1.448  13.498
11105SOL     OW44942   4.484   1.631  13.819
11105SOL    HW144943   4.395   1.660  13.799
11105SOL    HW244944   4.475   1.579  13.899
11106SOL     OW44945   4.740   4.170  14.018
11106SOL    HW144946   4.778   4.103  13.960
11106SOL    HW244947   0.021   4.244  14.013
11107SOL     OW44948   4.492   0.361  13.785
11107SOL    HW144949   4.517   0.418  13.857
11107SOL    HW244950   4.451   0.286  13.827
11108SOL     OW44951   3.854   1.148  16.354
11108SOL    HW144952   3.791   1.125  16.422
11108SOL    HW244953   3.800   1.164  16.276
11109SOL     OW44954   0.342   0.682  14.793
11109SOL    HW144955   0.327   0.662  14.701
11109SOL    HW244956   0.315   0.603  14.840
11110SOL     OW44957   4.669   2.184  16.307
11110SOL    HW144958   4.641   2.096  16.330
11110SOL    HW244959   4.679   2.182  16.212
11111SOL     OW44960   4.503   3.768  15.595
11111SOL    HW144961   4.592   3.782  15.564
11111SOL    HW244962   4.487   3.840  15.656
11112SOL     OW44963   3.747   2.012  16.472
11112SOL    HW144964   3.704   1.985  16.391
11112SOL    HW244965   3.829   1.962  16.474
11113SOL     OW44966   0.226   1.565  15.181
11113SOL    HW144967   0.229   1.650  15.138
11113SOL    HW244968   0.261   1.504  15.116
11114SOL     OW44969   1.326   1.266  15.537
11114SOL    HW144970   1.255   1.202  15.534
11114SOL    HW244971   1.293   1.341  15.489
11115SOL     OW44972   3.843   2.095  14.458
11115SOL    HW144973   3.938   2.087  14.468
11115SOL    HW244974   3.831   2.152  14.382
11116SOL     OW44975   1.238   3.307  15.487
11116SOL    HW144976   1.149   3.271  15.480
11116SOL    HW244977   1.247   3.363  15.410
11117SOL     OW44978   3.484   0.526  14.997
11117SOL    HW144979   3.389   0.511  14.999
11117SOL    HW244980   3.521   0.456  15.051
11118SOL     OW44981   0.981   4.441  15.273
11118SOL    HW144982   0.910   4.496  15.240
11118SOL    HW244983   0.939   4.358  15.295
11119SOL     OW44984   0.136   0.983  15.168
11119SOL    HW144985   0.049   1.022  15.181
11119SOL    HW244986   0.120   0.906  15.114
11120SOL     OW44987   1.120   2.323  15.108
11120SOL    HW144988   1.027   2.305  15.095
11120SOL    HW244989   1.133   2.315  15.203
11121SOL     OW44990   4.627   0.981  14.603
11121SOL    HW144991   4.606   1.035  14.679
11121SOL    HW244992   4.558   0.915  14.601
11122SOL     OW44993   4.038   0.795  18.254
11122SOL    HW144994   4.043   0.844  18.172
11122SOL    HW244995   4.085   0.713  18.236
11123SOL     OW44996   0.291   1.117  14.981
11123SOL    HW144997   0.231   1.068  15.038
11123SOL    HW244998   0.361   1.055  14.961
11124SOL     OW44999   0.561   4.534  15.237
11124SOL    HW145000   0.637   4.573  15.195
11124SOL    HW245001   0.492   4.539  15.171
11125SOL     OW45002   1.022   1.251  15.397
11125SOL    HW145003   0.962   1.321  15.370
11125SOL    HW245004   0.966   1.189  15.443
11126SOL     OW45005   4.765   0.286  16.434
11126SOL    HW145006   4.685   0.334  16.412
11126SOL    HW245007   0.014   0.325  16.517
11127SOL     OW45008   0.070   1.930  16.388
11127SOL    HW145009   0.124   1.903  16.314
11127SOL    HW245010   4.762   1.903  16.364
11128SOL     OW45011   4.281   4.651  15.977
11128SOL    HW145012   4.259   4.568  15.935
11128SOL    HW245013   4.371   4.639  16.008
11129SOL     OW45014   1.187   1.622  14.882
11129SOL    HW145015   1.184   1.573  14.964
11129SOL    HW245016   1.239   1.700  14.903
11130SOL     OW45017   3.762   2.134  16.032
11130SOL    HW145018   3.724   2.116  15.946
11130SOL    HW245019   3.757   2.229  16.041
11131SOL     OW45020   0.257   1.726  15.582
11131SOL    HW145021   0.318   1.762  15.517
11131SOL    HW245022   0.250   1.633  15.560
11132SOL     OW45023   0.409   0.098  15.299
11132SOL    HW145024   0.397   0.149  15.219
11132SOL    HW245025   0.334   0.038  15.300
11133SOL     OW45026   0.243   0.663  15.661
11133SOL    HW145027   0.148   0.662  15.648
11133SOL    HW245028   0.277   0.602  15.595
11134SOL     OW45029   0.053   1.675  16.512
11134SOL    HW145030   0.095   1.625  16.442
11134SOL    HW245031   0.076   1.766  16.494
11135SOL     OW45032   0.518   1.230  16.039
11135SOL    HW145033   0.511   1.285  16.117
11135SOL    HW245034   0.580   1.162  16.063
11136SOL     OW45035   4.681   1.641  16.973
11136SOL    HW145036   4.757   1.585  16.990
11136SOL    HW245037   4.649   1.612  16.887
11137SOL     OW45038   0.591   4.744  15.450
11137SOL    HW145039   0.552   4.665  15.413
11137SOL    HW245040   0.541   0.036  15.413
11138SOL     OW45041   0.217   1.219  15.328
11138SOL    HW145042   0.186   1.161  15.398
11138SOL    HW245043   0.204   1.169  15.248
11139SOL     OW45044   3.173   0.548  16.096
11139SOL    HW145045   3.139   0.629  16.058
11139SOL    HW245046   3.244   0.576  16.153
11140SOL     OW45047   0.127   0.732  13.947
11140SOL    HW145048   0.061   0.703  14.009
11140SOL    HW245049   0.194   0.773  14.001
11141SOL     OW45050   0.650   1.480  15.469
11141SOL    HW145051   0.736   1.486  15.426
11141SOL    HW245052   0.602   1.415  15.417
11142SOL     OW45053   0.227   1.386  14.977
11142SOL    HW145054   0.240   1.291  14.982
11142SOL    HW245055   0.181   1.399  14.894
11143SOL     OW45056   4.016   1.401  13.749
11143SOL    HW145057   4.016   1.405  13.653
11143SOL    HW245058   4.109   1.395  13.773
11144SOL     OW45059   0.637   0.965  15.664
11144SOL    HW145060   0.571   1.032  15.682
11144SOL    HW245061   0.588   0.894  15.622
11145SOL     OW45062   0.092   4.241  16.805
11145SOL    HW145063   0.002   4.272  16.794
11145SOL    HW245064   0.132   4.251  16.718
11146SOL     OW45065   4.774   0.588  13.759
11146SOL    HW145066   4.692   0.627  13.787
11146SOL    HW245067   0.059   0.621  13.821
11147SOL     OW45068   4.624   3.936  15.787
11147SOL    HW145069   4.555   3.987  15.744
11147SOL    HW245070   4.663   3.997  15.850
11148SOL     OW45071   0.803   1.050  15.459
11148SOL    HW145072   0.747   1.018  15.388
11148SOL    HW245073   0.761   1.017  15.539
11149SOL     OW45074   4.010   4.162  14.812
11149SOL    HW145075   3.979   4.088  14.760
11149SOL    HW245076   3.984   4.239  14.762
11150SOL     OW45077   1.017   1.722  15.200
11150SOL    HW145078   1.013   1.779  15.277
11150SOL    HW245079   0.989   1.778  15.128
11151SOL     OW45080   1.247   1.499  15.445
11151SOL    HW145081   1.163   1.526  15.482
11151SOL    HW245082   1.235   1.508  15.350
11152SOL     OW45083   0.542   2.754  16.761
11152SOL    HW145084   0.594   2.834  16.753
11152SOL    HW245085   0.528   2.725  16.671
11153SOL     OW45086   0.547   0.154  15.938
11153SOL    HW145087   0.589   0.094  15.877
11153SOL    HW245088   0.497   0.214  15.882
11154SOL     OW45089   3.222   2.090  16.346
11154SOL    HW145090   3.279   2.060  16.417
11154SOL    HW245091   3.270   2.162  16.305
11155SOL     OW45092   4.488   0.600  17.129
11155SOL    HW145093   4.421   0.532  17.127
11155SOL    HW245094   4.522   0.602  17.040
11156SOL     OW45095   4.591   3.209  26.195
11156SOL    HW145096   4.581   3.118  26.223
11156SOL    HW245097   4.538   3.215  26.116
11157SOL     OW45098   3.415   0.632  14.752
11157SOL    HW145099   3.448   0.718  14.726
11157SOL    HW245100   3.464   0.610  14.831
11158SOL     OW45101   4.557   0.743  13.817
11158SOL    HW145102   4.469   0.715  13.791
11158SOL    HW245103   4.550   0.757  13.912
11159SOL     OW45104   4.476   1.457  15.936
11159SOL    HW145105   4.494   1.531  15.878
11159SOL    HW245106   4.562   1.427  15.965
11160SOL     OW45107   0.868   2.041  13.961
11160SOL    HW145108   0.872   1.955  13.920
11160SOL    HW245109   0.850   2.023  14.053
11161SOL     OW45110   3.581   1.573  15.593
11161SOL    HW145111   3.553   1.542  15.507
11161SOL    HW245112   3.652   1.634  15.575
11162SOL     OW45113   0.023   1.654  14.571
11162SOL    HW145114   0.083   1.609  14.511
11162SOL    HW245115   4.760   1.719  14.516
11163SOL     OW45116   4.473   0.222  16.042
11163SOL    HW145117   4.380   0.208  16.022
11163SOL    HW245118   4.515   0.140  16.015
11164SOL     OW45119   4.277   2.051  14.957
11164SOL    HW145120   4.221   2.127  14.972
11164SOL    HW245121   4.260   2.027  14.866
11165SOL     OW45122   3.832   0.894  15.973
11165SOL    HW145123   3.749   0.938  15.990
11165SOL    HW245124   3.824   0.863  15.883
11166SOL     OW45125   0.399   0.241  14.764
11166SOL    HW145126   0.322   0.247  14.708
11166SOL    HW245127   0.467   0.289  14.717
11167SOL     OW45128   4.267   1.467  15.715
11167SOL    HW145129   4.328   1.445  15.786
11167SOL    HW245130   4.323   1.490  15.641
11168SOL     OW45131   0.190   0.071  14.946
11168SOL    HW145132   0.165   4.764  14.976
11168SOL    HW245133   0.108   0.111  14.917
11169SOL     OW45134   0.907   1.187  14.602
11169SOL    HW145135   0.951   1.230  14.529
11169SOL    HW245136   0.919   1.247  14.676
11170SOL     OW45137   0.686   4.453  16.143
11170SOL    HW145138   0.658   4.473  16.054
11170SOL    HW245139   0.641   4.371  16.164
11171SOL     OW45140   4.147   2.297  15.010
11171SOL    HW145141   4.178   2.385  15.029
11171SOL    HW245142   4.104   2.268  15.090
11172SOL     OW45143   4.537   0.688  15.126
11172SOL    HW145144   4.451   0.667  15.090
11172SOL    HW245145   4.586   0.723  15.052
11173SOL     OW45146   4.004   1.719  16.760
11173SOL    HW145147   4.039   1.631  16.749
11173SOL    HW245148   3.981   1.747  16.671
11174SOL     OW45149   1.199   2.474  14.870
11174SOL    HW145150   1.286   2.454  14.836
11174SOL    HW245151   1.191   2.419  14.948
11175SOL     OW45152   4.712   0.187  15.853
11175SOL    HW145153   4.686   0.216  15.765
11175SOL    HW245154   4.729   0.093  15.843
11176SOL     OW45155   0.190   1.854  16.159
11176SOL    HW145156   0.134   1.798  16.105
11176SOL    HW245157   0.277   1.815  16.152
11177SOL     OW45158   0.361   0.224  16.184
11177SOL    HW145159   0.328   0.292  16.125
11177SOL    HW245160   0.423   0.270  16.240
11178SOL     OW45161   3.426   2.006  16.488
11178SOL    HW145162   3.506   2.005  16.436
11178SOL    HW245163   3.445   1.950  16.563
11179SOL     OW45164   4.611   0.840  14.903
11179SOL    HW145165   4.544   0.907  14.918
11179SOL    HW245166   4.565   0.771  14.855
11180SOL     OW45167   0.794   1.394  15.714
11180SOL    HW145168   0.749   1.457  15.658
11180SOL    HW245169   0.754   1.310  15.693
11181SOL     OW45170   0.006   2.338  14.344
11181SOL    HW145171   4.711   2.382  14.384
11181SOL    HW245172   4.751   2.299  14.264
11182SOL     OW45173   1.904   4.264  14.142
11182SOL    HW145174   1.855   4.332  14.187
11182SOL    HW245175   1.841   4.193  14.129
11183SOL     OW45176   3.797   4.482  15.275
11183SOL    HW145177   3.807   4.461  15.182
11183SOL    HW245178   3.853   4.558  15.289
11184SOL     OW45179   3.794   2.253  15.031
11184SOL    HW145180   3.867   2.257  15.092
11184SOL    HW245181   3.721   2.219  15.083
11185SOL     OW45182   0.895   3.654  15.657
11185SOL    HW145183   0.986   3.671  15.634
11185SOL    HW245184   0.876   3.716  15.727
11186SOL     OW45185   1.438   4.287  15.071
11186SOL    HW145186   1.354   4.286  15.116
11186SOL    HW245187   1.493   4.227  15.122
11187SOL     OW45188   0.890   2.444  14.876
11187SOL    HW145189   0.880   2.533  14.909
11187SOL    HW245190   0.903   2.454  14.782
11188SOL     OW45191   3.506   0.448  23.641
11188SOL    HW145192   3.463   0.524  23.679
11188SOL    HW245193   3.435   0.395  23.605
11189SOL     OW45194   2.208   0.462  15.298
11189SOL    HW145195   2.296   0.466  15.260
11189SOL    HW245196   2.161   0.397  15.245
11190SOL     OW45197   0.709   1.913   4.352
11190SOL    HW145198   0.786   1.923   4.296
11190SOL    HW245199   0.717   1.983   4.417
11191SOL     OW45200   2.706   3.075  18.204
11191SOL    HW145201   2.736   3.133  18.134
11191SOL    HW245202   2.767   3.091  18.276
11192SOL     OW45203   0.519   3.670  15.933
11192SOL    HW145204   0.561   3.661  15.848
11192SOL    HW245205   0.449   3.733  15.919
11193SOL     OW45206   2.933   2.371  23.556
11193SOL    HW145207   2.983   2.453  23.556
11193SOL    HW245208   2.849   2.394  23.516
11194SOL     OW45209   4.275   3.401  18.307
11194SOL    HW145210   4.255   3.408  18.214
11194SOL    HW245211   4.357   3.450  18.318
11195SOL     OW45212   4.657   3.818  24.244
11195SOL    HW145213   4.735   3.863  24.277
11195SOL    HW245214   4.591   3.887  24.234
11196SOL     OW45215   2.104   4.211  23.924
11196SOL    HW145216   2.091   4.117  23.914
11196SOL    HW245217   2.018   4.249  23.908
11197SOL     OW45218   0.957   3.448  26.135
11197SOL    HW145219   1.028   3.506  26.162
11197SOL    HW245220   0.970   3.437  26.041
11198SOL     OW45221   1.521   2.180  16.126
11198SOL    HW145222   1.586   2.142  16.068
11198SOL    HW245223   1.437   2.164  16.082
11199SOL     OW45224   4.153   3.196  17.694
11199SOL    HW145225   4.167   3.291  17.696
11199SOL    HW245226   4.148   3.171  17.786
11200SOL     OW45227   1.005   3.550  16.283
11200SOL    HW145228   1.004   3.633  16.236
11200SOL    HW245229   0.965   3.488  16.222
11201SOL     OW45230   1.510   3.533  18.428
11201SOL    HW145231   1.594   3.572  18.453
11201SOL    HW245232   1.469   3.509  18.511
11202SOL     OW45233   0.879   0.009  15.792
11202SOL    HW145234   0.901   4.766  15.882
11202SOL    HW245235   0.954   4.759  15.741
11203SOL     OW45236   2.053   3.550  20.353
11203SOL    HW145237   2.108   3.471  20.353
11203SOL    HW245238   2.071   3.591  20.437
11204SOL     OW45239   4.190   4.770   2.212
11204SOL    HW145240   4.113   0.045   2.198
11204SOL    HW245241   4.190   4.752   2.306
11205SOL     OW45242   3.607   2.004  16.236
11205SOL    HW145243   3.677   2.019  16.173
11205SOL    HW245244   3.540   2.068  16.212
11206SOL     OW45245   4.275   0.752  16.284
11206SOL    HW145246   4.272   0.839  16.324
11206SOL    HW245247   4.333   0.763  16.209
11207SOL     OW45248   0.679   1.760  17.055
11207SOL    HW145249   0.755   1.733  17.004
11207SOL    HW245250   0.716   1.809  17.129
11208SOL     OW45251   4.450   4.488  22.405
11208SOL    HW145252   4.522   4.463  22.347
11208SOL    HW245253   4.372   4.485  22.349
11209SOL     OW45254   0.001   3.039   8.838
11209SOL    HW145255   0.084   3.021   8.795
11209SOL    HW245256   4.733   2.956   8.833
11210SOL     OW45257   4.221   2.959   5.289
11210SOL    HW145258   4.206   3.049   5.262
11210SOL    HW245259   4.148   2.939   5.347
11211SOL     OW45260   3.493   3.688  19.156
11211SOL    HW145261   3.494   3.634  19.077
11211SOL    HW245262   3.523   3.774  19.127
11212SOL     OW45263   4.239   3.860  17.208
11212SOL    HW145264   4.167   3.865  17.145
11212SOL    HW245265   4.312   3.824  17.158
11213SOL     OW45266   0.036   4.515  15.358
11213SOL    HW145267   4.741   4.548  15.310
11213SOL    HW245268   0.042   4.422  15.335
11214SOL     OW45269   3.533   0.803  20.867
11214SOL    HW145270   3.608   0.775  20.814
11214SOL    HW245271   3.566   0.876  20.919
11215SOL     OW45272   3.693   2.393  16.041
11215SOL    HW145273   3.683   2.430  16.129
11215SOL    HW245274   3.655   2.459  15.983
11216SOL     OW45275   4.772   4.777  17.245
11216SOL    HW145276   4.704   4.711  17.259
11216SOL    HW245277   0.042   4.744  17.170
11217SOL     OW45278   4.075   3.593  21.662
11217SOL    HW145279   4.058   3.525  21.596
11217SOL    HW245280   4.159   3.568  21.701
11218SOL     OW45281   3.090   1.164  18.627
11218SOL    HW145282   3.069   1.170  18.720
11218SOL    HW245283   3.112   1.072  18.613
11219SOL     OW45284   1.536   0.653  22.355
11219SOL    HW145285   1.475   0.726  22.366
11219SOL    HW245286   1.541   0.641  22.260
11220SOL     OW45287   4.696   2.222  16.037
11220SOL    HW145288   0.005   2.224  16.004
11220SOL    HW245289   4.645   2.267  15.970
11221SOL     OW45290   0.820   4.605  17.535
11221SOL    HW145291   0.901   4.607  17.585
11221SOL    HW245292   0.778   4.689  17.555
11222SOL     OW45293   4.299   1.604  16.933
11222SOL    HW145294   4.208   1.576  16.929
11222SOL    HW245295   4.332   1.593  16.844
11223SOL     OW45296   4.316   3.352   8.473
11223SOL    HW145297   4.364   3.301   8.538
11223SOL    HW245298   4.366   3.433   8.464
11224SOL     OW45299   3.652   3.572  24.297
11224SOL    HW145300   3.564   3.537  24.308
11224SOL    HW245301   3.639   3.665  24.279
11225SOL     OW45302   1.502   0.757  24.226
11225SOL    HW145303   1.491   0.774  24.132
11225SOL    HW245304   1.416   0.774  24.264
11226SOL     OW45305   4.749   3.661   3.763
11226SOL    HW145306   4.698   3.738   3.786
11226SOL    HW245307   4.721   3.594   3.826
11227SOL     OW45308   1.838   0.059   0.769
11227SOL    HW145309   1.870   4.757   0.806
11227SOL    HW245310   1.851   0.123   0.839
11228SOL     OW45311   0.097   1.097  15.531
11228SOL    HW145312   0.024   1.035  15.529
11228SOL    HW245313   0.148   1.071  15.608
11229SOL     OW45314   2.963   1.293  19.176
11229SOL    HW145315   2.990   1.211  19.217
11229SOL    HW245316   2.895   1.328  19.233
11230SOL     OW45317   4.761   4.704  16.934
11230SOL    HW145318   4.709   4.780  16.908
11230SOL    HW245319   4.764   4.649  16.856
11231SOL     OW45320   1.397   3.958  16.703
11231SOL    HW145321   1.391   3.863  16.692
11231SOL    HW245322   1.460   3.986  16.637
11232SOL     OW45323   0.389   1.629  22.024
11232SOL    HW145324   0.437   1.564  22.075
11232SOL    HW245325   0.425   1.713  22.052
11233SOL     OW45326   1.256   1.220  19.954
11233SOL    HW145327   1.274   1.196  19.863
11233SOL    HW245328   1.164   1.245  19.955
11234SOL     OW45329   3.997   1.972  18.929
11234SOL    HW145330   4.068   1.985  18.992
11234SOL    HW245331   4.038   1.981  18.843
11235SOL     OW45332   3.353   4.326  17.593
11235SOL    HW145333   3.261   4.299  17.593
11235SOL    HW245334   3.398   4.257  17.642
11236SOL     OW45335   4.515   1.012   8.612
11236SOL    HW145336   4.504   1.018   8.517
11236SOL    HW245337   4.458   0.940   8.638
11237SOL     OW45338   4.477   3.155   5.938
11237SOL    HW145339   4.415   3.198   5.996
11237SOL    HW245340   4.558   3.204   5.949
11238SOL     OW45341   1.694   1.524  10.796
11238SOL    HW145342   1.616   1.564  10.835
11238SOL    HW245343   1.692   1.433  10.826
11239SOL     OW45344   3.921   4.491   4.683
11239SOL    HW145345   4.015   4.498   4.665
11239SOL    HW245346   3.915   4.470   4.776
11240SOL     OW45347   4.185   3.144  18.327
11240SOL    HW145348   4.221   3.232  18.322
11240SOL    HW245349   4.257   3.090  18.359
11241SOL     OW45350   1.747   0.724   1.337
11241SOL    HW145351   1.779   0.680   1.258
11241SOL    HW245352   1.655   0.742   1.319
11242SOL     OW45353   3.474   2.994  22.594
11242SOL    HW145354   3.510   3.031  22.674
11242SOL    HW245355   3.410   3.059  22.564
11243SOL     OW45356   1.114   4.516  11.510
11243SOL    HW145357   1.210   4.515  11.505
11243SOL    HW245358   1.095   4.576  11.582
11244SOL     OW45359   2.642   2.372   2.903
11244SOL    HW145360   2.564   2.425   2.919
11244SOL    HW245361   2.674   2.349   2.990
11245SOL     OW45362   0.740   1.749  26.343
11245SOL    HW145363   0.795   1.715  26.272
11245SOL    HW245364   0.802   1.780  26.409
11246SOL     OW45365   4.759   2.064  19.972
11246SOL    HW145366   4.697   2.137  19.979
11246SOL    HW245367   4.716   2.002  19.913
11247SOL     OW45368   1.849   3.302   6.801
11247SOL    HW145369   1.882   3.316   6.890
11247SOL    HW245370   1.770   3.249   6.813
11248SOL     OW45371   0.463   3.607  17.503
11248SOL    HW145372   0.533   3.583  17.563
11248SOL    HW245373   0.488   3.568  17.419
11249SOL     OW45374   0.001   1.442  18.140
11249SOL    HW145375   4.730   1.400  18.071
11249SOL    HW245376   0.007   1.376  18.209
11250SOL     OW45377   2.281   4.198  15.659
11250SOL    HW145378   2.351   4.164  15.603
11250SOL    HW245379   2.223   4.246  15.600
11251SOL     OW45380   4.168   0.512  24.990
11251SOL    HW145381   4.219   0.542  24.915
11251SOL    HW245382   4.157   0.418  24.975
11252SOL     OW45383   4.130   3.361  18.572
11252SOL    HW145384   4.088   3.275  18.581
11252SOL    HW245385   4.165   3.361  18.483
11253SOL     OW45386   0.193   4.638  17.076
11253SOL    HW145387   0.178   4.546  17.096
11253SOL    HW245388   0.123   4.662  17.016
11254SOL     OW45389   0.485   4.327   0.431
11254SOL    HW145390   0.519   4.385   0.499
11254SOL    HW245391   0.391   4.345   0.428
11255SOL     OW45392   0.987   3.809  16.190
11255SOL    HW145393   1.066   3.844  16.150
11255SOL    HW245394   0.915   3.852  16.143
11256SOL     OW45395   4.317   4.676  17.418
11256SOL    HW145396   4.410   4.662  17.434
11256SOL    HW245397   4.278   4.589  17.425
11257SOL     OW45398   4.217   3.485  17.398
11257SOL    HW145399   4.212   3.562  17.454
11257SOL    HW245400   4.268   3.514  17.322
11258SOL     OW45401   2.157   1.211   8.898
11258SOL    HW145402   2.070   1.181   8.872
11258SOL    HW245403   2.178   1.161   8.977
11259SOL     OW45404   2.403   4.256  15.882
11259SOL    HW145405   2.354   4.223  15.807
11259SOL    HW245406   2.417   4.349  15.862
11260SOL     OW45407   0.868   3.549  25.729
11260SOL    HW145408   0.810   3.574  25.801
11260SOL    HW245409   0.861   3.621  25.666
11261SOL     OW45410   3.425   4.458  17.364
11261SOL    HW145411   3.367   4.534  17.376
11261SOL    HW245412   3.408   4.403  17.440
11262SOL     OW45413   0.093   3.614   2.733
11262SOL    HW145414   0.076   3.547   2.666
11262SOL    HW245415   0.188   3.610   2.746
11263SOL     OW45416   0.073   4.618  17.931
11263SOL    HW145417   0.129   4.562  17.985
11263SOL    HW245418   0.043   4.687  17.990
11264SOL     OW45419   0.303   3.789  27.585
11264SOL    HW145420   0.393   3.775  27.614
11264SOL    HW245421   0.309   3.854  27.516
11265SOL     OW45422   2.743   4.112  23.322
11265SOL    HW145423   2.698   4.081  23.400
11265SOL    HW245424   2.726   4.206  23.320
11266SOL     OW45425   3.433   2.841  27.631
11266SOL    HW145426   3.413   2.752  27.661
11266SOL    HW245427   3.410   2.897  27.705
11267SOL     OW45428   1.385   4.204  16.821
11267SOL    HW145429   1.352   4.193  16.910
11267SOL    HW245430   1.373   4.118  16.780
11268SOL     OW45431   2.891   0.642   3.253
11268SOL    HW145432   2.937   0.595   3.323
11268SOL    HW245433   2.961   0.671   3.194
11269SOL     OW45434   0.220   4.735  21.064
11269SOL    HW145435   0.127   4.726  21.044
11269SOL    HW245436   0.261   4.748  20.979
11270SOL     OW45437   4.590   1.926  16.284
11270SOL    HW145438   4.497   1.945  16.293
11270SOL    HW245439   4.606   1.924  16.190
11271SOL     OW45440   2.513   3.928   4.693
11271SOL    HW145441   2.461   3.866   4.744
11271SOL    HW245442   2.572   3.968   4.757
11272SOL     OW45443   0.112   0.856  16.154
11272SOL    HW145444   0.064   0.922  16.104
11272SOL    HW245445   0.162   0.808  16.088
11273SOL     OW45446   2.699   1.034  21.477
11273SOL    HW145447   2.674   0.949  21.441
11273SOL    HW245448   2.651   1.097  21.423
11274SOL     OW45449   0.203   2.491  21.279
11274SOL    HW145450   0.149   2.436  21.222
11274SOL    HW245451   0.265   2.533  21.219
11275SOL     OW45452   3.721   0.629   2.087
11275SOL    HW145453   3.775   0.582   2.151
11275SOL    HW245454   3.683   0.560   2.033
11276SOL     OW45455   0.534   2.768  25.930
11276SOL    HW145456   0.557   2.728  26.014
11276SOL    HW245457   0.452   2.814  25.946
11277SOL     OW45458   0.176   2.693   4.295
11277SOL    HW145459   0.221   2.700   4.379
11277SOL    HW245460   0.089   2.660   4.317
11278SOL     OW45461   4.213   0.110  16.066
11278SOL    HW145462   4.234   0.021  16.037
11278SOL    HW245463   4.127   0.128  16.029
11279SOL     OW45464   1.102   4.330  26.354
11279SOL    HW145465   1.107   4.286  26.269
11279SOL    HW245466   1.048   4.407  26.338
11280SOL     OW45467   2.470   0.179   1.969
11280SOL    HW145468   2.396   0.237   1.953
11280SOL    HW245469   2.547   0.235   1.960
11281SOL     OW45470   0.470   0.425  17.135
11281SOL    HW145471   0.466   0.368  17.058
11281SOL    HW245472   0.437   0.509  17.104
11282SOL     OW45473   2.691   2.169  24.507
11282SOL    HW145474   2.755   2.240  24.509
11282SOL    HW245475   2.743   2.090  24.489
11283SOL     OW45476   2.295   4.733  23.195
11283SOL    HW145477   2.359   4.702  23.131
11283SOL    HW245478   2.242   4.656  23.215
11284SOL     OW45479   1.063   3.605  24.242
11284SOL    HW145480   1.009   3.585  24.319
11284SOL    HW245481   1.131   3.537  24.242
11285SOL     OW45482   2.757   4.006  16.417
11285SOL    HW145483   2.685   3.943  16.410
11285SOL    HW245484   2.826   3.970  16.361
11286SOL     OW45485   0.355   1.561  18.799
11286SOL    HW145486   0.306   1.588  18.877
11286SOL    HW245487   0.395   1.478  18.824
11287SOL     OW45488   4.090   1.510   5.023
11287SOL    HW145489   4.059   1.423   4.998
11287SOL    HW245490   4.071   1.517   5.117
11288SOL     OW45491   1.077   2.638  25.351
11288SOL    HW145492   1.037   2.653  25.265
11288SOL    HW245493   1.074   2.723  25.394
11289SOL     OW45494   1.695   4.463   3.131
11289SOL    HW145495   1.728   4.387   3.083
11289SOL    HW245496   1.701   4.536   3.069
11290SOL     OW45497   1.533   1.918   3.119
11290SOL    HW145498   1.443   1.906   3.149
11290SOL    HW245499   1.570   1.983   3.178
11291SOL     OW45500   3.502   3.107   3.761
11291SOL    HW145501   3.559   3.031   3.770
11291SOL    HW245502   3.421   3.082   3.805
11292SOL     OW45503   1.058   4.253  27.332
11292SOL    HW145504   1.044   4.274  27.424
11292SOL    HW245505   1.054   4.338  27.288
11293SOL     OW45506   4.298   3.533  23.374
11293SOL    HW145507   4.288   3.511  23.281
11293SOL    HW245508   4.359   3.468  23.408
11294SOL     OW45509   0.891   1.684  20.157
11294SOL    HW145510   0.945   1.763  20.153
11294SOL    HW245511   0.952   1.614  20.181
11295SOL     OW45512   2.858   4.771   3.809
11295SOL    HW145513   2.934   0.048   3.815
11295SOL    HW245514   2.834   4.754   3.900
11296SOL     OW45515   0.109   1.162  22.342
11296SOL    HW145516   0.115   1.257  22.334
11296SOL    HW245517   0.024   1.147  22.384
11297SOL     OW45518   4.199   0.044  21.927
11297SOL    HW145519   4.276   0.068  21.876
11297SOL    HW245520   4.212   0.087  22.012
11298SOL     OW45521   1.343   4.324   8.198
11298SOL    HW145522   1.433   4.305   8.223
11298SOL    HW245523   1.290   4.282   8.266
11299SOL     OW45524   4.198   2.307  21.882
11299SOL    HW145525   4.150   2.317  21.964
11299SOL    HW245526   4.288   2.290  21.909
11300SOL     OW45527   4.158   4.362  27.303
11300SOL    HW145528   4.169   4.454  27.327
11300SOL    HW245529   4.087   4.362  27.239
11301SOL     OW45530   4.628   4.660   7.800
11301SOL    HW145531   4.667   4.622   7.721
11301SOL    HW245532   4.582   4.587   7.842
11302SOL     OW45533   1.740   1.284  17.926
11302SOL    HW145534   1.828   1.247  17.926
11302SOL    HW245535   1.751   1.374  17.956
11303SOL     OW45536   4.311   3.898   6.194
11303SOL    HW145537   4.285   3.818   6.240
11303SOL    HW245538   4.384   3.932   6.245
11304SOL     OW45539   4.605   0.132  10.058
11304SOL    HW145540   4.583   0.161   9.969
11304SOL    HW245541   4.522   0.133  10.105
11305SOL     OW45542   2.590   2.685  26.050
11305SOL    HW145543   2.561   2.624  25.982
11305SOL    HW245544   2.656   2.740  26.007
11306SOL     OW45545   2.891   4.469  10.584
11306SOL    HW145546   2.850   4.429  10.661
11306SOL    HW245547   2.979   4.491  10.613
11307SOL     OW45548   1.198   3.611  16.942
11307SOL    HW145549   1.112   3.593  16.904
11307SOL    HW245550   1.259   3.602  16.869
11308SOL     OW45551   1.101   1.739  22.726
11308SOL    HW145552   1.125   1.817  22.777
11308SOL    HW245553   1.128   1.666  22.781
11309SOL     OW45554   4.644   3.722   3.080
11309SOL    HW145555   4.652   3.711   2.985
11309SOL    HW245556   4.617   3.636   3.112
11310SOL     OW45557   4.252   3.843  17.765
11310SOL    HW145558   4.237   3.809  17.677
11310SOL    HW245559   4.339   3.812  17.789
11311SOL     OW45560   0.554   2.714   2.764
11311SOL    HW145561   0.587   2.804   2.767
11311SOL    HW245562   0.526   2.702   2.673
11312SOL     OW45563   2.281   3.446   9.520
11312SOL    HW145564   2.252   3.510   9.584
11312SOL    HW245565   2.242   3.475   9.437
11313SOL     OW45566   4.221   1.608   6.567
11313SOL    HW145567   4.148   1.621   6.627
11313SOL    HW245568   4.282   1.679   6.588
11314SOL     OW45569   3.416   2.748  22.483
11314SOL    HW145570   3.431   2.841  22.500
11314SOL    HW245571   3.495   2.719  22.437
11315SOL     OW45572   4.511   2.788  20.751
11315SOL    HW145573   4.573   2.807  20.680
11315SOL    HW245574   4.446   2.729  20.712
11316SOL     OW45575   3.790   3.188  21.484
11316SOL    HW145576   3.765   3.280  21.494
11316SOL    HW245577   3.878   3.182  21.522
11317SOL     OW45578   0.324   2.158   5.092
11317SOL    HW145579   0.397   2.113   5.049
11317SOL    HW245580   0.333   2.250   5.066
11318SOL     OW45581   2.069   4.401   2.581
11318SOL    HW145582   2.009   4.470   2.610
11318SOL    HW245583   2.087   4.350   2.660
11319SOL     OW45584   3.606   1.132   1.431
11319SOL    HW145585   3.530   1.189   1.439
11319SOL    HW245586   3.581   1.067   1.365
11320SOL     OW45587   0.265   1.436  10.695
11320SOL    HW145588   0.329   1.461  10.762
11320SOL    HW245589   0.278   1.500  10.625
11321SOL     OW45590   2.393   0.114   4.667
11321SOL    HW145591   2.431   0.061   4.737
11321SOL    HW245592   2.435   0.082   4.587
11322SOL     OW45593   2.821   4.482   3.499
11322SOL    HW145594   2.912   4.504   3.478
11322SOL    HW245595   2.769   4.544   3.448
11323SOL     OW45596   2.450   0.052   0.707
11323SOL    HW145597   2.432   0.125   0.766
11323SOL    HW245598   2.364   0.021   0.679
11324SOL     OW45599   4.645   2.511  20.373
11324SOL    HW145600   4.712   2.562  20.328
11324SOL    HW245601   4.568   2.518  20.316
11325SOL     OW45602   0.650   2.032  20.151
11325SOL    HW145603   0.651   2.055  20.244
11325SOL    HW245604   0.570   2.072  20.117
11326SOL     OW45605   0.964   3.495   8.133
11326SOL    HW145606   0.910   3.482   8.211
11326SOL    HW245607   0.991   3.587   8.138
11327SOL     OW45608   0.761   3.109  20.940
11327SOL    HW145609   0.827   3.153  20.993
11327SOL    HW245610   0.811   3.057  20.877
11328SOL     OW45611   3.537   4.115   0.199
11328SOL    HW145612   3.454   4.162   0.186
11328SOL    HW245613   3.587   4.132   0.119
11329SOL     OW45614   2.183   1.394   4.690
11329SOL    HW145615   2.122   1.466   4.704
11329SOL    HW245616   2.143   1.320   4.736
11330SOL     OW45617   4.259   0.803  25.050
11330SOL    HW145618   4.255   0.877  24.990
11330SOL    HW245619   4.182   0.750  25.029
11331SOL     OW45620   2.158   1.634  25.307
11331SOL    HW145621   2.179   1.554  25.355
11331SOL    HW245622   2.111   1.688  25.371
11332SOL     OW45623   2.196   3.588  18.873
11332SOL    HW145624   2.238   3.609  18.956
11332SOL    HW245625   2.103   3.583  18.894
11333SOL     OW45626   4.688   1.920  26.022
11333SOL    HW145627   4.698   1.865  25.944
11333SOL    HW245628   4.600   1.957  26.014
11334SOL     OW45629   3.227   1.516   1.115
11334SOL    HW145630   3.175   1.515   1.035
11334SOL    HW245631   3.241   1.609   1.134
11335SOL     OW45632   2.716   2.585  24.315
11335SOL    HW145633   2.699   2.657  24.376
11335SOL    HW245634   2.744   2.628  24.234
11336SOL     OW45635   3.090   0.666   0.679
11336SOL    HW145636   3.077   0.744   0.733
11336SOL    HW245637   3.026   0.603   0.713
11337SOL     OW45638   1.678   4.273  27.866
11337SOL    HW145639   1.754   4.269  27.808
11337SOL    HW245640   1.712   4.307  27.948
11338SOL     OW45641   1.783   3.801  17.995
11338SOL    HW145642   1.789   3.764  18.083
11338SOL    HW245643   1.697   3.844  17.993
11339SOL     OW45644   4.245   3.054  23.854
11339SOL    HW145645   4.281   3.139  23.829
11339SOL    HW245646   4.242   3.056  23.950
11340SOL     OW45647   3.412   3.947  19.985
11340SOL    HW145648   3.421   4.035  20.020
11340SOL    HW245649   3.323   3.920  20.009
11341SOL     OW45650   2.222   1.640  27.013
11341SOL    HW145651   2.289   1.705  26.993
11341SOL    HW245652   2.271   1.559  27.029
11342SOL     OW45653   2.051   0.849  22.389
11342SOL    HW145654   2.040   0.920  22.326
11342SOL    HW245655   1.962   0.817  22.406
11343SOL     OW45656   3.479   2.871  28.243
11343SOL    HW145657   3.418   2.798  28.254
11343SOL    HW245658   3.556   2.846  28.294
11344SOL     OW45659   3.975   0.174  26.567
11344SOL    HW145660   4.007   0.261  26.541
11344SOL    HW245661   3.999   0.117  26.494
11345SOL     OW45662   2.021   0.962  15.459
11345SOL    HW145663   2.049   0.873  15.479
11345SOL    HW245664   2.092   0.999  15.407
11346SOL     OW45665   1.796   3.749   4.306
11346SOL    HW145666   1.734   3.797   4.360
11346SOL    HW245667   1.820   3.673   4.358
11347SOL     OW45668   3.797   3.920   3.926
11347SOL    HW145669   3.714   3.918   3.879
11347SOL    HW245670   3.864   3.913   3.857
11348SOL     OW45671   3.012   0.064  23.095
11348SOL    HW145672   2.934   0.010  23.109
11348SOL    HW245673   2.996   0.107  23.011
11349SOL     OW45674   1.406   1.543  16.778
11349SOL    HW145675   1.341   1.517  16.712
11349SOL    HW245676   1.478   1.481  16.767
11350SOL     OW45677   3.674   0.009  16.786
11350SOL    HW145678   3.739   0.021  16.856
11350SOL    HW245679   3.662   0.096  16.749
11351SOL     OW45680   0.085   0.084  11.273
11351SOL    HW145681   0.069   4.772  11.291
11351SOL    HW245682   0.148   0.110  11.340
11352SOL     OW45683   4.441   2.090  15.806
11352SOL    HW145684   4.348   2.107  15.795
11352SOL    HW245685   4.485   2.156  15.753
11353SOL     OW45686   1.810   0.414   5.120
11353SOL    HW145687   1.873   0.366   5.173
11353SOL    HW245688   1.740   0.351   5.103
11354SOL     OW45689   3.880   1.418  11.464
11354SOL    HW145690   3.897   1.506  11.430
11354SOL    HW245691   3.857   1.432  11.556
11355SOL     OW45692   3.693   3.178   7.901
11355SOL    HW145693   3.617   3.234   7.917
11355SOL    HW245694   3.766   3.239   7.892
11356SOL     OW45695   2.900   0.751  17.310
11356SOL    HW145696   2.992   0.734  17.328
11356SOL    HW245697   2.875   0.683  17.247
11357SOL     OW45698   4.302   4.564  25.510
11357SOL    HW145699   4.240   4.519  25.453
11357SOL    HW245700   4.311   4.651  25.472
11358SOL     OW45701   4.296   0.621   1.463
11358SOL    HW145702   4.308   0.575   1.546
11358SOL    HW245703   4.225   0.683   1.480
11359SOL     OW45704   2.905   4.714  10.257
11359SOL    HW145705   2.913   0.027  10.276
11359SOL    HW245706   2.994   4.680  10.262
11360SOL     OW45707   4.532   2.622  26.161
11360SOL    HW145708   4.579   2.551  26.205
11360SOL    HW245709   4.471   2.577  26.102
11361SOL     OW45710   0.988   1.262  22.930
11361SOL    HW145711   1.075   1.281  22.965
11361SOL    HW245712   0.954   1.193  22.987
11362SOL     OW45713   2.928   0.502  26.230
11362SOL    HW145714   2.874   0.426  26.250
11362SOL    HW245715   2.888   0.541  26.152
11363SOL     OW45716   2.176   4.422  16.692
11363SOL    HW145717   2.188   4.459  16.779
11363SOL    HW245718   2.259   4.378  16.673
11364SOL     OW45719   1.539   3.318   4.178
11364SOL    HW145720   1.483   3.242   4.194
11364SOL    HW245721   1.628   3.285   4.193
11365SOL     OW45722   3.185   4.474   6.350
11365SOL    HW145723   3.136   4.541   6.302
11365SOL    HW245724   3.277   4.498   6.337
11366SOL     OW45725   0.145   4.491  28.316
11366SOL    HW145726   0.088   4.568  28.320
11366SOL    HW245727   0.085   4.416  28.319
11367SOL     OW45728   4.236   0.863  17.030
11367SOL    HW145729   4.228   0.814  16.948
11367SOL    HW245730   4.149   0.901  17.043
11368SOL     OW45731   0.130   2.100   9.124
11368SOL    HW145732   0.191   2.168   9.153
11368SOL    HW245733   0.085   2.073   9.204
11369SOL     OW45734   3.496   2.560  21.323
11369SOL    HW145735   3.434   2.497  21.286
11369SOL    HW245736   3.441   2.631  21.357
11370SOL     OW45737   4.508   2.464   0.492
11370SOL    HW145738   4.505   2.510   0.576
11370SOL    HW245739   4.435   2.501   0.442
11371SOL     OW45740   3.208   4.126  16.386
11371SOL    HW145741   3.114   4.140  16.399
11371SOL    HW245742   3.213   4.063  16.314
11372SOL     OW45743   0.539   2.787   3.835
11372SOL    HW145744   0.611   2.843   3.807
11372SOL    HW245745   0.554   2.772   3.928
11373SOL     OW45746   3.500   1.794  27.645
11373SOL    HW145747   3.594   1.809  27.652
11373SOL    HW245748   3.474   1.762  27.731
11374SOL     OW45749   1.477   3.668   9.977
11374SOL    HW145750   1.520   3.583   9.972
11374SOL    HW245751   1.493   3.708   9.892
11375SOL     OW45752   1.585   2.671  17.991
11375SOL    HW145753   1.662   2.641  18.040
11375SOL    HW245754   1.519   2.603  18.005
11376SOL     OW45755   2.685   0.860  19.206
11376SOL    HW145756   2.644   0.787  19.160
11376SOL    HW245757   2.706   0.825  19.292
11377SOL     OW45758   0.963   0.128  20.199
11377SOL    HW145759   1.000   0.112  20.286
11377SOL    HW245760   0.911   0.208  20.209
11378SOL     OW45761   0.301   0.663  20.820
11378SOL    HW145762   0.348   0.707  20.891
11378SOL    HW245763   0.254   0.733  20.775
11379SOL     OW45764   3.869   2.010  18.386
11379SOL    HW145765   3.920   1.985  18.309
11379SOL    HW245766   3.868   2.106  18.384
11380SOL     OW45767   1.416   0.627  16.598
11380SOL    HW145768   1.409   0.720  16.618
11380SOL    HW245769   1.480   0.623  16.526
11381SOL     OW45770   3.987   2.650  25.527
11381SOL    HW145771   4.012   2.559  25.514
11381SOL    HW245772   4.034   2.698  25.459
11382SOL     OW45773   0.045   0.226   1.346
11382SOL    HW145774   4.735   0.235   1.317
11382SOL    HW245775   0.049   0.276   1.427
11383SOL     OW45776   2.463   0.225  18.253
11383SOL    HW145777   2.510   0.304  18.227
11383SOL    HW245778   2.439   0.183  18.170
11384SOL     OW45779   2.463   1.522   3.440
11384SOL    HW145780   2.532   1.524   3.373
11384SOL    HW245781   2.401   1.457   3.408
11385SOL     OW45782   4.406   1.239  22.671
11385SOL    HW145783   4.408   1.145  22.653
11385SOL    HW245784   4.487   1.255  22.719
11386SOL     OW45785   0.260   4.734  17.362
11386SOL    HW145786   0.198   4.779  17.304
11386SOL    HW245787   0.216   4.652  17.384
11387SOL     OW45788   2.408   4.286  25.117
11387SOL    HW145789   2.486   4.340  25.102
11387SOL    HW245790   2.371   4.319  25.199
11388SOL     OW45791   3.915   1.689  22.921
11388SOL    HW145792   3.986   1.731  22.970
11388SOL    HW245793   3.850   1.758  22.909
11389SOL     OW45794   2.564   4.632  24.818
11389SOL    HW145795   2.535   4.720  24.793
11389SOL    HW245796   2.484   4.580  24.820
11390SOL     OW45797   3.103   1.706  25.997
11390SOL    HW145798   3.028   1.651  26.019
11390SOL    HW245799   3.159   1.702  26.074
11391SOL     OW45800   1.862   2.516  20.311
11391SOL    HW145801   1.776   2.532  20.273
11391SOL    HW245802   1.847   2.511  20.405
11392SOL     OW45803   2.584   1.681  22.234
11392SOL    HW145804   2.632   1.651  22.156
11392SOL    HW245805   2.607   1.774  22.242
11393SOL     OW45806   3.179   2.197  28.220
11393SOL    HW145807   3.105   2.145  28.187
11393SOL    HW245808   3.207   2.248  28.145
11394SOL     OW45809   0.175   2.772  21.591
11394SOL    HW145810   0.128   2.765  21.674
11394SOL    HW245811   0.109   2.751  21.525
11395SOL     OW45812   1.684   1.639  22.549
11395SOL    HW145813   1.689   1.574  22.620
11395SOL    HW245814   1.594   1.670  22.551
11396SOL     OW45815   0.516   4.378   1.326
11396SOL    HW145816   0.474   4.464   1.323
11396SOL    HW245817   0.467   4.330   1.393
11397SOL     OW45818   0.646   3.709   3.541
11397SOL    HW145819   0.661   3.617   3.561
11397SOL    HW245820   0.573   3.734   3.597
11398SOL     OW45821   2.533   1.960  22.793
11398SOL    HW145822   2.459   1.972  22.853
11398SOL    HW245823   2.502   1.895  22.730
11399SOL     OW45824   3.956   1.628  27.193
11399SOL    HW145825   3.943   1.716  27.229
11399SOL    HW245826   3.964   1.641  27.099
11400SOL     OW45827   0.489   3.041  20.902
11400SOL    HW145828   0.576   3.062  20.936
11400SOL    HW245829   0.454   2.976  20.963
11401SOL     OW45830   3.375   4.604  26.950
11401SOL    HW145831   3.462   4.563  26.948
11401SOL    HW245832   3.392   4.698  26.942
11402SOL     OW45833   1.381   0.501  20.682
11402SOL    HW145834   1.350   0.592  20.679
11402SOL    HW245835   1.307   0.452  20.718
11403SOL     OW45836   3.459   0.704   7.867
11403SOL    HW145837   3.400   0.631   7.888
11403SOL    HW245838   3.515   0.670   7.798
11404SOL     OW45839   3.230   2.326  20.355
11404SOL    HW145840   3.146   2.371  20.365
11404SOL    HW245841   3.232   2.263  20.427
11405SOL     OW45842   4.777   1.812  23.560
11405SOL    HW145843   4.686   1.794  23.584
11405SOL    HW245844   4.779   1.906  23.544
11406SOL     OW45845   0.543   1.071  20.609
11406SOL    HW145846   0.626   1.110  20.581
11406SOL    HW245847   0.476   1.115  20.557
11407SOL     OW45848   0.154   0.952  12.025
11407SOL    HW145849   0.120   0.892  12.091
11407SOL    HW245850   0.234   0.911  11.994
11408SOL     OW45851   2.826   1.392  24.736
11408SOL    HW145852   2.732   1.407  24.729
11408SOL    HW245853   2.836   1.298  24.721
11409SOL     OW45854   1.593   1.274   6.236
11409SOL    HW145855   1.685   1.302   6.232
11409SOL    HW245856   1.549   1.343   6.285
11410SOL     OW45857   3.796   3.023   8.154
11410SOL    HW145858   3.752   3.090   8.103
11410SOL    HW245859   3.832   3.070   8.229
11411SOL     OW45860   2.857   1.939   1.712
11411SOL    HW145861   2.844   2.018   1.765
11411SOL    HW245862   2.782   1.938   1.653
11412SOL     OW45863   2.311   3.128   3.628
11412SOL    HW145864   2.309   3.204   3.569
11412SOL    HW245865   2.246   3.068   3.591
11413SOL     OW45866   0.218   1.875  22.901
11413SOL    HW145867   0.274   1.815  22.950
11413SOL    HW245868   0.278   1.943  22.870
11414SOL     OW45869   1.465   2.984   6.235
11414SOL    HW145870   1.389   3.039   6.256
11414SOL    HW245871   1.427   2.899   6.212
11415SOL     OW45872   1.932   1.145   1.173
11415SOL    HW145873   1.985   1.069   1.150
11415SOL    HW245874   1.842   1.120   1.150
11416SOL     OW45875   3.216   4.647  17.434
11416SOL    HW145876   3.138   4.646  17.378
11416SOL    HW245877   3.235   4.740  17.448
11417SOL     OW45878   2.270   2.719  22.111
11417SOL    HW145879   2.342   2.666  22.145
11417SOL    HW245880   2.198   2.657  22.099
11418SOL     OW45881   2.165   1.881  24.178
11418SOL    HW145882   2.152   1.826  24.101
11418SOL    HW245883   2.104   1.953  24.167
11419SOL     OW45884   4.291   1.854  17.260
11419SOL    HW145885   4.241   1.838  17.180
11419SOL    HW245886   4.239   1.919  17.308
11420SOL     OW45887   0.321   2.848  23.605
11420SOL    HW145888   0.346   2.760  23.576
11420SOL    HW245889   0.286   2.891  23.527
11421SOL     OW45890   0.231   4.184   8.221
11421SOL    HW145891   0.258   4.092   8.219
11421SOL    HW245892   0.154   4.188   8.164
11422SOL     OW45893   0.250   2.779  24.997
11422SOL    HW145894   0.176   2.794  25.055
11422SOL    HW245895   0.299   2.708  25.038
11423SOL     OW45896   0.283   0.453  20.957
11423SOL    HW145897   0.232   0.391  20.905
11423SOL    HW245898   0.297   0.528  20.899
11424SOL     OW45899   1.600   1.275  23.821
11424SOL    HW145900   1.548   1.338  23.771
11424SOL    HW245901   1.691   1.296  23.798
11425SOL     OW45902   4.321   3.671   0.564
11425SOL    HW145903   4.231   3.641   0.554
11425SOL    HW245904   4.316   3.741   0.629
11426SOL     OW45905   1.251   2.842  18.445
11426SOL    HW145906   1.186   2.898  18.403
11426SOL    HW245907   1.311   2.818  18.375
11427SOL     OW45908   0.979   2.470   5.325
11427SOL    HW145909   0.942   2.557   5.309
11427SOL    HW245910   1.029   2.480   5.406
11428SOL     OW45911   0.240   0.974  20.074
11428SOL    HW145912   0.229   0.905  20.139
11428SOL    HW245913   0.230   1.056  20.123
11429SOL     OW45914   4.437   3.699   1.906
11429SOL    HW145915   4.377   3.624   1.906
11429SOL    HW245916   4.485   3.691   1.824
11430SOL     OW45917   2.416   3.275  24.772
11430SOL    HW145918   2.509   3.281  24.793
11430SOL    HW245919   2.399   3.181  24.767
11431SOL     OW45920   2.991   3.432  21.879
11431SOL    HW145921   3.028   3.353  21.840
11431SOL    HW245922   2.918   3.400  21.933
11432SOL     OW45923   3.332   1.999  19.123
11432SOL    HW145924   3.246   1.964  19.099
11432SOL    HW245925   3.313   2.070  19.184
11433SOL     OW45926   4.169   3.461  26.444
11433SOL    HW145927   4.111   3.400  26.490
11433SOL    HW245928   4.150   3.546  26.484
11434SOL     OW45929   3.750   2.467   7.666
11434SOL    HW145930   3.798   2.519   7.731
11434SOL    HW245931   3.765   2.376   7.692
11435SOL     OW45932   2.548   2.051   8.038
11435SOL    HW145933   2.514   2.115   7.975
11435SOL    HW245934   2.472   2.028   8.092
11436SOL     OW45935   4.544   2.673  22.759
11436SOL    HW145936   4.495   2.733  22.815
11436SOL    HW245937   4.492   2.593  22.760
11437SOL     OW45938   0.551   3.876  27.035
11437SOL    HW145939   0.465   3.896  27.071
11437SOL    HW245940   0.567   3.945  26.970
11438SOL     OW45941   1.207   0.300  16.826
11438SOL    HW145942   1.168   0.239  16.764
11438SOL    HW245943   1.172   0.273  16.911
11439SOL     OW45944   1.978   2.155   5.609
11439SOL    HW145945   1.983   2.074   5.558
11439SOL    HW245946   2.048   2.210   5.573
11440SOL     OW45947   3.275   2.363   1.516
11440SOL    HW145948   3.341   2.295   1.501
11440SOL    HW245949   3.201   2.316   1.555
11441SOL     OW45950   0.783   0.491   6.662
11441SOL    HW145951   0.833   0.566   6.629
11441SOL    HW245952   0.845   0.418   6.662
11442SOL     OW45953   1.161   2.316  20.117
11442SOL    HW145954   1.162   2.356  20.030
11442SOL    HW245955   1.089   2.253  20.114
11443SOL     OW45956   3.419   3.280   2.180
11443SOL    HW145957   3.342   3.223   2.180
11443SOL    HW245958   3.486   3.231   2.132
11444SOL     OW45959   3.133   0.392  25.694
11444SOL    HW145960   3.118   0.300  25.673
11444SOL    HW245961   3.206   0.417  25.637
11445SOL     OW45962   2.108   3.578  10.881
11445SOL    HW145963   2.083   3.510  10.818
11445SOL    HW245964   2.147   3.647  10.827
11446SOL     OW45965   2.088   3.702  10.602
11446SOL    HW145966   2.008   3.746  10.632
11446SOL    HW245967   2.159   3.759  10.631
11447SOL     OW45968   2.723   2.270  22.473
11447SOL    HW145969   2.671   2.191  22.462
11447SOL    HW245970   2.746   2.272  22.566
11448SOL     OW45971   4.085   1.010  26.287
11448SOL    HW145972   4.042   0.970  26.363
11448SOL    HW245973   4.130   1.086  26.323
11449SOL     OW45974   1.105   2.275  26.181
11449SOL    HW145975   1.062   2.355  26.210
11449SOL    HW245976   1.065   2.206  26.233
11450SOL     OW45977   2.007   4.411   7.531
11450SOL    HW145978   1.990   4.505   7.537
11450SOL    HW245979   1.936   4.370   7.581
11451SOL     OW45980   2.453   4.508  25.794
11451SOL    HW145981   2.397   4.490  25.870
11451SOL    HW245982   2.463   4.603  25.794
11452SOL     OW45983   2.850   3.634  25.010
11452SOL    HW145984   2.842   3.661  25.101
11452SOL    HW245985   2.805   3.702  24.960
11453SOL     OW45986   2.455   3.399   6.572
11453SOL    HW145987   2.532   3.367   6.525
11453SOL    HW245988   2.479   3.488   6.599
11454SOL     OW45989   2.301   0.367  19.491
11454SOL    HW145990   2.386   0.378  19.533
11454SOL    HW245991   2.318   0.308  19.418
11455SOL     OW45992   1.167   3.714   6.289
11455SOL    HW145993   1.182   3.729   6.382
11455SOL    HW245994   1.251   3.682   6.256
11456SOL     OW45995   3.360   0.016   9.608
11456SOL    HW145996   3.286   4.748   9.571
11456SOL    HW245997   3.319   0.090   9.653
11457SOL     OW45998   4.706   4.314  28.048
11457SOL    HW145999   4.741   4.331  27.960
11457SOL    HW246000   4.701   4.219  28.053
11458SOL     OW46001   2.112   4.755  24.273
11458SOL    HW146002   2.186   4.770  24.331
11458SOL    HW246003   2.151   4.717  24.194
11459SOL     OW46004   2.845   3.618  10.957
11459SOL    HW146005   2.797   3.695  10.988
11459SOL    HW246006   2.904   3.596  11.029
11460SOL     OW46007   2.255   2.573   5.324
11460SOL    HW146008   2.286   2.626   5.250
11460SOL    HW246009   2.169   2.542   5.296
11461SOL     OW46010   4.626   1.026   0.993
11461SOL    HW146011   4.627   1.072   0.909
11461SOL    HW246012   4.709   1.049   1.034
11462SOL     OW46013   0.911   2.451   6.148
11462SOL    HW146014   0.905   2.546   6.154
11462SOL    HW246015   0.845   2.426   6.083
11463SOL     OW46016   2.016   2.882  27.443
11463SOL    HW146017   2.048   2.892  27.354
11463SOL    HW246018   1.938   2.827  27.434
11464SOL     OW46019   2.108   1.796   0.179
11464SOL    HW146020   2.155   1.718   0.151
11464SOL    HW246021   2.161   1.869   0.146
11465SOL     OW46022   0.314   3.435   4.816
11465SOL    HW146023   0.370   3.421   4.893
11465SOL    HW246024   0.235   3.475   4.851
11466SOL     OW46025   4.319   0.818  20.118
11466SOL    HW146026   4.305   0.883  20.049
11466SOL    HW246027   4.269   0.741  20.090
11467SOL     OW46028   1.409   1.579  26.166
11467SOL    HW146029   1.413   1.642  26.094
11467SOL    HW246030   1.459   1.620  26.237
11468SOL     OW46031   1.878   4.369  24.388
11468SOL    HW146032   1.944   4.430  24.420
11468SOL    HW246033   1.928   4.302  24.341
11469SOL     OW46034   1.269   0.606  26.234
11469SOL    HW146035   1.265   0.635  26.143
11469SOL    HW246036   1.293   0.514  26.229
11470SOL     OW46037   0.134   4.466  21.435
11470SOL    HW146038   0.140   4.386  21.487
11470SOL    HW246039   0.127   4.435  21.345
11471SOL     OW46040   0.837   0.466  20.638
11471SOL    HW146041   0.920   0.446  20.681
11471SOL    HW246042   0.824   0.394  20.576
11472SOL     OW46043   3.667   4.251   7.246
11472SOL    HW146044   3.574   4.270   7.232
11472SOL    HW246045   3.691   4.196   7.171
11473SOL     OW46046   1.973   3.893  25.829
11473SOL    HW146047   1.938   3.883  25.918
11473SOL    HW246048   2.066   3.874  25.838
11474SOL     OW46049   2.955   2.662  23.463
11474SOL    HW146050   2.956   2.727  23.533
11474SOL    HW246051   3.037   2.676  23.416
11475SOL     OW46052   3.291   1.360  24.191
11475SOL    HW146053   3.379   1.388  24.216
11475SOL    HW246054   3.292   1.265  24.200
11476SOL     OW46055   2.225   4.136   2.364
11476SOL    HW146056   2.229   4.181   2.448
11476SOL    HW246057   2.291   4.066   2.371
11477SOL     OW46058   0.943   3.876  25.299
11477SOL    HW146059   0.908   3.845  25.216
11477SOL    HW246060   0.973   3.965  25.280
11478SOL     OW46061   3.004   0.461  20.665
11478SOL    HW146062   2.918   0.464  20.707
11478SOL    HW246063   2.996   0.392  20.600
11479SOL     OW46064   3.009   4.702   0.032
11479SOL    HW146065   3.042   4.699  28.461
11479SOL    HW246066   3.088   4.705   0.086
11480SOL     OW46067   1.023   2.289   3.097
11480SOL    HW146068   0.964   2.324   3.030
11480SOL    HW246069   0.973   2.219   3.139
11481SOL     OW46070   0.877   0.209  17.251
11481SOL    HW146071   0.788   0.242  17.263
11481SOL    HW246072   0.869   0.114  17.263
11482SOL     OW46073   1.439   1.368   9.357
11482SOL    HW146074   1.423   1.443   9.300
11482SOL    HW246075   1.367   1.370   9.420
11483SOL     OW46076   3.136   2.381   2.986
11483SOL    HW146077   3.135   2.290   2.958
11483SOL    HW246078   3.219   2.415   2.953
11484SOL     OW46079   3.125   3.691  27.405
11484SOL    HW146080   3.133   3.777  27.447
11484SOL    HW246081   3.085   3.635  27.471
11485SOL     OW46082   1.918   0.471  26.760
11485SOL    HW146083   1.866   0.493  26.683
11485SOL    HW246084   1.858   0.422  26.816
11486SOL     OW46085   0.515   3.660   4.476
11486SOL    HW146086   0.582   3.604   4.514
11486SOL    HW246087   0.546   3.677   4.387
11487SOL     OW46088   0.103   0.879   3.801
11487SOL    HW146089   0.153   0.883   3.720
11487SOL    HW246090   0.012   0.874   3.773
11488SOL     OW46091   4.487   0.682   0.147
11488SOL    HW146092   4.473   0.731   0.228
11488SOL    HW246093   4.565   0.722   0.107
11489SOL     OW46094   1.111   1.399   3.558
11489SOL    HW146095   1.199   1.397   3.520
11489SOL    HW246096   1.056   1.352   3.495
11490SOL     OW46097   2.880   4.118  21.010
11490SOL    HW146098   2.956   4.110  21.067
11490SOL    HW246099   2.817   4.170  21.060
11491SOL     OW46100   1.547   4.065   1.926
11491SOL    HW146101   1.604   4.007   1.977
11491SOL    HW246102   1.475   4.008   1.898
11492SOL     OW46103   3.625   1.123   8.037
11492SOL    HW146104   3.569   1.183   7.988
11492SOL    HW246105   3.590   1.124   8.126
11493SOL     OW46106   1.474   1.662  22.350
11493SOL    HW146107   1.392   1.617  22.331
11493SOL    HW246108   1.451   1.755  22.352
11494SOL     OW46109   3.236   0.356   9.123
11494SOL    HW146110   3.225   0.436   9.072
11494SOL    HW246111   3.324   0.364   9.161
11495SOL     OW46112   1.568   0.422   6.474
11495SOL    HW146113   1.609   0.402   6.558
11495SOL    HW246114   1.590   0.514   6.458
11496SOL     OW46115   4.293   0.883  24.399
11496SOL    HW146116   4.211   0.842  24.373
11496SOL    HW246117   4.334   0.909  24.317
11497SOL     OW46118   4.220   3.248   7.453
11497SOL    HW146119   4.187   3.336   7.433
11497SOL    HW246120   4.298   3.239   7.399
11498SOL     OW46121   2.406   0.081  27.458
11498SOL    HW146122   2.471   0.135  27.413
11498SOL    HW246123   2.429   0.088  27.551
11499SOL     OW46124   2.581   0.831   0.915
11499SOL    HW146125   2.556   0.821   0.823
11499SOL    HW246126   2.540   0.913   0.942
11500SOL     OW46127   2.069   1.110   7.519
11500SOL    HW146128   2.073   1.063   7.436
11500SOL    HW246129   1.980   1.096   7.550
11501SOL     OW46130   2.864   0.485  23.044
11501SOL    HW146131   2.944   0.439  23.017
11501SOL    HW246132   2.811   0.418  23.088
11502SOL     OW46133   1.583   0.315  26.433
11502SOL    HW146134   1.557   0.397  26.476
11502SOL    HW246135   1.577   0.334  26.339
11503SOL     OW46136   0.413   1.723   6.864
11503SOL    HW146137   0.472   1.773   6.807
11503SOL    HW246138   0.464   1.708   6.944
11504SOL     OW46139   4.716   0.555  22.227
11504SOL    HW146140   4.626   0.524  22.236
11504SOL    HW246141   4.770   0.481  22.253
11505SOL     OW46142   4.365   2.321  23.326
11505SOL    HW146143   4.312   2.249  23.359
11505SOL    HW246144   4.326   2.399  23.364
11506SOL     OW46145   2.292   2.374   4.759
11506SOL    HW146146   2.297   2.444   4.824
11506SOL    HW246147   2.342   2.407   4.684
11507SOL     OW46148   2.536   3.594  23.087
11507SOL    HW146149   2.543   3.532  23.014
11507SOL    HW246150   2.609   3.655  23.074
11508SOL     OW46151   2.027   0.175   9.413
11508SOL    HW146152   2.104   0.230   9.396
11508SOL    HW246153   1.981   0.219   9.484
11509SOL     OW46154   3.123   0.464  23.319
11509SOL    HW146155   3.075   0.390  23.355
11509SOL    HW246156   3.057   0.516  23.274
11510SOL     OW46157   1.701   0.762  21.942
11510SOL    HW146158   1.623   0.748  21.996
11510SOL    HW246159   1.668   0.767  21.852
11511SOL     OW46160   0.939   2.867  20.152
11511SOL    HW146161   1.014   2.921  20.126
11511SOL    HW246162   0.939   2.794  20.090
11512SOL     OW46163   1.843   4.277   9.888
11512SOL    HW146164   1.927   4.245   9.921
11512SOL    HW246165   1.812   4.337   9.956
11513SOL     OW46166   2.299   4.072   3.558
11513SOL    HW146167   2.251   4.142   3.514
11513SOL    HW246168   2.384   4.111   3.579
11514SOL     OW46169   2.239   1.580   6.393
11514SOL    HW146170   2.148   1.553   6.378
11514SOL    HW246171   2.247   1.583   6.488
11515SOL     OW46172   4.155   0.328  21.190
11515SOL    HW146173   4.087   0.363  21.248
11515SOL    HW246174   4.237   0.362  21.226
11516SOL     OW46175   2.593   4.129  22.714
11516SOL    HW146176   2.541   4.140  22.634
11516SOL    HW246177   2.630   4.216  22.730
11517SOL     OW46178   4.626   4.442  25.411
11517SOL    HW146179   4.657   4.354  25.389
11517SOL    HW246180   4.661   4.459  25.499
11518SOL     OW46181   1.981   2.042  20.645
11518SOL    HW146182   2.050   1.980  20.670
11518SOL    HW246183   1.968   2.097  20.722
11519SOL     OW46184   3.649   2.390   6.852
11519SOL    HW146185   3.733   2.423   6.884
11519SOL    HW246186   3.584   2.443   6.898
11520SOL     OW46187   4.601   1.052  24.964
11520SOL    HW146188   4.564   0.964  24.954
11520SOL    HW246189   4.568   1.082  25.049
11521SOL     OW46190   4.547   2.039   0.856
11521SOL    HW146191   4.578   1.991   0.780
11521SOL    HW246192   4.523   2.125   0.822
11522SOL     OW46193   4.718   3.717   4.206
11522SOL    HW146194   0.006   3.743   4.145
11522SOL    HW246195   4.762   3.660   4.268
11523SOL     OW46196   2.124   0.898   6.081
11523SOL    HW146197   2.068   0.969   6.112
11523SOL    HW246198   2.096   0.883   5.991
11524SOL     OW46199   4.011   0.755  27.338
11524SOL    HW146200   4.025   0.747  27.244
11524SOL    HW246201   4.076   0.819  27.366
11525SOL     OW46202   1.301   2.887   0.618
11525SOL    HW146203   1.382   2.854   0.656
11525SOL    HW246204   1.329   2.936   0.540
11526SOL     OW46205   2.213   0.027  20.464
11526SOL    HW146206   2.170   4.772  20.386
11526SOL    HW246207   2.161   0.105  20.486
11527SOL     OW46208   1.170   3.461  17.525
11527SOL    HW146209   1.133   3.395  17.467
11527SOL    HW246210   1.256   3.481  17.487
11528SOL     OW46211   0.809   3.212   6.126
11528SOL    HW146212   0.888   3.166   6.098
11528SOL    HW246213   0.760   3.228   6.045
11529SOL     OW46214   0.635   0.874  26.598
11529SOL    HW146215   0.687   0.953  26.587
11529SOL    HW246216   0.620   0.843  26.509
11530SOL     OW46217   1.999   1.179  25.631
11530SOL    HW146218   1.939   1.114  25.594
11530SOL    HW246219   2.053   1.129  25.692
11531SOL     OW46220   3.737   4.174  27.662
11531SOL    HW146221   3.757   4.081  27.653
11531SOL    HW246222   3.659   4.177  27.717
11532SOL     OW46223   0.993   4.685  22.378
11532SOL    HW146224   1.011   4.599  22.341
11532SOL    HW246225   0.905   4.706  22.347
11533SOL     OW46226   4.458   0.954  24.141
11533SOL    HW146227   4.393   0.890  24.112
11533SOL    HW246228   4.444   1.029  24.083
11534SOL     OW46229   3.683   0.298   4.706
11534SOL    HW146230   3.701   0.387   4.737
11534SOL    HW246231   3.597   0.304   4.664
11535SOL     OW46232   4.742   4.182  10.479
11535SOL    HW146233   4.674   4.232  10.524
11535SOL    HW246234   0.042   4.201  10.527
11536SOL     OW46235   3.843   0.744  25.412
11536SOL    HW146236   3.912   0.709  25.356
11536SOL    HW246237   3.780   0.782  25.351
11537SOL     OW46238   1.326   2.028   9.120
11537SOL    HW146239   1.360   2.004   9.206
11537SOL    HW246240   1.288   1.947   9.086
11538SOL     OW46241   4.000   3.640  26.237
11538SOL    HW146242   3.997   3.548  26.211
11538SOL    HW246243   3.958   3.687  26.165
11539SOL     OW46244   4.096   1.797   7.787
11539SOL    HW146245   4.154   1.768   7.717
11539SOL    HW246246   4.147   1.864   7.834
11540SOL     OW46247   0.313   3.527  26.552
11540SOL    HW146248   0.370   3.542  26.476
11540SOL    HW246249   0.321   3.607  26.604
11541SOL     OW46250   2.963   4.609  19.741
11541SOL    HW146251   2.918   4.526  19.757
11541SOL    HW246252   3.033   4.587  19.680
11542SOL     OW46253   2.169   1.835   1.413
11542SOL    HW146254   2.098   1.790   1.367
11542SOL    HW246255   2.125   1.901   1.466
11543SOL     OW46256   3.485   2.149   8.519
11543SOL    HW146257   3.449   2.238   8.519
11543SOL    HW246258   3.574   2.160   8.554
11544SOL     OW46259   2.818   1.942   3.299
11544SOL    HW146260   2.741   1.968   3.248
11544SOL    HW246261   2.797   1.855   3.333
11545SOL     OW46262   0.124   2.131   0.090
11545SOL    HW146263   0.162   2.044   0.098
11545SOL    HW246264   0.145   2.174   0.173
11546SOL     OW46265   1.133   0.581  25.358
11546SOL    HW146266   1.116   0.501  25.408
11546SOL    HW246267   1.085   0.569  25.276
11547SOL     OW46268   0.607   0.462   1.044
11547SOL    HW146269   0.585   0.543   1.089
11547SOL    HW246270   0.589   0.480   0.952
11548SOL     OW46271   1.768   1.055   7.348
11548SOL    HW146272   1.774   1.074   7.442
11548SOL    HW246273   1.695   0.994   7.340
11549SOL     OW46274   2.519   4.284  18.921
11549SOL    HW146275   2.522   4.188  18.920
11549SOL    HW246276   2.479   4.306  19.005
11550SOL     OW46277   2.131   0.998  16.526
11550SOL    HW146278   2.046   0.974  16.490
11550SOL    HW246279   2.136   1.093  16.516
11551SOL     OW46280   1.152   3.276  10.113
11551SOL    HW146281   1.192   3.309  10.193
11551SOL    HW246282   1.198   3.321  10.043
11552SOL     OW46283   1.680   2.405   2.986
11552SOL    HW146284   1.615   2.348   2.944
11552SOL    HW246285   1.714   2.459   2.915
11553SOL     OW46286   0.320   3.308   8.029
11553SOL    HW146287   0.364   3.351   8.102
11553SOL    HW246288   0.387   3.251   7.991
11554SOL     OW46289   1.974   3.732   1.053
11554SOL    HW146290   1.924   3.813   1.041
11554SOL    HW246291   2.060   3.761   1.084
11555SOL     OW46292   2.912   3.828  21.811
11555SOL    HW146293   2.854   3.902  21.830
11555SOL    HW246294   2.853   3.753  21.805
11556SOL     OW46295   4.561   4.741  20.403
11556SOL    HW146296   4.477   4.767  20.365
11556SOL    HW246297   4.539   4.672  20.465
11557SOL     OW46298   4.392   0.569   6.470
11557SOL    HW146299   4.323   0.564   6.536
11557SOL    HW246300   4.367   0.643   6.414
11558SOL     OW46301   3.469   4.281   8.420
11558SOL    HW146302   3.402   4.274   8.488
11558SOL    HW246303   3.531   4.346   8.454
11559SOL     OW46304   4.770   4.663  20.251
11559SOL    HW146305   4.716   4.686  20.326
11559SOL    HW246306   4.761   4.737  20.191
11560SOL     OW46307   4.565   3.944  24.994
11560SOL    HW146308   4.571   3.970  24.902
11560SOL    HW246309   4.523   4.019  25.037
11561SOL     OW46310   0.980   1.439  28.075
11561SOL    HW146311   0.955   1.389  28.153
11561SOL    HW246312   1.076   1.437  28.075
11562SOL     OW46313   0.914   1.970  21.706
11562SOL    HW146314   0.842   2.021  21.668
11562SOL    HW246315   0.992   2.004  21.663
11563SOL     OW46316   3.176   3.530  20.614
11563SOL    HW146317   3.146   3.510  20.703
11563SOL    HW246318   3.118   3.480  20.557
11564SOL     OW46319   3.947   4.462  22.453
11564SOL    HW146320   3.889   4.537  22.443
11564SOL    HW246321   3.961   4.431  22.364
11565SOL     OW46322   2.349   2.657   9.871
11565SOL    HW146323   2.320   2.727   9.813
11565SOL    HW246324   2.414   2.698   9.928
11566SOL     OW46325   3.570   2.894   8.304
11566SOL    HW146326   3.638   2.954   8.273
11566SOL    HW246327   3.512   2.882   8.229
11567SOL     OW46328   4.432   1.554  20.442
11567SOL    HW146329   4.470   1.612  20.376
11567SOL    HW246330   4.408   1.475  20.394
11568SOL     OW46331   0.706   2.971   9.991
11568SOL    HW146332   0.665   2.951   9.907
11568SOL    HW246333   0.777   2.908   9.999
11569SOL     OW46334   3.206   2.623  25.079
11569SOL    HW146335   3.176   2.564  25.009
11569SOL    HW246336   3.182   2.578  25.160
11570SOL     OW46337   3.091   4.444  20.603
11570SOL    HW146338   3.129   4.519  20.558
11570SOL    HW246339   3.072   4.382  20.533
11571SOL     OW46340   0.404   2.572   1.521
11571SOL    HW146341   0.411   2.649   1.577
11571SOL    HW246342   0.396   2.498   1.582
11572SOL     OW46343   4.012   3.298  24.142
11572SOL    HW146344   4.091   3.348  24.123
11572SOL    HW246345   3.976   3.340  24.220
11573SOL     OW46346   0.029   2.147   6.817
11573SOL    HW146347   0.059   2.095   6.742
11573SOL    HW246348   0.093   2.128   6.886
11574SOL     OW46349   1.265   0.943  26.678
11574SOL    HW146350   1.341   0.904  26.720
11574SOL    HW246351   1.231   1.005  26.742
11575SOL     OW46352   2.701   2.899   4.402
11575SOL    HW146353   2.784   2.855   4.419
11575SOL    HW246354   2.715   2.945   4.319
11576SOL     OW46355   3.905   4.114  26.877
11576SOL    HW146356   3.846   4.176  26.834
11576SOL    HW246357   3.878   4.114  26.969
11577SOL     OW46358   0.779   0.507   8.306
11577SOL    HW146359   0.720   0.567   8.351
11577SOL    HW246360   0.830   0.466   8.376
11578SOL     OW46361   1.427   0.013  21.172
11578SOL    HW146362   1.346   4.747  21.150
11578SOL    HW246363   1.425   0.092  21.118
11579SOL     OW46364   0.402   2.056   6.061
11579SOL    HW146365   0.349   1.986   6.099
11579SOL    HW246366   0.415   2.118   6.133
11580SOL     OW46367   2.519   3.428  27.695
11580SOL    HW146368   2.592   3.466  27.647
11580SOL    HW246369   2.442   3.449  27.642
11581SOL     OW46370   1.646   0.356  19.987
11581SOL    HW146371   1.680   0.332  20.073
11581SOL    HW246372   1.703   0.310  19.925
11582SOL     OW46373   0.368   2.578  21.570
11582SOL    HW146374   0.403   2.561  21.657
11582SOL    HW246375   0.292   2.635  21.585
11583SOL     OW46376   0.156   3.982  19.507
11583SOL    HW146377   0.086   3.943  19.455
11583SOL    HW246378   0.126   3.976  19.597
11584SOL     OW46379   3.022   4.238  23.252
11584SOL    HW146380   3.028   4.333  23.264
11584SOL    HW246381   2.981   4.206  23.332
11585SOL     OW46382   2.295   1.983  19.709
11585SOL    HW146383   2.265   2.014  19.795
11585SOL    HW246384   2.269   2.052  19.648
11586SOL     OW46385   2.619   0.803  21.379
11586SOL    HW146386   2.537   0.790  21.427
11586SOL    HW246387   2.595   0.789  21.287
11587SOL     OW46388   2.385   1.009  25.693
11587SOL    HW146389   2.457   1.001  25.630
11587SOL    HW246390   2.428   1.013  25.778
11588SOL     OW46391   2.272   1.466  19.941
11588SOL    HW146392   2.197   1.421  19.902
11588SOL    HW246393   2.289   1.540  19.883
11589SOL     OW46394   0.536   4.219   6.596
11589SOL    HW146395   0.561   4.283   6.663
11589SOL    HW246396   0.608   4.220   6.533
11590SOL     OW46397   1.258   4.695  19.034
11590SOL    HW146398   1.270   4.679  19.128
11590SOL    HW246399   1.261   0.010  19.025
11591SOL     OW46400   2.466   2.588  12.001
11591SOL    HW146401   2.542   2.574  12.057
11591SOL    HW246402   2.391   2.590  12.061
11592SOL     OW46403   4.452   2.462   9.176
11592SOL    HW146404   4.404   2.481   9.095
11592SOL    HW246405   4.391   2.410   9.228
11593SOL     OW46406   1.505   3.457   5.524
11593SOL    HW146407   1.410   3.455   5.535
11593SOL    HW246408   1.525   3.378   5.473
11594SOL     OW46409   3.911   1.362   7.067
11594SOL    HW146410   3.856   1.388   6.993
11594SOL    HW246411   3.920   1.441   7.120
11595SOL     OW46412   3.344   1.447   7.249
11595SOL    HW146413   3.266   1.466   7.301
11595SOL    HW246414   3.416   1.450   7.312
11596SOL     OW46415   0.520   4.041   1.813
11596SOL    HW146416   0.593   3.981   1.827
11596SOL    HW246417   0.442   3.986   1.821
11597SOL     OW46418   2.947   1.369  20.938
11597SOL    HW146419   3.037   1.340  20.926
11597SOL    HW246420   2.894   1.306  20.889
11598SOL     OW46421   3.275   3.681  22.528
11598SOL    HW146422   3.269   3.594  22.567
11598SOL    HW246423   3.342   3.672  22.461
11599SOL     OW46424   1.840   1.557  25.944
11599SOL    HW146425   1.873   1.469  25.926
11599SOL    HW246426   1.748   1.544  25.969
11600SOL     OW46427   1.054   4.761  20.759
11600SOL    HW146428   0.971   4.722  20.732
11600SOL    HW246429   1.040   0.006  20.850
11601SOL     OW46430   3.107   2.650   0.449
11601SOL    HW146431   3.097   2.709   0.374
11601SOL    HW246432   3.036   2.675   0.508
11602SOL     OW46433   0.625   3.718  11.024
11602SOL    HW146434   0.532   3.724  11.004
11602SOL    HW246435   0.654   3.809  11.031
11603SOL     OW46436   0.149   1.033  25.880
11603SOL    HW146437   0.055   1.032  25.896
11603SOL    HW246438   0.165   1.119  25.842
11604SOL     OW46439   0.377   3.404   3.713
11604SOL    HW146440   0.471   3.423   3.721
11604SOL    HW246441   0.356   3.425   3.622
11605SOL     OW46442   2.943   0.360  18.767
11605SOL    HW146443   2.865   0.367  18.711
11605SOL    HW246444   2.935   0.274  18.808
11606SOL     OW46445   4.188   1.917  19.198
11606SOL    HW146446   4.158   1.845  19.143
11606SOL    HW246447   4.210   1.987  19.136
11607SOL     OW46448   4.764   1.854  21.514
11607SOL    HW146449   4.743   1.835  21.422
11607SOL    HW246450   0.015   1.771  21.549
11608SOL     OW46451   2.206   0.354  28.332
11608SOL    HW146452   2.295   0.380  28.357
11608SOL    HW246453   2.215   0.316  28.245
11609SOL     OW46454   1.474   0.174   5.760
11609SOL    HW146455   1.415   0.201   5.831
11609SOL    HW246456   1.458   0.238   5.691
11610SOL     OW46457   0.960   1.728  19.826
11610SOL    HW146458   0.877   1.776  19.832
11610SOL    HW246459   1.027   1.796  19.818
11611SOL     OW46460   4.237   2.540  24.937
11611SOL    HW146461   4.249   2.517  24.845
11611SOL    HW246462   4.151   2.582  24.940
11612SOL     OW46463   2.796   4.673   5.056
11612SOL    HW146464   2.838   4.662   5.141
11612SOL    HW246465   2.848   4.741   5.012
11613SOL     OW46466   3.446   3.228   3.516
11613SOL    HW146467   3.424   3.156   3.457
11613SOL    HW246468   3.449   3.188   3.603
11614SOL     OW46469   3.005   0.937  20.921
11614SOL    HW146470   3.050   0.871  20.869
11614SOL    HW246471   3.075   0.993  20.956
11615SOL     OW46472   0.509   2.064  21.839
11615SOL    HW146473   0.455   2.123  21.892
11615SOL    HW246474   0.592   2.058  21.887
11616SOL     OW46475   1.447   4.414  27.415
11616SOL    HW146476   1.413   4.441  27.500
11616SOL    HW246477   1.397   4.336  27.392
11617SOL     OW46478   3.315   2.661  25.688
11617SOL    HW146479   3.264   2.683  25.766
11617SOL    HW246480   3.341   2.570  25.702
11618SOL     OW46481   4.651   0.775  27.954
11618SOL    HW146482   4.730   0.721  27.955
11618SOL    HW246483   4.679   0.859  27.991
11619SOL     OW46484   1.289   4.283   7.616
11619SOL    HW146485   1.344   4.352   7.579
11619SOL    HW246486   1.289   4.300   7.710
11620SOL     OW46487   4.374   0.490  21.271
11620SOL    HW146488   4.435   0.416  21.273
11620SOL    HW246489   4.405   0.544  21.198
11621SOL     OW46490   0.646   1.416  21.922
11621SOL    HW146491   0.591   1.371  21.857
11621SOL    HW246492   0.731   1.426  21.879
11622SOL     OW46493   0.897   1.455   7.396
11622SOL    HW146494   0.855   1.532   7.357
11622SOL    HW246495   0.839   1.382   7.374
11623SOL     OW46496   2.987   2.185  24.317
11623SOL    HW146497   2.957   2.214  24.230
11623SOL    HW246498   2.947   2.247  24.378
11624SOL     OW46499   1.374   4.596  10.114
11624SOL    HW146500   1.367   4.678  10.065
11624SOL    HW246501   1.442   4.546  10.068
11625SOL     OW46502   4.739   2.604  26.653
11625SOL    HW146503   4.693   2.688  26.649
11625SOL    HW246504   0.013   2.603  26.574
11626SOL     OW46505   3.128   0.015  23.322
11626SOL    HW146506   3.125   0.062  23.239
11626SOL    HW246507   3.036   0.001  23.345
11627SOL     OW46508   0.320   0.430   7.857
11627SOL    HW146509   0.335   0.369   7.785
11627SOL    HW246510   0.238   0.474   7.834
11628SOL     OW46511   3.952   4.747  23.781
11628SOL    HW146512   3.962   4.747  23.686
11628SOL    HW246513   4.029   4.701  23.814
11629SOL     OW46514   0.407   0.390   0.064
11629SOL    HW146515   0.422   0.465   0.006
11629SOL    HW246516   0.466   0.405   0.138
11630SOL     OW46517   0.555   1.208   0.636
11630SOL    HW146518   0.626   1.146   0.653
11630SOL    HW246519   0.570   1.237   0.546
11631SOL     OW46520   0.883   1.376   4.723
11631SOL    HW146521   0.972   1.348   4.703
11631SOL    HW246522   0.870   1.353   4.815
11632SOL     OW46523   1.332   3.137  26.331
11632SOL    HW146524   1.351   3.170  26.419
11632SOL    HW246525   1.237   3.128  26.329
11633SOL     OW46526   1.894   3.258  25.075
11633SOL    HW146527   1.911   3.237  25.167
11633SOL    HW246528   1.899   3.354  25.071
11634SOL     OW46529   4.299   2.456  23.972
11634SOL    HW146530   4.315   2.518  23.901
11634SOL    HW246531   4.301   2.370  23.929
11635SOL     OW46532   0.622   1.682  21.808
11635SOL    HW146533   0.589   1.616  21.869
11635SOL    HW246534   0.712   1.698  21.837
11636SOL     OW46535   1.260   1.001  27.841
11636SOL    HW146536   1.350   0.999  27.872
11636SOL    HW246537   1.207   0.987  27.919
11637SOL     OW46538   2.796   2.343  19.460
11637SOL    HW146539   2.776   2.309  19.373
11637SOL    HW246540   2.721   2.319  19.514
11638SOL     OW46541   2.232   2.942   0.527
11638SOL    HW146542   2.173   2.917   0.456
11638SOL    HW246543   2.294   2.870   0.534
11639SOL     OW46544   1.027   3.467   6.419
11639SOL    HW146545   1.015   3.562   6.411
11639SOL    HW246546   1.121   3.455   6.435
11640SOL     OW46547   0.590   4.153   7.006
11640SOL    HW146548   0.564   4.073   6.960
11640SOL    HW246549   0.632   4.207   6.939
11641SOL     OW46550   4.450   0.317   2.590
11641SOL    HW146551   4.386   0.383   2.618
11641SOL    HW246552   4.534   0.363   2.590
11642SOL     OW46553   0.142   2.454  23.988
11642SOL    HW146554   0.159   2.546  23.969
11642SOL    HW246555   0.061   2.434  23.940
11643SOL     OW46556   1.701   1.271  21.456
11643SOL    HW146557   1.751   1.210  21.401
11643SOL    HW246558   1.726   1.358  21.425
11644SOL     OW46559   4.487   4.748  28.135
11644SOL    HW146560   4.420   0.001  28.075
11644SOL    HW246561   4.558   4.718  28.078
11645SOL     OW46562   3.458   2.542   9.161
11645SOL    HW146563   3.418   2.455   9.157
11645SOL    HW246564   3.442   2.579   9.074
11646SOL     OW46565   1.442   4.771   5.489
11646SOL    HW146566   1.475   4.759   5.578
11646SOL    HW246567   1.515   0.032   5.442
11647SOL     OW46568   4.202   4.614   8.982
11647SOL    HW146569   4.262   4.664   8.926
11647SOL    HW246570   4.259   4.572   9.046
11648SOL     OW46571   4.465   4.034  24.247
11648SOL    HW146572   4.553   4.070  24.247
11648SOL    HW246573   4.437   4.038  24.339
11649SOL     OW46574   0.230   4.225   2.718
11649SOL    HW146575   0.276   4.278   2.653
11649SOL    HW246576   0.165   4.284   2.756
11650SOL     OW46577   2.980   3.022  20.407
11650SOL    HW146578   3.026   3.076  20.471
11650SOL    HW246579   2.890   3.017  20.441
11651SOL     OW46580   2.997   3.309  26.341
11651SOL    HW146581   3.005   3.322  26.435
11651SOL    HW246582   2.933   3.375  26.313
11652SOL     OW46583   3.972   3.697   5.214
11652SOL    HW146584   4.067   3.695   5.207
11652SOL    HW246585   3.955   3.761   5.283
11653SOL     OW46586   4.032   2.681  23.157
11653SOL    HW146587   3.944   2.655  23.130
11653SOL    HW246588   4.076   2.598  23.178
11654SOL     OW46589   4.402   0.283  23.398
11654SOL    HW146590   4.415   0.214  23.333
11654SOL    HW246591   4.308   0.284  23.415
11655SOL     OW46592   3.802   2.727   4.442
11655SOL    HW146593   3.725   2.772   4.477
11655SOL    HW246594   3.872   2.792   4.448
11656SOL     OW46595   3.646   2.506  19.279
11656SOL    HW146596   3.596   2.513  19.198
11656SOL    HW246597   3.710   2.436  19.262
11657SOL     OW46598   3.069   0.401   5.514
11657SOL    HW146599   3.023   0.319   5.534
11657SOL    HW246600   3.103   0.430   5.599
11658SOL     OW46601   1.896   0.800  26.565
11658SOL    HW146602   1.835   0.780  26.636
11658SOL    HW246603   1.840   0.827  26.492
11659SOL     OW46604   2.341   3.500   7.258
11659SOL    HW146605   2.432   3.518   7.282
11659SOL    HW246606   2.310   3.440   7.326
11660SOL     OW46607   4.426   4.718  21.105
11660SOL    HW146608   4.387   4.646  21.154
11660SOL    HW246609   4.362   4.738  21.036
11661SOL     OW46610   2.328   0.865   2.059
11661SOL    HW146611   2.349   0.772   2.047
11661SOL    HW246612   2.350   0.884   2.150
11662SOL     OW46613   1.712   2.967   7.779
11662SOL    HW146614   1.801   2.983   7.810
11662SOL    HW246615   1.688   2.883   7.819
11663SOL     OW46616   0.952   1.773  27.365
11663SOL    HW146617   0.957   1.863  27.332
11663SOL    HW246618   0.936   1.719  27.287
11664SOL     OW46619   2.460   0.430  24.435
11664SOL    HW146620   2.502   0.435  24.521
11664SOL    HW246621   2.502   0.499  24.384
11665SOL     OW46622   0.946   0.944   5.786
11665SOL    HW146623   0.984   0.894   5.714
11665SOL    HW246624   0.880   0.886   5.824
11666SOL     OW46625   0.937   3.795  27.705
11666SOL    HW146626   0.908   3.884  27.684
11666SOL    HW246627   0.946   3.752  27.620
11667SOL     OW46628   3.793   4.352  21.901
11667SOL    HW146629   3.882   4.330  21.873
11667SOL    HW246630   3.756   4.269  21.931
11668SOL     OW46631   4.566   0.248   4.399
11668SOL    HW146632   4.474   0.268   4.383
11668SOL    HW246633   4.585   0.289   4.483
11669SOL     OW46634   3.012   0.673  20.439
11669SOL    HW146635   3.049   0.761  20.442
11669SOL    HW246636   3.051   0.629  20.515
11670SOL     OW46637   3.689   1.723  23.376
11670SOL    HW146638   3.616   1.719  23.314
11670SOL    HW246639   3.656   1.679  23.455
11671SOL     OW46640   3.054   1.846  22.485
11671SOL    HW146641   3.001   1.775  22.520
11671SOL    HW246642   3.129   1.851  22.544
11672SOL     OW46643   4.228   0.257   4.629
11672SOL    HW146644   4.202   0.335   4.679
11672SOL    HW246645   4.154   0.197   4.639
11673SOL     OW46646   1.330   3.706  27.593
11673SOL    HW146647   1.400   3.667  27.541
11673SOL    HW246648   1.357   3.691  27.684
11674SOL     OW46649   3.638   4.083   9.055
11674SOL    HW146650   3.651   4.011   9.116
11674SOL    HW246651   3.701   4.150   9.082
11675SOL     OW46652   3.163   3.429   2.822
11675SOL    HW146653   3.190   3.337   2.827
11675SOL    HW246654   3.182   3.455   2.732
11676SOL     OW46655   1.797   2.741   3.679
11676SOL    HW146656   1.800   2.691   3.761
11676SOL    HW246657   1.705   2.764   3.668
11677SOL     OW46658   1.153   3.967   0.578
11677SOL    HW146659   1.102   3.936   0.653
11677SOL    HW246660   1.101   4.038   0.541
11678SOL     OW46661   3.470   0.395  20.859
11678SOL    HW146662   3.525   0.356  20.792
11678SOL    HW246663   3.383   0.358  20.843
11679SOL     OW46664   0.634   2.843  23.434
11679SOL    HW146665   0.575   2.846  23.509
11679SOL    HW246666   0.577   2.849  23.358
11680SOL     OW46667   2.774   3.378   7.254
11680SOL    HW146668   2.742   3.331   7.177
11680SOL    HW246669   2.699   3.431   7.282
11681SOL     OW46670   0.957   0.319  28.063
11681SOL    HW146671   0.916   0.398  28.028
11681SOL    HW246672   0.942   0.253  27.996
11682SOL     OW46673   1.642   1.850   5.336
11682SOL    HW146674   1.734   1.842   5.310
11682SOL    HW246675   1.642   1.835   5.431
11683SOL     OW46676   0.165   1.266  24.676
11683SOL    HW146677   0.139   1.323  24.604
11683SOL    HW246678   0.215   1.196  24.635
11684SOL     OW46679   1.916   4.499  22.777
11684SOL    HW146680   2.000   4.543  22.788
11684SOL    HW246681   1.900   4.499  22.683
11685SOL     OW46682   1.414   1.140   9.196
11685SOL    HW146683   1.428   1.213   9.256
11685SOL    HW246684   1.479   1.075   9.222
11686SOL     OW46685   2.284   2.907   8.747
11686SOL    HW146686   2.356   2.887   8.807
11686SOL    HW246687   2.305   2.858   8.667
11687SOL     OW46688   3.253   4.222   1.300
11687SOL    HW146689   3.208   4.143   1.270
11687SOL    HW246690   3.303   4.194   1.377
11688SOL     OW46691   4.098   3.537   8.475
11688SOL    HW146692   4.168   3.569   8.533
11688SOL    HW246693   4.131   3.454   8.441
11689SOL     OW46694   1.471   3.731   5.546
11689SOL    HW146695   1.560   3.758   5.525
11689SOL    HW246696   1.479   3.638   5.569
11690SOL     OW46697   3.401   3.056   0.470
11690SOL    HW146698   3.312   3.083   0.445
11690SOL    HW246699   3.429   2.998   0.399
11691SOL     OW46700   0.187   3.068   1.842
11691SOL    HW146701   0.164   3.108   1.758
11691SOL    HW246702   0.274   3.102   1.862
11692SOL     OW46703   4.188   3.828   5.406
11692SOL    HW146704   4.206   3.807   5.314
11692SOL    HW246705   4.271   3.860   5.440
11693SOL     OW46706   2.105   2.285  24.223
11693SOL    HW146707   2.185   2.254  24.181
11693SOL    HW246708   2.070   2.351  24.163
11694SOL     OW46709   1.350   1.179  23.350
11694SOL    HW146710   1.404   1.124  23.407
11694SOL    HW246711   1.366   1.268  23.382
11695SOL     OW46712   0.112   4.138  20.771
11695SOL    HW146713   0.152   4.112  20.854
11695SOL    HW246714   0.135   4.068  20.710
11696SOL     OW46715   1.036   0.130   8.227
11696SOL    HW146716   0.954   0.149   8.273
11696SOL    HW246717   1.037   0.190   8.152
11697SOL     OW46718   1.977   3.197  26.955
11697SOL    HW146719   1.905   3.259  26.944
11697SOL    HW246720   1.954   3.124  26.898
11698SOL     OW46721   3.379   4.441   8.897
11698SOL    HW146722   3.317   4.509   8.925
11698SOL    HW246723   3.454   4.490   8.863
11699SOL     OW46724   1.747   1.203  19.284
11699SOL    HW146725   1.836   1.187  19.253
11699SOL    HW246726   1.718   1.119  19.319
11700SOL     OW46727   1.404   0.815  27.480
11700SOL    HW146728   1.487   0.817  27.432
11700SOL    HW246729   1.337   0.817  27.412
11701SOL     OW46730   3.145   4.463  21.718
11701SOL    HW146731   3.180   4.428  21.636
11701SOL    HW246732   3.097   4.542  21.692
11702SOL     OW46733   3.144   3.351  10.836
11702SOL    HW146734   3.128   3.443  10.855
11702SOL    HW246735   3.181   3.316  10.917
11703SOL     OW46736   0.239   4.665  20.449
11703SOL    HW146737   0.226   4.596  20.384
11703SOL    HW246738   0.165   4.657  20.509
11704SOL     OW46739   4.505   0.393   9.043
11704SOL    HW146740   4.530   0.376   8.952
11704SOL    HW246741   4.530   0.314   9.091
11705SOL     OW46742   1.618   1.109   7.834
11705SOL    HW146743   1.532   1.075   7.860
11705SOL    HW246744   1.603   1.151   7.750
11706SOL     OW46745   3.472   4.137  26.307
11706SOL    HW146746   3.438   4.054  26.274
11706SOL    HW246747   3.452   4.137  26.400
11707SOL     OW46748   2.600   3.533   9.246
11707SOL    HW146749   2.694   3.550   9.247
11707SOL    HW246750   2.576   3.522   9.338
11708SOL     OW46751   4.636   3.384   0.723
11708SOL    HW146752   4.729   3.402   0.707
11708SOL    HW246753   4.593   3.400   0.639
11709SOL     OW46754   0.664   0.035  25.086
11709SOL    HW146755   0.663   4.742  25.148
11709SOL    HW246756   0.717   0.102  25.129
11710SOL     OW46757   0.569   4.354  23.862
11710SOL    HW146758   0.616   4.434  23.839
11710SOL    HW246759   0.555   4.310  23.778
11711SOL     OW46760   3.164   3.171  20.568
11711SOL    HW146761   3.232   3.159  20.502
11711SOL    HW246762   3.184   3.106  20.635
11712SOL     OW46763   2.001   3.576  18.627
11712SOL    HW146764   2.082   3.602  18.671
11712SOL    HW246765   1.955   3.659  18.612
11713SOL     OW46766   0.487   4.375  10.635
11713SOL    HW146767   0.546   4.300  10.639
11713SOL    HW246768   0.545   4.451  10.633
11714SOL     OW46769   2.609   4.108   8.847
11714SOL    HW146770   2.657   4.129   8.927
11714SOL    HW246771   2.608   4.012   8.844
11715SOL     OW46772   0.520   3.067  22.442
11715SOL    HW146773   0.489   3.151  22.476
11715SOL    HW246774   0.525   3.011  22.519
11716SOL     OW46775   0.871   3.746  25.524
11716SOL    HW146776   0.870   3.829  25.572
11716SOL    HW246777   0.875   3.771  25.432
11717SOL     OW46778   4.390   3.012  25.177
11717SOL    HW146779   4.426   2.975  25.258
11717SOL    HW246780   4.395   2.941  25.114
11718SOL     OW46781   4.474   2.999  20.901
11718SOL    HW146782   4.484   2.929  20.837
11718SOL    HW246783   4.380   3.002  20.918
11719SOL     OW46784   0.719   0.110   9.908
11719SOL    HW146785   0.773   0.070   9.976
11719SOL    HW246786   0.635   0.064   9.914
11720SOL     OW46787   4.419   0.463   3.535
11720SOL    HW146788   4.365   0.498   3.606
11720SOL    HW246789   4.482   0.406   3.579
11721SOL     OW46790   3.894   3.088   2.014
11721SOL    HW146791   3.928   3.013   1.965
11721SOL    HW246792   3.948   3.162   1.986
11722SOL     OW46793   4.546   0.155  23.950
11722SOL    HW146794   4.521   0.191  23.865
11722SOL    HW246795   4.562   0.062  23.933
11723SOL     OW46796   2.842   0.284  20.344
11723SOL    HW146797   2.824   0.286  20.438
11723SOL    HW246798   2.780   0.221  20.309
11724SOL     OW46799   2.337   3.403  17.225
11724SOL    HW146800   2.406   3.336  17.226
11724SOL    HW246801   2.379   3.481  17.261
11725SOL     OW46802   2.603   3.730   9.498
11725SOL    HW146803   2.694   3.700   9.497
11725SOL    HW246804   2.589   3.760   9.588
11726SOL     OW46805   0.566   4.324  25.508
11726SOL    HW146806   0.516   4.243  25.516
11726SOL    HW246807   0.558   4.348  25.416
11727SOL     OW46808   4.063   0.751   8.210
11727SOL    HW146809   4.042   0.660   8.189
11727SOL    HW246810   3.981   0.787   8.244
11728SOL     OW46811   3.220   1.713  28.143
11728SOL    HW146812   3.154   1.645  28.155
11728SOL    HW246813   3.189   1.786  28.197
11729SOL     OW46814   3.580   3.475  27.683
11729SOL    HW146815   3.529   3.546  27.644
11729SOL    HW246816   3.517   3.404  27.695
11730SOL     OW46817   4.211   2.220  26.223
11730SOL    HW146818   4.290   2.221  26.169
11730SOL    HW246819   4.148   2.273  26.174
11731SOL     OW46820   1.597   4.322   9.645
11731SOL    HW146821   1.586   4.356   9.734
11731SOL    HW246822   1.664   4.377   9.606
11732SOL     OW46823   2.386   0.832   5.001
11732SOL    HW146824   2.444   0.878   5.062
11732SOL    HW246825   2.304   0.821   5.050
11733SOL     OW46826   2.014   4.130  24.244
11733SOL    HW146827   1.954   4.130  24.170
11733SOL    HW246828   2.076   4.200  24.225
11734SOL     OW46829   3.424   3.055  27.474
11734SOL    HW146830   3.438   2.967  27.508
11734SOL    HW246831   3.364   3.043  27.400
11735SOL     OW46832   4.037   2.138   8.995
11735SOL    HW146833   4.025   2.219   8.945
11735SOL    HW246834   4.130   2.118   8.985
11736SOL     OW46835   3.074   2.083   9.001
11736SOL    HW146836   3.083   2.148   9.071
11736SOL    HW246837   3.164   2.059   8.979
11737SOL     OW46838   2.784   1.833   9.029
11737SOL    HW146839   2.852   1.876   9.080
11737SOL    HW246840   2.779   1.745   9.066
11738SOL     OW46841   3.596   3.869  27.794
11738SOL    HW146842   3.689   3.850  27.806
11738SOL    HW246843   3.592   3.964  27.781
11739SOL     OW46844   3.455   3.965   1.695
11739SOL    HW146845   3.407   3.883   1.707
11739SOL    HW246846   3.531   3.957   1.752
11740SOL     OW46847   0.309   1.192   3.875
11740SOL    HW146848   0.245   1.192   3.804
11740SOL    HW246849   0.271   1.134   3.941
11741SOL     OW46850   2.950   3.851  24.637
11741SOL    HW146851   3.009   3.810  24.700
11741SOL    HW246852   2.989   3.936  24.619
11742SOL     OW46853   0.779   0.742   7.666
11742SOL    HW146854   0.868   0.776   7.676
11742SOL    HW246855   0.749   0.777   7.582
11743SOL     OW46856   2.558   2.963   7.278
11743SOL    HW146857   2.474   3.002   7.302
11743SOL    HW246858   2.623   3.019   7.320
11744SOL     OW46859   0.815   1.059  21.806
11744SOL    HW146860   0.785   0.969  21.791
11744SOL    HW246861   0.735   1.111  21.811
11745SOL     OW46862   1.804   1.267  24.021
11745SOL    HW146863   1.801   1.355  23.983
11745SOL    HW246864   1.830   1.281  24.112
11746SOL     OW46865   4.360   1.020   7.958
11746SOL    HW146866   4.303   1.019   7.881
11746SOL    HW246867   4.446   1.045   7.924
11747SOL     OW46868   3.253   0.317  28.276
11747SOL    HW146869   3.316   0.254  28.240
11747SOL    HW246870   3.247   0.385  28.209
11748SOL     OW46871   1.369   1.122  22.763
11748SOL    HW146872   1.307   1.049  22.758
11748SOL    HW246873   1.346   1.168  22.844
11749SOL     OW46874   2.276   1.251  25.917
11749SOL    HW146875   2.306   1.329  25.870
11749SOL    HW246876   2.196   1.279  25.961
11750SOL     OW46877   4.738   2.321  17.271
11750SOL    HW146878   0.002   2.390  17.320
11750SOL    HW246879   4.735   2.247  17.331
11751SOL     OW46880   1.904   2.783  23.424
11751SOL    HW146881   1.831   2.843  23.439
11751SOL    HW246882   1.882   2.705  23.474
11752SOL     OW46883   0.727   1.459  20.531
11752SOL    HW146884   0.724   1.529  20.596
11752SOL    HW246885   0.722   1.504  20.447
11753SOL     OW46886   2.088   1.264  28.286
11753SOL    HW146887   2.124   1.352  28.296
11753SOL    HW246888   2.156   1.216  28.239
11754SOL     OW46889   0.666   1.652   3.077
11754SOL    HW146890   0.695   1.608   2.997
11754SOL    HW246891   0.726   1.621   3.145
11755SOL     OW46892   3.670   3.118  27.757
11755SOL    HW146893   3.638   3.199  27.718
11755SOL    HW246894   3.633   3.118  27.845
11756SOL     OW46895   2.435   0.586   1.419
11756SOL    HW146896   2.483   0.573   1.501
11756SOL    HW246897   2.500   0.622   1.358
11757SOL     OW46898   3.612   3.422  23.370
11757SOL    HW146899   3.571   3.499  23.331
11757SOL    HW246900   3.706   3.440  23.366
11758SOL     OW46901   2.441   0.472  20.189
11758SOL    HW146902   2.458   0.420  20.111
11758SOL    HW246903   2.509   0.540  20.188
11759SOL     OW46904   3.973   3.556   2.377
11759SOL    HW146905   3.964   3.552   2.472
11759SOL    HW246906   3.904   3.498   2.344
11760SOL     OW46907   4.514   0.353   1.895
11760SOL    HW146908   4.447   0.379   1.832
11760SOL    HW246909   4.584   0.418   1.884
11761SOL     OW46910   0.092   0.323  20.788
11761SOL    HW146911   0.156   0.285  20.727
11761SOL    HW246912   0.019   0.350  20.732
11762SOL     OW46913   4.423   2.503  20.246
11762SOL    HW146914   4.393   2.545  20.166
11762SOL    HW246915   4.344   2.495  20.300
11763SOL     OW46916   2.038   4.705   3.634
11763SOL    HW146917   1.975   4.747   3.693
11763SOL    HW246918   1.990   4.692   3.552
11764SOL     OW46919   4.371   1.584   9.856
11764SOL    HW146920   4.455   1.629   9.844
11764SOL    HW246921   4.320   1.606   9.778
11765SOL     OW46922   3.262   1.086  25.120
11765SOL    HW146923   3.231   1.104  25.031
11765SOL    HW246924   3.339   1.142  25.131
11766SOL     OW46925   1.863   0.511  12.210
11766SOL    HW146926   1.913   0.431  12.193
11766SOL    HW246927   1.824   0.497  12.296
11767SOL     OW46928   2.536   2.714  22.484
11767SOL    HW146929   2.599   2.642  22.480
11767SOL    HW246930   2.586   2.791  22.458
11768SOL     OW46931   1.838   0.467   9.338
11768SOL    HW146932   1.857   0.491   9.247
11768SOL    HW246933   1.888   0.529   9.390
11769SOL     OW46934   2.007   0.198   1.215
11769SOL    HW146935   2.023   0.231   1.304
11769SOL    HW246936   2.023   0.104   1.221
11770SOL     OW46937   0.152   3.002  19.854
11770SOL    HW146938   0.105   3.082  19.878
11770SOL    HW246939   0.244   3.026  19.861
11771SOL     OW46940   2.875   4.770   6.782
11771SOL    HW146941   2.958   4.764   6.735
11771SOL    HW246942   2.817   0.035   6.721
11772SOL     OW46943   2.250   3.803  19.409
11772SOL    HW146944   2.267   3.720  19.364
11772SOL    HW246945   2.240   3.779  19.501
11773SOL     OW46946   3.836   4.050  20.510
11773SOL    HW146947   3.815   3.986  20.578
11773SOL    HW246948   3.825   4.002  20.428
11774SOL     OW46949   4.734   2.801   2.330
11774SOL    HW146950   4.720   2.893   2.355
11774SOL    HW246951   4.678   2.752   2.390
11775SOL     OW46952   4.539   3.487  10.889
11775SOL    HW146953   4.504   3.535  10.964
11775SOL    HW246954   4.467   3.431  10.861
11776SOL     OW46955   3.105   4.326   9.185
11776SOL    HW146956   3.122   4.251   9.242
11776SOL    HW246957   3.033   4.298   9.129
11777SOL     OW46958   0.857   2.828   3.304
11777SOL    HW146959   0.853   2.862   3.215
11777SOL    HW246960   0.942   2.784   3.309
11778SOL     OW46961   2.901   1.073  23.480
11778SOL    HW146962   2.942   1.074  23.566
11778SOL    HW246963   2.970   1.041  23.421
11779SOL     OW46964   3.728   3.721  11.182
11779SOL    HW146965   3.789   3.681  11.243
11779SOL    HW246966   3.782   3.746  11.107
11780SOL     OW46967   1.676   2.105  21.452
11780SOL    HW146968   1.707   2.193  21.429
11780SOL    HW246969   1.582   2.108  21.435
11781SOL     OW46970   4.560   4.215   3.032
11781SOL    HW146971   4.645   4.260   3.030
11781SOL    HW246972   4.520   4.236   2.948
11782SOL     OW46973   0.690   4.755   3.710
11782SOL    HW146974   0.623   0.041   3.696
11782SOL    HW246975   0.696   4.746   3.805
11783SOL     OW46976   4.415   3.405  20.130
11783SOL    HW146977   4.418   3.352  20.210
11783SOL    HW246978   4.394   3.493  20.161
11784SOL     OW46979   2.631   0.707   2.287
11784SOL    HW146980   2.654   0.725   2.196
11784SOL    HW246981   2.630   0.611   2.293
11785SOL     OW46982   4.778   1.714  24.738
11785SOL    HW146983   0.018   1.648  24.672
11785SOL    HW246984   4.740   1.787  24.689
11786SOL     OW46985   3.747   1.553  20.908
11786SOL    HW146986   3.720   1.638  20.943
11786SOL    HW246987   3.719   1.554  20.817
11787SOL     OW46988   4.047   3.502   6.157
11787SOL    HW146989   4.107   3.428   6.162
11787SOL    HW246990   4.031   3.526   6.248
11788SOL     OW46991   4.370   2.926   3.357
11788SOL    HW146992   4.421   3.005   3.336
11788SOL    HW246993   4.328   2.946   3.441
11789SOL     OW46994   0.393   1.545   7.930
11789SOL    HW146995   0.449   1.496   7.869
11789SOL    HW246996   0.418   1.512   8.016
11790SOL     OW46997   3.782   0.692  26.669
11790SOL    HW146998   3.701   0.715  26.715
11790SOL    HW246999   3.783   0.596  26.668
11791SOL     OW47000   3.818   1.896  27.205
11791SOL    HW147001   3.725   1.888  27.226
11791SOL    HW247002   3.822   1.969  27.144
11792SOL     OW47003   4.570   3.651  20.752
11792SOL    HW147004   4.503   3.612  20.696
11792SOL    HW247005   4.651   3.607  20.727
11793SOL     OW47006   0.186   3.177  22.801
11793SOL    HW147007   0.153   3.218  22.881
11793SOL    HW247008   0.279   3.201  22.798
11794SOL     OW47009   1.723   3.713   4.588
11794SOL    HW147010   1.698   3.796   4.548
11794SOL    HW247011   1.794   3.736   4.648
11795SOL     OW47012   1.847   4.271   7.722
11795SOL    HW147013   1.781   4.290   7.789
11795SOL    HW247014   1.916   4.223   7.769
11796SOL     OW47015   2.101   3.639  22.301
11796SOL    HW147016   2.174   3.691  22.266
11796SOL    HW247017   2.072   3.688  22.378
11797SOL     OW47018   2.264   0.583  23.784
11797SOL    HW147019   2.187   0.640  23.775
11797SOL    HW247020   2.279   0.578  23.878
11798SOL     OW47021   2.681   4.136  23.813
11798SOL    HW147022   2.710   4.144  23.904
11798SOL    HW247023   2.585   4.139  23.817
11799SOL     OW47024   1.117   0.316   5.259
11799SOL    HW147025   1.095   0.405   5.288
11799SOL    HW247026   1.034   0.268   5.264
11800SOL     OW47027   1.615   1.360  16.809
11800SOL    HW147028   1.614   1.273  16.850
11800SOL    HW247029   1.654   1.346  16.723
11801SOL     OW47030   3.230   0.520  27.597
11801SOL    HW147031   3.149   0.502  27.549
11801SOL    HW247032   3.300   0.500  27.535
11802SOL     OW47033   0.638   1.443   6.067
11802SOL    HW147034   0.566   1.490   6.110
11802SOL    HW247035   0.706   1.437   6.134
11803SOL     OW47036   4.027   3.285   7.652
11803SOL    HW147037   4.097   3.267   7.589
11803SOL    HW247038   4.057   3.245   7.733
11804SOL     OW47039   0.673   0.309   7.486
11804SOL    HW147040   0.661   0.351   7.571
11804SOL    HW247041   0.748   0.354   7.447
11805SOL     OW47042   0.626   4.353  24.116
11805SOL    HW147043   0.594   4.347  24.026
11805SOL    HW247044   0.557   4.399  24.163
11806SOL     OW47045   1.190   3.238  19.798
11806SOL    HW147046   1.283   3.230  19.778
11806SOL    HW247047   1.187   3.272  19.887
11807SOL     OW47048   3.096   4.711  28.192
11807SOL    HW147049   3.015   4.691  28.239
11807SOL    HW247050   3.074   0.007  28.139
11808SOL     OW47051   2.548   2.251  27.585
11808SOL    HW147052   2.510   2.273  27.500
11808SOL    HW247053   2.621   2.312  27.596
11809SOL     OW47054   4.252   3.161  20.036
11809SOL    HW147055   4.171   3.205  20.061
11809SOL    HW247056   4.322   3.217  20.069
11810SOL     OW47057   0.364   4.649   0.636
11810SOL    HW147058   0.293   4.713   0.635
11810SOL    HW247059   0.324   4.569   0.601
11811SOL     OW47060   4.341   0.207  24.413
11811SOL    HW147061   4.350   0.200  24.508
11811SOL    HW247062   4.419   0.164  24.378
11812SOL     OW47063   4.185   4.102   2.550
11812SOL    HW147064   4.268   4.088   2.505
11812SOL    HW247065   4.137   4.020   2.539
11813SOL     OW47066   1.512   3.998  16.444
11813SOL    HW147067   1.497   4.088  16.415
11813SOL    HW247068   1.600   3.977  16.413
11814SOL     OW47069   1.098   4.084  22.147
11814SOL    HW147070   1.021   4.137  22.167
11814SOL    HW247071   1.103   4.083  22.051
11815SOL     OW47072   3.761   2.770  27.216
11815SOL    HW147073   3.683   2.723  27.186
11815SOL    HW247074   3.834   2.722  27.177
11816SOL     OW47075   3.305   3.023   6.002
11816SOL    HW147076   3.252   2.945   5.985
11816SOL    HW247077   3.241   3.091   6.022
11817SOL     OW47078   1.584   1.361  19.136
11817SOL    HW147079   1.636   1.298  19.186
11817SOL    HW247080   1.550   1.422  19.201
11818SOL     OW47081   0.595   4.696  10.274
11818SOL    HW147082   0.579   4.779  10.230
11818SOL    HW247083   0.638   4.721  10.356
11819SOL     OW47084   1.503   4.555  27.063
11819SOL    HW147085   1.574   4.550  27.127
11819SOL    HW247086   1.515   4.639  27.020
11820SOL     OW47087   3.079   3.319   1.183
11820SOL    HW147088   3.036   3.314   1.268
11820SOL    HW247089   3.139   3.244   1.183
11821SOL     OW47090   4.661   2.929   4.208
11821SOL    HW147091   4.669   2.964   4.119
11821SOL    HW247092   4.660   2.834   4.196
11822SOL     OW47093   3.502   2.283  28.087
11822SOL    HW147094   3.552   2.285  28.168
11822SOL    HW247095   3.527   2.363  28.041
11823SOL     OW47096   3.827   4.686   5.318
11823SOL    HW147097   3.905   4.726   5.356
11823SOL    HW247098   3.754   4.737   5.354
11824SOL     OW47099   1.272   1.973   1.929
11824SOL    HW147100   1.310   1.891   1.962
11824SOL    HW247101   1.348   2.028   1.909
11825SOL     OW47102   3.402   3.971  17.593
11825SOL    HW147103   3.361   3.997  17.511
11825SOL    HW247104   3.419   3.877  17.583
11826SOL     OW47105   3.472   2.114   1.277
11826SOL    HW147106   3.449   2.148   1.190
11826SOL    HW247107   3.506   2.190   1.324
11827SOL     OW47108   4.608   1.452   7.043
11827SOL    HW147109   4.575   1.435   7.131
11827SOL    HW247110   4.560   1.530   7.015
11828SOL     OW47111   4.017   3.137   3.703
11828SOL    HW147112   3.969   3.207   3.659
11828SOL    HW247113   4.030   3.169   3.792
11829SOL     OW47114   4.573   2.586   1.107
11829SOL    HW147115   4.597   2.560   1.196
11829SOL    HW247116   4.652   2.571   1.055
11830SOL     OW47117   4.548   1.771  24.842
11830SOL    HW147118   4.531   1.794  24.751
11830SOL    HW247119   4.635   1.731  24.840
11831SOL     OW47120   3.371   3.230  23.125
11831SOL    HW147121   3.390   3.142  23.158
11831SOL    HW247122   3.346   3.217  23.033
11832SOL     OW47123   0.140   2.893  28.374
11832SOL    HW147124   0.066   2.881  28.315
11832SOL    HW247125   0.146   2.988  28.386
11833SOL     OW47126   0.129   0.931  18.677
11833SOL    HW147127   0.073   0.854  18.691
11833SOL    HW247128   0.073   1.006  18.698
11834SOL     OW47129   3.967   1.192  22.465
11834SOL    HW147130   3.882   1.196  22.509
11834SOL    HW247131   4.014   1.269  22.496
11835SOL     OW47132   1.843   1.256   4.031
11835SOL    HW147133   1.894   1.193   4.083
11835SOL    HW247134   1.788   1.301   4.095
11836SOL     OW47135   2.476   1.535   0.702
11836SOL    HW147136   2.499   1.570   0.788
11836SOL    HW247137   2.453   1.612   0.650
11837SOL     OW47138   3.785   3.894   8.481
11837SOL    HW147139   3.808   3.944   8.403
11837SOL    HW247140   3.851   3.920   8.546
11838SOL     OW47141   4.064   3.481  20.343
11838SOL    HW147142   4.081   3.573  20.322
11838SOL    HW247143   4.103   3.469  20.430
11839SOL     OW47144   4.061   3.958   1.512
11839SOL    HW147145   3.970   3.928   1.510
11839SOL    HW247146   4.113   3.878   1.505
11840SOL     OW47147   1.137   1.281  27.769
11840SOL    HW147148   1.201   1.215  27.796
11840SOL    HW247149   1.052   1.241  27.786
11841SOL     OW47150   3.366   2.032   5.672
11841SOL    HW147151   3.387   2.101   5.735
11841SOL    HW247152   3.401   1.952   5.711
11842SOL     OW47153   2.186   2.476   2.017
11842SOL    HW147154   2.138   2.403   2.056
11842SOL    HW247155   2.118   2.540   1.996
11843SOL     OW47156   1.743   0.481   5.856
11843SOL    HW147157   1.744   0.392   5.890
11843SOL    HW247158   1.650   0.503   5.849
11844SOL     OW47159   2.245   0.162  26.339
11844SOL    HW147160   2.226   0.133  26.250
11844SOL    HW247161   2.193   0.242  26.350
11845SOL     OW47162   1.404   4.132  26.661
11845SOL    HW147163   1.316   4.095  26.655
11845SOL    HW247164   1.462   4.059  26.640
11846SOL     OW47165   1.659   3.527  25.276
11846SOL    HW147166   1.620   3.440  25.280
11846SOL    HW247167   1.662   3.548  25.183
11847SOL     OW47168   0.867   2.459   9.096
11847SOL    HW147169   0.845   2.375   9.056
11847SOL    HW247170   0.948   2.486   9.054
11848SOL     OW47171   1.468   1.399   4.679
11848SOL    HW147172   1.522   1.368   4.606
11848SOL    HW247173   1.492   1.491   4.689
11849SOL     OW47174   0.554   2.970   4.175
11849SOL    HW147175   0.582   2.977   4.266
11849SOL    HW247176   0.633   2.990   4.125
11850SOL     OW47177   4.188   2.344   7.779
11850SOL    HW147178   4.221   2.407   7.843
11850SOL    HW247179   4.137   2.281   7.830
11851SOL     OW47180   3.150   0.002   0.270
11851SOL    HW147181   3.163   0.012   0.364
11851SOL    HW247182   3.127   0.090   0.239
11852SOL     OW47183   3.091   1.846  24.099
11852SOL    HW147184   3.114   1.757  24.124
11852SOL    HW247185   3.017   1.836  24.040
11853SOL     OW47186   0.628   3.858  21.785
11853SOL    HW147187   0.685   3.796  21.830
11853SOL    HW247188   0.576   3.804  21.726
11854SOL     OW47189   1.248   1.801   8.957
11854SOL    HW147190   1.155   1.786   8.976
11854SOL    HW247191   1.277   1.720   8.915
11855SOL     OW47192   3.173   0.224  19.699
11855SOL    HW147193   3.202   0.305  19.741
11855SOL    HW247194   3.249   0.194  19.649
11856SOL     OW47195   3.760   0.164   5.148
11856SOL    HW147196   3.792   0.078   5.122
11856SOL    HW247197   3.666   0.152   5.162
11857SOL     OW47198   2.505   4.615   2.346
11857SOL    HW147199   2.476   4.685   2.405
11857SOL    HW247200   2.479   4.645   2.259
11858SOL     OW47201   1.102   4.090  21.208
11858SOL    HW147202   1.027   4.050  21.252
11858SOL    HW247203   1.151   4.016  21.172
11859SOL     OW47204   1.646   0.719  15.991
11859SOL    HW147205   1.715   0.732  15.926
11859SOL    HW247206   1.692   0.686  16.068
11860SOL     OW47207   4.572   2.151  25.696
11860SOL    HW147208   4.550   2.153  25.603
11860SOL    HW247209   4.626   2.073  25.706
11861SOL     OW47210   0.998   0.236  23.329
11861SOL    HW147211   0.912   0.275  23.344
11861SOL    HW247212   1.060   0.305  23.352
11862SOL     OW47213   2.132   1.615  27.745
11862SOL    HW147214   2.135   1.710  27.752
11862SOL    HW247215   2.044   1.592  27.774
11863SOL     OW47216   0.155   3.793  11.028
11863SOL    HW147217   0.073   3.744  11.024
11863SOL    HW247218   0.153   3.836  11.113
11864SOL     OW47219   3.393   2.223   3.355
11864SOL    HW147220   3.358   2.142   3.391
11864SOL    HW247221   3.408   2.279   3.431
11865SOL     OW47222   0.079   4.430   7.067
11865SOL    HW147223   0.128   4.505   7.034
11865SOL    HW247224   0.082   4.366   6.996
11866SOL     OW47225   1.874   0.107   5.397
11866SOL    HW147226   1.902   0.027   5.353
11866SOL    HW247227   1.917   0.103   5.483
11867SOL     OW47228   3.535   2.725  25.919
11867SOL    HW147229   3.491   2.677  25.989
11867SOL    HW247230   3.465   2.777  25.879
11868SOL     OW47231   4.146   3.934  19.046
11868SOL    HW147232   4.229   3.912  19.003
11868SOL    HW247233   4.080   3.920  18.978
11869SOL     OW47234   0.600   1.293   2.233
11869SOL    HW147235   0.584   1.314   2.141
11869SOL    HW247236   0.534   1.344   2.281
11870SOL     OW47237   0.297   3.956  27.382
11870SOL    HW147238   0.351   3.907  27.320
11870SOL    HW247239   0.322   4.047  27.368
11871SOL     OW47240   3.181   1.383   0.012
11871SOL    HW147241   3.276   1.376   0.018
11871SOL    HW247242   3.149   1.349   0.095
11872SOL     OW47243   2.213   4.679   6.219
11872SOL    HW147244   2.276   4.751   6.225
11872SOL    HW247245   2.150   4.696   6.289
11873SOL     OW47246   2.257   4.463  27.043
11873SOL    HW147247   2.325   4.487  27.106
11873SOL    HW247248   2.303   4.458  26.959
11874SOL     OW47249   0.975   2.937   1.306
11874SOL    HW147250   0.979   2.902   1.217
11874SOL    HW247251   1.066   2.934   1.336
11875SOL     OW47252   0.851   4.233  22.106
11875SOL    HW147253   0.788   4.205  22.039
11875SOL    HW247254   0.919   4.279  22.057
11876SOL     OW47255   2.429   2.316  22.625
11876SOL    HW147256   2.509   2.295  22.673
11876SOL    HW247257   2.359   2.273  22.675
11877SOL     OW47258   2.987   3.358   8.042
11877SOL    HW147259   2.994   3.310   8.124
11877SOL    HW247260   3.030   3.302   7.977
11878SOL     OW47261   1.313   4.751  17.452
11878SOL    HW147262   1.278   4.740  17.363
11878SOL    HW247263   1.373   0.045  17.445
11879SOL     OW47264   3.387   1.989  27.405
11879SOL    HW147265   3.304   1.993  27.453
11879SOL    HW247266   3.450   1.956  27.469
11880SOL     OW47267   3.372   2.615   1.637
11880SOL    HW147268   3.370   2.634   1.731
11880SOL    HW247269   3.347   2.523   1.630
11881SOL     OW47270   2.265   4.531   3.630
11881SOL    HW147271   2.287   4.556   3.720
11881SOL    HW247272   2.189   4.586   3.609
11882SOL     OW47273   3.289   2.702   9.578
11882SOL    HW147274   3.213   2.666   9.532
11882SOL    HW247275   3.281   2.670   9.668
11883SOL     OW47276   0.429   1.654  17.081
11883SOL    HW147277   0.524   1.663  17.070
11883SOL    HW247278   0.397   1.744  17.090
11884SOL     OW47279   4.665   1.086  25.431
11884SOL    HW147280   4.694   1.147  25.499
11884SOL    HW247281   4.657   1.002  25.477
11885SOL     OW47282   1.045   0.181  21.328
11885SOL    HW147283   1.037   0.157  21.420
11885SOL    HW247284   1.061   0.098  21.283
11886SOL     OW47285   3.692   2.104   3.291
11886SOL    HW147286   3.770   2.052   3.311
11886SOL    HW247287   3.635   2.044   3.244
11887SOL     OW47288   1.492   0.062  28.322
11887SOL    HW147289   1.481   4.778  28.392
11887SOL    HW247290   1.583   0.052  28.294
11888SOL     OW47291   0.269   2.276  23.077
11888SOL    HW147292   0.257   2.205  23.141
11888SOL    HW247293   0.186   2.323  23.077
11889SOL     OW47294   0.599   3.758  25.061
11889SOL    HW147295   0.676   3.703  25.045
11889SOL    HW247296   0.542   3.705  25.116
11890SOL     OW47297   2.727   2.969  20.515
11890SOL    HW147298   2.689   3.033  20.576
11890SOL    HW247299   2.671   2.973  20.438
11891SOL     OW47300   1.386   0.232   6.227
11891SOL    HW147301   1.297   0.226   6.263
11891SOL    HW247302   1.442   0.240   6.304
11892SOL     OW47303   1.146   0.452  23.389
11892SOL    HW147304   1.236   0.461  23.420
11892SOL    HW247305   1.138   0.515  23.318
11893SOL     OW47306   1.240   3.392  24.222
11893SOL    HW147307   1.277   3.308  24.249
11893SOL    HW247308   1.313   3.438  24.180
11894SOL     OW47309   2.963   2.097  25.407
11894SOL    HW147310   2.959   2.069  25.498
11894SOL    HW247311   3.039   2.156  25.403
11895SOL     OW47312   3.635   3.966   6.092
11895SOL    HW147313   3.576   3.897   6.124
11895SOL    HW247314   3.696   3.981   6.165
11896SOL     OW47315   2.526   0.714   5.586
11896SOL    HW147316   2.613   0.690   5.617
11896SOL    HW247317   2.536   0.802   5.550
11897SOL     OW47318   2.136   3.031   1.179
11897SOL    HW147319   2.171   3.008   1.093
11897SOL    HW247320   2.056   3.079   1.160
11898SOL     OW47321   0.712   1.266   7.348
11898SOL    HW147322   0.628   1.313   7.348
11898SOL    HW247323   0.720   1.232   7.437
11899SOL     OW47324   4.251   3.490   8.015
11899SOL    HW147325   4.272   3.461   7.926
11899SOL    HW247326   4.288   3.422   8.071
11900SOL     OW47327   3.661   0.713  24.041
11900SOL    HW147328   3.702   0.694  23.956
11900SOL    HW247329   3.727   0.762  24.089
11901SOL     OW47330   2.997   4.225  25.680
11901SOL    HW147331   3.042   4.154  25.726
11901SOL    HW247332   2.906   4.219  25.710
11902SOL     OW47333   2.384   3.011   2.083
11902SOL    HW147334   2.401   3.063   2.004
11902SOL    HW247335   2.470   2.979   2.110
11903SOL     OW47336   1.579   1.400   1.414
11903SOL    HW147337   1.564   1.369   1.325
11903SOL    HW247338   1.672   1.421   1.417
11904SOL     OW47339   4.111   0.491   6.683
11904SOL    HW147340   4.054   0.568   6.681
11904SOL    HW247341   4.167   0.505   6.759
11905SOL     OW47342   1.214   0.920   1.649
11905SOL    HW147343   1.294   0.920   1.597
11905SOL    HW247344   1.201   0.828   1.674
11906SOL     OW47345   0.345   4.267   1.069
11906SOL    HW147346   0.391   4.337   1.115
11906SOL    HW247347   0.368   4.279   0.977
11907SOL     OW47348   1.983   2.765  26.463
11907SOL    HW147349   1.900   2.758  26.511
11907SOL    HW247350   1.957   2.788  26.374
11908SOL     OW47351   1.262   3.357   0.916
11908SOL    HW147352   1.259   3.283   0.977
11908SOL    HW247353   1.176   3.358   0.874
11909SOL     OW47354   3.774   2.869  25.931
11909SOL    HW147355   3.710   2.799  25.918
11909SOL    HW247356   3.833   2.836  25.998
11910SOL     OW47357   4.372   1.422  22.458
11910SOL    HW147358   4.358   1.366  22.534
11910SOL    HW247359   4.290   1.471  22.450
11911SOL     OW47360   2.594   1.737  20.312
11911SOL    HW147361   2.665   1.676  20.291
11911SOL    HW247362   2.639   1.819  20.334
11912SOL     OW47363   4.388   4.091   0.054
11912SOL    HW147364   4.399   4.169  28.519
11912SOL    HW247365   4.299   4.099   0.088
11913SOL     OW47366   3.427   1.137   3.394
11913SOL    HW147367   3.474   1.147   3.477
11913SOL    HW247368   3.490   1.162   3.327
11914SOL     OW47369   0.860   1.416  25.651
11914SOL    HW147370   0.888   1.337  25.698
11914SOL    HW247371   0.925   1.482  25.675
11915SOL     OW47372   4.230   0.015  23.132
11915SOL    HW147373   4.208   0.102  23.100
11915SOL    HW247374   4.304   0.029  23.192
11916SOL     OW47375   3.596   3.407  25.500
11916SOL    HW147376   3.615   3.452  25.582
11916SOL    HW247377   3.603   3.314  25.522
11917SOL     OW47378   1.819   0.039  10.272
11917SOL    HW147379   1.841   0.020  10.363
11917SOL    HW247380   1.732   0.001  10.260
11918SOL     OW47381   2.187   3.105  28.445
11918SOL    HW147382   2.175   3.131  28.354
11918SOL    HW247383   2.266   3.151  28.474
11919SOL     OW47384   0.395   1.019   2.007
11919SOL    HW147385   0.301   1.034   2.012
11919SOL    HW247386   0.422   1.061   1.925
11920SOL     OW47387   4.567   2.781  24.217
11920SOL    HW147388   4.546   2.816  24.130
11920SOL    HW247389   4.663   2.778  24.220
11921SOL     OW47390   4.057   1.082   6.354
11921SOL    HW147391   4.152   1.077   6.342
11921SOL    HW247392   4.045   1.154   6.416
11922SOL     OW47393   0.260   1.070  23.304
11922SOL    HW147394   0.233   1.156  23.271
11922SOL    HW247395   0.200   1.008  23.262
11923SOL     OW47396   4.665   2.831   3.374
11923SOL    HW147397   4.755   2.838   3.405
11923SOL    HW247398   4.651   2.738   3.359
11924SOL     OW47399   3.372   3.414   5.006
11924SOL    HW147400   3.367   3.339   5.065
11924SOL    HW247401   3.295   3.466   5.028
11925SOL     OW47402   4.056   3.435  27.195
11925SOL    HW147403   3.983   3.373  27.191
11925SOL    HW247404   4.038   3.488  27.273
11926SOL     OW47405   0.072   2.788   7.126
11926SOL    HW147406   0.102   2.797   7.216
11926SOL    HW247407   4.777   2.729   7.131
11927SOL     OW47408   2.070   3.362  20.707
11927SOL    HW147409   1.975   3.365  20.721
11927SOL    HW247410   2.107   3.351  20.795
11928SOL     OW47411   1.156   1.961  21.097
11928SOL    HW147412   1.075   1.969  21.148
11928SOL    HW247413   1.201   2.044  21.112
11929SOL     OW47414   3.094   0.219  10.647
11929SOL    HW147415   3.065   0.263  10.727
11929SOL    HW247416   3.102   0.290  10.583
11930SOL     OW47417   2.421   3.109   0.933
11930SOL    HW147418   2.410   3.041   1.000
11930SOL    HW247419   2.334   3.148   0.924
11931SOL     OW47420   2.129   2.557  18.853
11931SOL    HW147421   2.155   2.626  18.915
11931SOL    HW247422   2.038   2.577  18.832
11932SOL     OW47423   1.375   2.785  25.481
11932SOL    HW147424   1.368   2.753  25.391
11932SOL    HW247425   1.285   2.789  25.513
11933SOL     OW47426   3.817   0.191  19.868
11933SOL    HW147427   3.907   0.177  19.897
11933SOL    HW247428   3.768   0.207  19.949
11934SOL     OW47429   2.244   3.880  21.719
11934SOL    HW147430   2.219   3.830  21.797
11934SOL    HW247431   2.254   3.970  21.750
11935SOL     OW47432   0.955   0.050   6.808
11935SOL    HW147433   0.871   0.027   6.848
11935SOL    HW247434   1.020   0.030   6.876
11936SOL     OW47435   0.873   0.917  22.438
11936SOL    HW147436   0.950   0.973  22.439
11936SOL    HW247437   0.869   0.882  22.349
11937SOL     OW47438   0.880   2.988   2.727
11937SOL    HW147439   0.882   3.072   2.681
11937SOL    HW247440   0.972   2.964   2.736
11938SOL     OW47441   1.089   2.723   8.691
11938SOL    HW147442   1.175   2.750   8.659
11938SOL    HW247443   1.035   2.716   8.612
11939SOL     OW47444   1.844   0.186  11.921
11939SOL    HW147445   1.829   0.266  11.870
11939SOL    HW247446   1.789   0.196  11.999
11940SOL     OW47447   0.389   2.383  26.778
11940SOL    HW147448   0.302   2.422  26.767
11940SOL    HW247449   0.371   2.292  26.800
11941SOL     OW47450   1.359   2.207  22.771
11941SOL    HW147451   1.439   2.245  22.734
11941SOL    HW247452   1.292   2.274  22.755
11942SOL     OW47453   0.132   4.764  24.262
11942SOL    HW147454   0.068   4.738  24.329
11942SOL    HW247455   0.217   4.752  24.304
11943SOL     OW47456   0.234   3.715  21.736
11943SOL    HW147457   0.272   3.792  21.779
11943SOL    HW247458   0.309   3.658  21.718
11944SOL     OW47459   1.679   3.631  27.724
11944SOL    HW147460   1.671   3.536  27.719
11944SOL    HW247461   1.686   3.649  27.818
11945SOL     OW47462   4.500   3.825  20.086
11945SOL    HW147463   4.549   3.889  20.034
11945SOL    HW247464   4.453   3.773  20.021
11946SOL     OW47465   0.426   2.795   9.063
11946SOL    HW147466   0.405   2.716   9.013
11946SOL    HW247467   0.511   2.776   9.103
11947SOL     OW47468   0.094   0.865  21.835
11947SOL    HW147469   0.076   0.783  21.880
11947SOL    HW247470   0.051   0.932  21.888
11948SOL     OW47471   2.380   1.168  27.528
11948SOL    HW147472   2.375   1.259  27.557
11948SOL    HW247473   2.463   1.162  27.481
11949SOL     OW47474   3.285   4.545  18.912
11949SOL    HW147475   3.282   4.635  18.879
11949SOL    HW247476   3.361   4.506  18.869
11950SOL     OW47477   4.134   3.341   8.783
11950SOL    HW147478   4.204   3.350   8.719
11950SOL    HW247479   4.130   3.426   8.827
11951SOL     OW47480   1.232   2.429  11.601
11951SOL    HW147481   1.224   2.451  11.508
11951SOL    HW247482   1.210   2.336  11.605
11952SOL     OW47483   3.248   3.216   5.689
11952SOL    HW147484   3.304   3.241   5.762
11952SOL    HW247485   3.256   3.121   5.685
11953SOL     OW47486   2.632   4.296   1.716
11953SOL    HW147487   2.694   4.225   1.702
11953SOL    HW247488   2.683   4.376   1.702
11954SOL     OW47489   2.777   3.986  20.796
11954SOL    HW147490   2.849   3.958  20.739
11954SOL    HW247491   2.819   4.033  20.868
11955SOL     OW47492   0.114   4.420   6.152
11955SOL    HW147493   0.024   4.412   6.184
11955SOL    HW247494   0.106   4.420   6.057
11956SOL     OW47495   2.925   2.526   7.103
11956SOL    HW147496   2.969   2.579   7.170
11956SOL    HW247497   2.852   2.485   7.150
11957SOL     OW47498   2.813   4.118   1.169
11957SOL    HW147499   2.790   4.038   1.215
11957SOL    HW247500   2.779   4.188   1.224
11958SOL     OW47501   1.379   3.733   3.092
11958SOL    HW147502   1.354   3.807   3.148
11958SOL    HW247503   1.434   3.771   3.024
11959SOL     OW47504   4.156   0.518  25.350
11959SOL    HW147505   4.157   0.525  25.445
11959SOL    HW247506   4.166   0.608  25.319
11960SOL     OW47507   2.663   0.252   6.206
11960SOL    HW147508   2.671   0.309   6.283
11960SOL    HW247509   2.730   0.185   6.218
11961SOL     OW47510   0.272   3.532  27.494
11961SOL    HW147511   0.285   3.626  27.507
11961SOL    HW247512   0.222   3.525  27.413
11962SOL     OW47513   2.880   1.139   5.988
11962SOL    HW147514   2.785   1.126   5.991
11962SOL    HW247515   2.893   1.231   6.011
11963SOL     OW47516   0.332   1.133   5.628
11963SOL    HW147517   0.409   1.120   5.573
11963SOL    HW247518   0.302   1.044   5.648
11964SOL     OW47519   0.207   1.186  22.680
11964SOL    HW147520   0.240   1.223  22.598
11964SOL    HW247521   0.281   1.190  22.740
11965SOL     OW47522   3.900   3.327  26.179
11965SOL    HW147523   3.885   3.357  26.269
11965SOL    HW247524   3.826   3.269  26.160
11966SOL     OW47525   2.590   0.422  22.379
11966SOL    HW147526   2.566   0.493  22.319
11966SOL    HW247527   2.518   0.419  22.442
11967SOL     OW47528   2.461   3.315   4.386
11967SOL    HW147529   2.532   3.266   4.428
11967SOL    HW247530   2.502   3.396   4.357
11968SOL     OW47531   2.793   4.777  22.353
11968SOL    HW147532   2.821   4.753  22.265
11968SOL    HW247533   2.855   0.065  22.380
11969SOL     OW47534   4.216   3.814   7.728
11969SOL    HW147535   4.161   3.831   7.652
11969SOL    HW247536   4.209   3.720   7.743
11970SOL     OW47537   2.400   3.364   1.194
11970SOL    HW147538   2.370   3.354   1.284
11970SOL    HW247539   2.325   3.402   1.148
11971SOL     OW47540   2.682   2.469   6.917
11971SOL    HW147541   2.687   2.375   6.934
11971SOL    HW247542   2.684   2.509   7.004
11972SOL     OW47543   4.448   2.244  26.084
11972SOL    HW147544   4.465   2.321  26.030
11972SOL    HW247545   4.532   2.226  26.126
11973SOL     OW47546   2.945   0.899  20.203
11973SOL    HW147547   2.895   0.940  20.133
11973SOL    HW247548   3.005   0.840  20.158
11974SOL     OW47549   1.012   4.416   5.291
11974SOL    HW147550   1.008   4.334   5.340
11974SOL    HW247551   1.024   4.388   5.200
11975SOL     OW47552   0.595   0.768   3.388
11975SOL    HW147553   0.685   0.768   3.421
11975SOL    HW247554   0.542   0.798   3.462
11976SOL     OW47555   3.702   4.326   7.602
11976SOL    HW147556   3.651   4.246   7.591
11976SOL    HW247557   3.791   4.301   7.578
11977SOL     OW47558   0.204   2.390   9.945
11977SOL    HW147559   0.238   2.373  10.033
11977SOL    HW247560   0.168   2.306   9.916
11978SOL     OW47561   3.616   1.316  23.287
11978SOL    HW147562   3.701   1.348  23.317
11978SOL    HW247563   3.638   1.243  23.229
11979SOL     OW47564   4.026   1.258   6.586
11979SOL    HW147565   3.979   1.341   6.581
11979SOL    HW247566   4.030   1.238   6.680
11980SOL     OW47567   3.975   2.960  20.719
11980SOL    HW147568   3.951   2.984  20.809
11980SOL    HW247569   3.892   2.939  20.677
11981SOL     OW47570   0.979   1.585  19.559
11981SOL    HW147571   0.931   1.618  19.483
11981SOL    HW247572   0.958   1.646  19.630
11982SOL     OW47573   2.880   1.450   3.972
11982SOL    HW147574   2.872   1.467   4.066
11982SOL    HW247575   2.829   1.520   3.931
11983SOL     OW47576   4.720   0.046   1.031
11983SOL    HW147577   4.674   0.076   1.109
11983SOL    HW247578   0.023   0.093   1.032
11984SOL     OW47579   1.494   3.236  19.873
11984SOL    HW147580   1.534   3.309  19.826
11984SOL    HW247581   1.529   3.243  19.962
11985SOL     OW47582   3.527   3.160   5.410
11985SOL    HW147583   3.615   3.184   5.438
11985SOL    HW247584   3.496   3.099   5.477
11986SOL     OW47585   2.127   0.625  13.243
11986SOL    HW147586   2.150   0.713  13.273
11986SOL    HW247587   2.048   0.602  13.293
11987SOL     OW47588   2.388   1.296   8.530
11987SOL    HW147589   2.402   1.366   8.594
11987SOL    HW247590   2.423   1.218   8.572
11988SOL     OW47591   1.661   3.043   4.353
11988SOL    HW147592   1.701   3.124   4.323
11988SOL    HW247593   1.716   3.015   4.426
11989SOL     OW47594   0.051   1.003  23.716
11989SOL    HW147595   0.121   1.040  23.662
11989SOL    HW247596   0.091   0.990  23.802
11990SOL     OW47597   2.720   3.622  23.794
11990SOL    HW147598   2.734   3.542  23.844
11990SOL    HW247599   2.720   3.593  23.703
11991SOL     OW47600   3.295   2.831  23.287
11991SOL    HW147601   3.209   2.836  23.245
11991SOL    HW247602   3.277   2.849  23.379
11992SOL     OW47603   0.352   4.061  18.819
11992SOL    HW147604   0.388   3.988  18.869
11992SOL    HW247605   0.349   4.134  18.881
11993SOL     OW47606   1.394   4.444   5.771
11993SOL    HW147607   1.453   4.519   5.758
11993SOL    HW247608   1.347   4.436   5.688
11994SOL     OW47609   4.151   0.982   5.430
11994SOL    HW147610   4.169   1.069   5.395
11994SOL    HW247611   4.206   0.976   5.508
11995SOL     OW47612   1.546   0.373  27.157
11995SOL    HW147613   1.513   0.413  27.238
11995SOL    HW247614   1.570   0.284  27.182
11996SOL     OW47615   3.392   2.653   0.672
11996SOL    HW147616   3.487   2.645   0.678
11996SOL    HW247617   3.362   2.564   0.654
11997SOL     OW47618   0.594   1.903  24.878
11997SOL    HW147619   0.566   1.856  24.957
11997SOL    HW247620   0.549   1.987  24.883
11998SOL     OW47621   2.654   3.176  22.600
11998SOL    HW147622   2.716   3.248  22.607
11998SOL    HW247623   2.568   3.219  22.595
11999SOL     OW47624   3.287   3.963  21.446
11999SOL    HW147625   3.304   3.892  21.384
11999SOL    HW247626   3.209   3.935  21.494
12000SOL     OW47627   4.148   2.906   1.163
12000SOL    HW147628   4.067   2.942   1.198
12000SOL    HW247629   4.210   2.979   1.166
12001SOL     OW47630   3.082   2.673   1.513
12001SOL    HW147631   3.051   2.732   1.444
12001SOL    HW247632   3.162   2.635   1.478
12002SOL     OW47633   0.259   3.342   1.055
12002SOL    HW147634   0.293   3.258   1.087
12002SOL    HW247635   0.313   3.408   1.099
12003SOL     OW47636   3.941   0.302  17.919
12003SOL    HW147637   4.023   0.309  17.870
12003SOL    HW247638   3.915   0.393  17.935
12004SOL     OW47639   3.549   1.061  18.672
12004SOL    HW147640   3.526   0.993  18.735
12004SOL    HW247641   3.624   1.025  18.624
12005SOL     OW47642   2.016   0.191  24.850
12005SOL    HW147643   2.099   0.226  24.882
12005SOL    HW247644   1.950   0.233  24.905
12006SOL     OW47645   0.687   4.420  27.105
12006SOL    HW147646   0.692   4.428  27.010
12006SOL    HW247647   0.736   4.340  27.125
12007SOL     OW47648   1.627   4.164   7.527
12007SOL    HW147649   1.691   4.229   7.554
12007SOL    HW247650   1.632   4.096   7.595
12008SOL     OW47651   1.060   1.854  24.081
12008SOL    HW147652   0.994   1.802  24.036
12008SOL    HW247653   1.141   1.804  24.072
12009SOL     OW47654   3.782   1.635   4.236
12009SOL    HW147655   3.809   1.599   4.321
12009SOL    HW247656   3.833   1.716   4.227
12010SOL     OW47657   3.727   2.359  25.082
12010SOL    HW147658   3.710   2.265  25.079
12010SOL    HW247659   3.651   2.396  25.127
12011SOL     OW47660   2.153   3.645   9.707
12011SOL    HW147661   2.065   3.653   9.671
12011SOL    HW247662   2.172   3.731   9.745
12012SOL     OW47663   2.463   1.195  18.078
12012SOL    HW147664   2.401   1.123  18.067
12012SOL    HW247665   2.420   1.254  18.141
12013SOL     OW47666   3.144   3.390  23.327
12013SOL    HW147667   3.217   3.336  23.357
12013SOL    HW247668   3.172   3.480  23.343
12014SOL     OW47669   4.567   0.228  28.183
12014SOL    HW147670   4.473   0.229  28.166
12014SOL    HW247671   4.590   0.135  28.180
12015SOL     OW47672   3.941   3.183  18.648
12015SOL    HW147673   3.895   3.159  18.729
12015SOL    HW247674   3.905   3.123  18.582
12016SOL     OW47675   3.286   1.954  21.137
12016SOL    HW147676   3.373   1.992  21.124
12016SOL    HW247677   3.230   2.028  21.161
12017SOL     OW47678   1.270   3.984  23.237
12017SOL    HW147679   1.355   3.942  23.226
12017SOL    HW247680   1.254   3.982  23.331
12018SOL     OW47681   3.103   3.173  22.175
12018SOL    HW147682   3.129   3.247  22.120
12018SOL    HW247683   3.170   3.168  22.243
12019SOL     OW47684   4.271   3.635  25.483
12019SOL    HW147685   4.212   3.694  25.530
12019SOL    HW247686   4.227   3.550  25.486
12020SOL     OW47687   0.535   0.941   5.169
12020SOL    HW147688   0.462   0.960   5.228
12020SOL    HW247689   0.609   0.925   5.227
12021SOL     OW47690   1.174   3.154   7.095
12021SOL    HW147691   1.151   3.243   7.068
12021SOL    HW247692   1.110   3.132   7.162
12022SOL     OW47693   3.752   2.424   3.852
12022SOL    HW147694   3.765   2.458   3.940
12022SOL    HW247695   3.840   2.422   3.814
12023SOL     OW47696   0.719   2.567   9.429
12023SOL    HW147697   0.688   2.649   9.468
12023SOL    HW247698   0.683   2.499   9.486
12024SOL     OW47699   4.222   1.826   5.347
12024SOL    HW147700   4.176   1.808   5.265
12024SOL    HW247701   4.311   1.796   5.332
12025SOL     OW47702   3.664   3.360  20.128
12025SOL    HW147703   3.671   3.362  20.033
12025SOL    HW247704   3.574   3.387  20.146
12026SOL     OW47705   1.885   1.127  24.958
12026SOL    HW147706   1.949   1.089  25.018
12026SOL    HW247707   1.871   1.060  24.891
12027SOL     OW47708   1.748   2.004   9.197
12027SOL    HW147709   1.699   1.932   9.236
12027SOL    HW247710   1.742   2.075   9.261
12028SOL     OW47711   2.286   3.062   2.706
12028SOL    HW147712   2.276   2.991   2.769
12028SOL    HW247713   2.338   3.128   2.752
12029SOL     OW47714   0.405   0.672   0.402
12029SOL    HW147715   0.381   0.761   0.377
12029SOL    HW247716   0.462   0.683   0.478
12030SOL     OW47717   0.603   3.863  25.355
12030SOL    HW147718   0.568   3.811  25.427
12030SOL    HW247719   0.666   3.805  25.312
12031SOL     OW47720   1.497   4.738   9.824
12031SOL    HW147721   1.482   0.026   9.889
12031SOL    HW247722   1.542   0.002   9.752
12032SOL     OW47723   2.337   3.580   3.695
12032SOL    HW147724   2.326   3.675   3.695
12032SOL    HW247725   2.303   3.552   3.780
12033SOL     OW47726   4.288   1.751  20.865
12033SOL    HW147727   4.382   1.737  20.855
12033SOL    HW247728   4.255   1.668  20.900
12034SOL     OW47729   2.830   3.839  19.764
12034SOL    HW147730   2.862   3.846  19.674
12034SOL    HW247731   2.735   3.850  19.756
12035SOL     OW47732   3.246   4.248  25.566
12035SOL    HW147733   3.163   4.266  25.610
12035SOL    HW247734   3.242   4.155  25.543
12036SOL     OW47735   2.878   1.896  17.879
12036SOL    HW147736   2.918   1.982  17.866
12036SOL    HW247737   2.807   1.892  17.814
12037SOL     OW47738   4.594   4.119  24.763
12037SOL    HW147739   4.661   4.182  24.736
12037SOL    HW247740   4.519   4.139  24.707
12038SOL     OW47741   4.388   0.061  25.700
12038SOL    HW147742   4.436   0.069  25.618
12038SOL    HW247743   4.438   4.778  25.751
12039SOL     OW47744   4.752   1.939  17.761
12039SOL    HW147745   0.019   1.995  17.700
12039SOL    HW247746   4.668   1.921  17.718
12040SOL     OW47747   0.199   4.678   9.267
12040SOL    HW147748   0.151   4.645   9.343
12040SOL    HW247749   0.244   4.757   9.298
12041SOL     OW47750   2.928   0.002   9.063
12041SOL    HW147751   2.856   4.725   9.089
12041SOL    HW247752   2.990   4.778   9.136
12042SOL     OW47753   2.633   0.891  27.819
12042SOL    HW147754   2.657   0.918  27.908
12042SOL    HW247755   2.548   0.931  27.804
12043SOL     OW47756   2.660   3.617   8.548
12043SOL    HW147757   2.697   3.530   8.564
12043SOL    HW247758   2.724   3.678   8.585
12044SOL     OW47759   1.003   0.361   8.576
12044SOL    HW147760   1.050   0.422   8.633
12044SOL    HW247761   1.064   0.288   8.563
12045SOL     OW47762   2.851   2.186  21.815
12045SOL    HW147763   2.856   2.130  21.738
12045SOL    HW247764   2.767   2.163  21.856
12046SOL     OW47765   1.233   0.068  19.907
12046SOL    HW147766   1.186   0.028  19.834
12046SOL    HW247767   1.273   4.775  19.954
12047SOL     OW47768   2.450   0.137  23.012
12047SOL    HW147769   2.371   0.123  23.065
12047SOL    HW247770   2.491   0.051  23.006
12048SOL     OW47771   0.437   1.570   6.242
12048SOL    HW147772   0.393   1.493   6.279
12048SOL    HW247773   0.426   1.638   6.308
12049SOL     OW47774   0.043   3.742   7.786
12049SOL    HW147775   4.732   3.750   7.758
12049SOL    HW247776   0.090   3.712   7.708
12050SOL     OW47777   4.575   1.670   7.771
12050SOL    HW147778   4.488   1.658   7.809
12050SOL    HW247779   4.633   1.681   7.847
12051SOL     OW47780   4.169   3.991   6.813
12051SOL    HW147781   4.101   4.058   6.809
12051SOL    HW247782   4.121   3.908   6.816
12052SOL     OW47783   3.428   2.607   2.474
12052SOL    HW147784   3.480   2.551   2.531
12052SOL    HW247785   3.338   2.578   2.487
12053SOL     OW47786   3.264   0.768  19.537
12053SOL    HW147787   3.333   0.834  19.544
12053SOL    HW247788   3.280   0.726  19.452
12054SOL     OW47789   0.978   1.379   3.812
12054SOL    HW147790   1.052   1.372   3.872
12054SOL    HW247791   1.018   1.384   3.725
12055SOL     OW47792   3.867   2.131  28.375
12055SOL    HW147793   3.811   2.199  28.338
12055SOL    HW247794   3.889   2.074  28.301
12056SOL     OW47795   3.673   4.276  20.077
12056SOL    HW147796   3.715   4.272  20.163
12056SOL    HW247797   3.663   4.370  20.060
12057SOL     OW47798   3.455   2.549  25.302
12057SOL    HW147799   3.428   2.540  25.393
12057SOL    HW247800   3.510   2.627  25.301
12058SOL     OW47801   1.167   2.689   3.570
12058SOL    HW147802   1.122   2.646   3.643
12058SOL    HW247803   1.129   2.777   3.567
12059SOL     OW47804   0.356   1.183   6.008
12059SOL    HW147805   0.322   1.105   5.965
12059SOL    HW247806   0.280   1.222   6.051
12060SOL     OW47807   2.238   2.811  21.666
12060SOL    HW147808   2.252   2.832  21.574
12060SOL    HW247809   2.307   2.858  21.712
12061SOL     OW47810   4.569   4.137  19.495
12061SOL    HW147811   4.613   4.074  19.438
12061SOL    HW247812   4.595   4.223  19.461
12062SOL     OW47813   2.192   4.261   7.386
12062SOL    HW147814   2.127   4.307   7.440
12062SOL    HW247815   2.157   4.267   7.297
12063SOL     OW47816   2.376   0.779  27.318
12063SOL    HW147817   2.447   0.803  27.258
12063SOL    HW247818   2.390   0.834  27.395
12064SOL     OW47819   2.012   2.933  10.247
12064SOL    HW147820   2.021   2.910  10.155
12064SOL    HW247821   2.020   2.850  10.294
12065SOL     OW47822   0.939   3.142  22.376
12065SOL    HW147823   0.889   3.137  22.295
12065SOL    HW247824   1.022   3.182  22.351
12066SOL     OW47825   3.338   3.099  25.832
12066SOL    HW147826   3.375   3.187  25.825
12066SOL    HW247827   3.390   3.046  25.771
12067SOL     OW47828   3.467   2.023  19.986
12067SOL    HW147829   3.386   1.976  19.966
12067SOL    HW247830   3.441   2.092  20.046
12068SOL     OW47831   1.430   0.140   8.028
12068SOL    HW147832   1.512   0.174   8.064
12068SOL    HW247833   1.396   0.211   7.973
12069SOL     OW47834   0.535   1.552   4.688
12069SOL    HW147835   0.543   1.542   4.783
12069SOL    HW247836   0.590   1.627   4.667
12070SOL     OW47837   0.531   4.628   7.824
12070SOL    HW147838   0.526   4.724   7.820
12070SOL    HW247839   0.618   4.610   7.859
12071SOL     OW47840   1.331   4.579  12.781
12071SOL    HW147841   1.374   4.573  12.866
12071SOL    HW247842   1.239   4.594  12.801
12072SOL     OW47843   1.532   1.590  22.865
12072SOL    HW147844   1.479   1.595  22.785
12072SOL    HW247845   1.619   1.565  22.834
12073SOL     OW47846   3.780   4.083   6.297
12073SOL    HW147847   3.819   4.064   6.383
12073SOL    HW247848   3.827   4.160   6.266
12074SOL     OW47849   4.394   1.220   2.438
12074SOL    HW147850   4.307   1.207   2.477
12074SOL    HW247851   4.447   1.255   2.510
12075SOL     OW47852   3.490   1.777   0.174
12075SOL    HW147853   3.525   1.846   0.117
12075SOL    HW247854   3.543   1.700   0.153
12076SOL     OW47855   4.723   1.415   5.827
12076SOL    HW147856   4.726   1.475   5.902
12076SOL    HW247857   0.033   1.386   5.816
12077SOL     OW47858   0.681   2.078  21.579
12077SOL    HW147859   0.604   2.079  21.636
12077SOL    HW247860   0.684   2.165  21.540
12078SOL     OW47861   0.754   1.351   6.533
12078SOL    HW147862   0.659   1.361   6.529
12078SOL    HW247863   0.788   1.422   6.479
12079SOL     OW47864   3.890   1.734  12.043
12079SOL    HW147865   3.885   1.679  12.121
12079SOL    HW247866   3.970   1.786  12.055
12080SOL     OW47867   0.824   0.520  10.166
12080SOL    HW147868   0.855   0.480  10.247
12080SOL    HW247869   0.731   0.499  10.162
12081SOL     OW47870   2.826   2.875   5.794
12081SOL    HW147871   2.768   2.944   5.826
12081SOL    HW247872   2.898   2.922   5.752
12082SOL     OW47873   2.219   0.395  15.558
12082SOL    HW147874   2.252   0.479  15.590
12082SOL    HW247875   2.217   0.405  15.463
12083SOL     OW47876   2.437   3.555   8.246
12083SOL    HW147877   2.447   3.579   8.154
12083SOL    HW247878   2.515   3.590   8.289
12084SOL     OW47879   3.463   0.503  25.689
12084SOL    HW147880   3.501   0.551  25.615
12084SOL    HW247881   3.416   0.570  25.740
12085SOL     OW47882   1.549   0.790  25.244
12085SOL    HW147883   1.508   0.868  25.206
12085SOL    HW247884   1.632   0.782  25.197
12086SOL     OW47885   3.388   4.032   7.032
12086SOL    HW147886   3.345   4.036   7.117
12086SOL    HW247887   3.478   4.060   7.049
12087SOL     OW47888   1.012   0.591   9.969
12087SOL    HW147889   1.078   0.527   9.997
12087SOL    HW247890   0.943   0.584  10.035
12088SOL     OW47891   2.698   1.496   3.243
12088SOL    HW147892   2.716   1.417   3.294
12088SOL    HW247893   2.675   1.464   3.156
12089SOL     OW47894   0.878   3.982  19.289
12089SOL    HW147895   0.921   3.982  19.374
12089SOL    HW247896   0.785   3.968  19.309
12090SOL     OW47897   0.221   3.729   1.149
12090SOL    HW147898   0.127   3.715   1.136
12090SOL    HW247899   0.236   3.820   1.124
12091SOL     OW47900   4.305   1.391  25.119
12091SOL    HW147901   4.341   1.382  25.207
12091SOL    HW247902   4.381   1.382  25.061
12092SOL     OW47903   3.643   0.672   5.820
12092SOL    HW147904   3.697   0.727   5.763
12092SOL    HW247905   3.630   0.725   5.899
12093SOL     OW47906   3.484   3.551  19.825
12093SOL    HW147907   3.420   3.604  19.873
12093SOL    HW247908   3.502   3.602  19.746
12094SOL     OW47909   2.671   0.638  20.081
12094SOL    HW147910   2.749   0.639  20.136
12094SOL    HW247911   2.705   0.633  19.992
12095SOL     OW47912   2.374   4.622  27.280
12095SOL    HW147913   2.400   4.672  27.358
12095SOL    HW247914   2.450   4.567  27.260
12096SOL     OW47915   4.567   3.683   1.668
12096SOL    HW147916   4.533   3.767   1.638
12096SOL    HW247917   4.584   3.633   1.588
12097SOL     OW47918   0.106   3.949   7.137
12097SOL    HW147919   0.163   3.988   7.203
12097SOL    HW247920   0.119   3.855   7.147
12098SOL     OW47921   1.849   4.267   0.019
12098SOL    HW147922   1.874   4.232  28.453
12098SOL    HW247923   1.872   4.360   0.014
12099SOL     OW47924   0.968   3.058  22.896
12099SOL    HW147925   0.895   3.117  22.917
12099SOL    HW247926   0.968   3.053  22.800
12100SOL     OW47927   0.926   1.147  18.879
12100SOL    HW147928   0.891   1.065  18.844
12100SOL    HW247929   0.947   1.199  18.801
12101SOL     OW47930   1.269   0.753  24.350
12101SOL    HW147931   1.264   0.668  24.393
12101SOL    HW247932   1.284   0.815  24.421
12102SOL     OW47933   4.638   0.356  24.628
12102SOL    HW147934   4.549   0.322  24.636
12102SOL    HW247935   4.667   0.329  24.541
12103SOL     OW47936   3.115   4.407   0.966
12103SOL    HW147937   3.168   4.332   0.994
12103SOL    HW247938   3.031   4.368   0.941
12104SOL     OW47939   0.140   1.867  24.081
12104SOL    HW147940   0.199   1.921  24.134
12104SOL    HW247941   0.060   1.919  24.075
12105SOL     OW47942   3.170   0.413   3.640
12105SOL    HW147943   3.158   0.504   3.668
12105SOL    HW247944   3.264   0.404   3.628
12106SOL     OW47945   2.490   2.213  19.902
12106SOL    HW147946   2.439   2.135  19.924
12106SOL    HW247947   2.445   2.285  19.947
12107SOL     OW47948   2.929   3.653  19.908
12107SOL    HW147949   2.873   3.708  19.854
12107SOL    HW247950   2.871   3.622  19.978
12108SOL     OW47951   2.087   2.997  24.731
12108SOL    HW147952   2.051   2.914  24.700
12108SOL    HW247953   2.115   2.979  24.821
12109SOL     OW47954   0.987   4.021   8.544
12109SOL    HW147955   0.918   4.085   8.564
12109SOL    HW247956   0.947   3.936   8.563
12110SOL     OW47957   2.639   0.005   1.817
12110SOL    HW147958   2.705   0.015   1.886
12110SOL    HW247959   2.575   0.074   1.835
12111SOL     OW47960   1.204   4.694  23.402
12111SOL    HW147961   1.280   4.644  23.432
12111SOL    HW247962   1.237   0.002  23.389
12112SOL     OW47963   4.125   0.870  23.028
12112SOL    HW147964   4.159   0.827  22.949
12112SOL    HW247965   4.145   0.809  23.099
12113SOL     OW47966   2.700   2.409   8.327
12113SOL    HW147967   2.747   2.393   8.409
12113SOL    HW247968   2.666   2.323   8.301
12114SOL     OW47969   3.239   1.986  26.113
12114SOL    HW147970   3.290   2.022  26.040
12114SOL    HW247971   3.155   1.962  26.074
12115SOL     OW47972   0.117   4.209  20.439
12115SOL    HW147973   0.213   4.209  20.443
12115SOL    HW247974   0.091   4.281  20.497
12116SOL     OW47975   4.238   0.517   9.071
12116SOL    HW147976   4.331   0.505   9.089
12116SOL    HW247977   4.194   0.478   9.147
12117SOL     OW47978   2.207   3.815  11.179
12117SOL    HW147979   2.254   3.898  11.179
12117SOL    HW247980   2.275   3.748  11.180
12118SOL     OW47981   0.008   3.550   3.494
12118SOL    HW147982   0.014   3.601   3.575
12118SOL    HW247983   4.696   3.527   3.486
12119SOL     OW47984   1.708   1.424  20.191
12119SOL    HW147985   1.613   1.417  20.187
12119SOL    HW247986   1.734   1.452  20.103
12120SOL     OW47987   4.314   3.643   3.676
12120SOL    HW147988   4.333   3.574   3.740
12120SOL    HW247989   4.360   3.720   3.709
12121SOL     OW47990   3.869   3.778  23.137
12121SOL    HW147991   3.890   3.743  23.223
12121SOL    HW247992   3.825   3.861  23.155
12122SOL     OW47993   0.783   1.277  26.940
12122SOL    HW147994   0.741   1.359  26.915
12122SOL    HW247995   0.871   1.282  26.903
12123SOL     OW47996   3.876   4.446  28.008
12123SOL    HW147997   3.962   4.450  27.967
12123SOL    HW247998   3.892   4.412  28.096
12124SOL     OW47999   3.555   2.699   9.525
12124SOL    HW148000   3.460   2.697   9.534
12124SOL    HW248001   3.579   2.789   9.547
12125SOL     OW48002   4.035   3.740  20.276
12125SOL    HW148003   3.980   3.744  20.198
12125SOL    HW248004   4.118   3.778  20.248
12126SOL     OW48005   4.251   1.390  18.611
12126SOL    HW148006   4.171   1.339  18.597
12126SOL    HW248007   4.237   1.471  18.562
12127SOL     OW48008   2.355   0.410  27.071
12127SOL    HW148009   2.356   0.474  26.999
12127SOL    HW248010   2.288   0.443  27.131
12128SOL     OW48011   1.240   4.539  20.333
12128SOL    HW148012   1.232   4.464  20.274
12128SOL    HW248013   1.334   4.559  20.334
12129SOL     OW48014   2.680   4.703  25.151
12129SOL    HW148015   2.654   0.005  25.109
12129SOL    HW248016   2.772   4.691  25.126
12130SOL     OW48017   1.685   2.595  10.393
12130SOL    HW148018   1.772   2.581  10.356
12130SOL    HW248019   1.656   2.679  10.356
12131SOL     OW48020   0.740   0.997   6.510
12131SOL    HW148021   0.744   1.093   6.510
12131SOL    HW248022   0.652   0.977   6.478
12132SOL     OW48023   3.573   3.082   1.744
12132SOL    HW148024   3.614   2.996   1.748
12132SOL    HW248025   3.572   3.113   1.835
12133SOL     OW48026   2.887   0.316   4.674
12133SOL    HW148027   2.934   0.274   4.602
12133SOL    HW248028   2.822   0.251   4.701
12134SOL     OW48029   3.508   3.236  20.762
12134SOL    HW148030   3.544   3.206  20.679
12134SOL    HW248031   3.483   3.327  20.746
12135SOL     OW48032   0.499   0.633   0.811
12135SOL    HW148033   0.478   0.710   0.759
12135SOL    HW248034   0.586   0.651   0.847
12136SOL     OW48035   1.551   3.359   2.341
12136SOL    HW148036   1.581   3.446   2.314
12136SOL    HW248037   1.618   3.299   2.308
12137SOL     OW48038   4.073   0.335  10.360
12137SOL    HW148039   4.013   0.309  10.291
12137SOL    HW248040   4.099   0.424  10.337
12138SOL     OW48041   4.390   2.394  27.623
12138SOL    HW148042   4.472   2.443  27.630
12138SOL    HW248043   4.389   2.361  27.533
12139SOL     OW48044   2.639   4.495  23.940
12139SOL    HW148045   2.676   4.474  24.026
12139SOL    HW248046   2.686   4.573  23.911
12140SOL     OW48047   1.217   2.689  22.071
12140SOL    HW148048   1.287   2.653  22.126
12140SOL    HW248049   1.236   2.656  21.983
12141SOL     OW48050   0.924   2.555  21.558
12141SOL    HW148051   1.011   2.562  21.518
12141SOL    HW248052   0.937   2.581  21.649
12142SOL     OW48053   0.119   3.102   2.738
12142SOL    HW148054   0.196   3.046   2.746
12142SOL    HW248055   0.076   3.097   2.823
12143SOL     OW48056   1.753   2.590   4.162
12143SOL    HW148057   1.757   2.507   4.209
12143SOL    HW248058   1.793   2.653   4.222
12144SOL     OW48059   2.123   0.644   1.588
12144SOL    HW148060   2.029   0.638   1.605
12144SOL    HW248061   2.133   0.607   1.500
12145SOL     OW48062   4.448   0.913   5.508
12145SOL    HW148063   4.521   0.956   5.463
12145SOL    HW248064   4.489   0.863   5.578
12146SOL     OW48065   0.700   0.309  23.304
12146SOL    HW148066   0.627   0.348  23.256
12146SOL    HW248067   0.659   0.250  23.367
12147SOL     OW48068   2.076   1.273  19.412
12147SOL    HW148069   2.130   1.322  19.349
12147SOL    HW248070   2.055   1.337  19.480
12148SOL     OW48071   0.891   0.086  24.136
12148SOL    HW148072   0.928   0.044  24.214
12148SOL    HW248073   0.940   0.048  24.063
12149SOL     OW48074   4.686   3.775  20.279
12149SOL    HW148075   4.622   3.777  20.208
12149SOL    HW248076   4.651   3.836  20.344
12150SOL     OW48077   1.192   2.638  18.630
12150SOL    HW148078   1.274   2.589  18.630
12150SOL    HW248079   1.209   2.713  18.572
12151SOL     OW48080   1.617   2.291   0.879
12151SOL    HW148081   1.652   2.373   0.914
12151SOL    HW248082   1.522   2.301   0.887
12152SOL     OW48083   2.218   0.988   2.648
12152SOL    HW148084   2.217   1.010   2.741
12152SOL    HW248085   2.132   0.949   2.632
12153SOL     OW48086   0.271   4.204   9.097
12153SOL    HW148087   0.228   4.258   9.163
12153SOL    HW248088   0.318   4.137   9.147
12154SOL     OW48089   0.606   2.225   3.717
12154SOL    HW148090   0.585   2.291   3.651
12154SOL    HW248091   0.544   2.243   3.788
12155SOL     OW48092   2.059   4.507   1.106
12155SOL    HW148093   1.963   4.504   1.105
12155SOL    HW248094   2.081   4.550   1.189
12156SOL     OW48095   2.851   2.755  24.133
12156SOL    HW148096   2.933   2.720  24.097
12156SOL    HW248097   2.791   2.759  24.058
12157SOL     OW48098   3.684   2.854  27.496
12157SOL    HW148099   3.678   2.839  27.402
12157SOL    HW248100   3.619   2.922  27.513
12158SOL     OW48101   1.662   2.189   9.667
12158SOL    HW148102   1.662   2.285   9.663
12158SOL    HW248103   1.707   2.162   9.587
12159SOL     OW48104   4.681   2.055   5.480
12159SOL    HW148105   4.699   2.056   5.386
12159SOL    HW248106   4.592   2.020   5.487
12160SOL     OW48107   4.368   4.581  23.655
12160SOL    HW148108   4.288   4.579  23.603
12160SOL    HW248109   4.410   4.497  23.639
12161SOL     OW48110   4.386   1.462   0.819
12161SOL    HW148111   4.300   1.420   0.826
12161SOL    HW248112   4.419   1.465   0.909
12162SOL     OW48113   0.366   2.671   6.860
12162SOL    HW148114   0.288   2.688   6.807
12162SOL    HW248115   0.403   2.758   6.876
12163SOL     OW48116   1.856   4.564  17.233
12163SOL    HW148117   1.930   4.616  17.265
12163SOL    HW248118   1.786   4.580  17.296
12164SOL     OW48119   1.239   0.821  23.342
12164SOL    HW148120   1.296   0.803  23.267
12164SOL    HW248121   1.151   0.822  23.306
12165SOL     OW48122   3.966   2.515  21.357
12165SOL    HW148123   3.887   2.510  21.303
12165SOL    HW248124   3.942   2.573  21.430
12166SOL     OW48125   0.203   0.256  26.785
12166SOL    HW148126   0.118   0.257  26.741
12166SOL    HW248127   0.186   0.293  26.871
12167SOL     OW48128   2.113   0.778  20.623
12167SOL    HW148129   2.193   0.751  20.579
12167SOL    HW248130   2.044   0.767  20.557
12168SOL     OW48131   4.465   3.717   5.701
12168SOL    HW148132   4.522   3.655   5.747
12168SOL    HW248133   4.427   3.770   5.770
12169SOL     OW48134   1.766   2.000   4.945
12169SOL    HW148135   1.735   1.925   4.996
12169SOL    HW248136   1.707   2.072   4.970
12170SOL     OW48137   1.302   0.910  24.684
12170SOL    HW148138   1.291   0.820  24.654
12170SOL    HW248139   1.221   0.930  24.731
12171SOL     OW48140   4.703   0.150   4.060
12171SOL    HW148141   4.772   0.212   4.081
12171SOL    HW248142   4.703   0.088   4.133
12172SOL     OW48143   2.841   3.357  22.942
12172SOL    HW148144   2.891   3.324  23.017
12172SOL    HW248145   2.775   3.289  22.926
12173SOL     OW48146   0.937   3.884  11.116
12173SOL    HW148147   0.841   3.887  11.120
12173SOL    HW248148   0.958   3.791  11.106
12174SOL     OW48149   2.458   3.611   5.468
12174SOL    HW148150   2.367   3.640   5.458
12174SOL    HW248151   2.502   3.685   5.509
12175SOL     OW48152   1.340   2.273  24.973
12175SOL    HW148153   1.296   2.348  25.013
12175SOL    HW248154   1.292   2.197  25.004
12176SOL     OW48155   1.816   4.294  23.724
12176SOL    HW148156   1.828   4.362  23.658
12176SOL    HW248157   1.756   4.332  23.788
12177SOL     OW48158   3.383   4.638   6.645
12177SOL    HW148159   3.318   4.570   6.663
12177SOL    HW248160   3.353   4.680   6.564
12178SOL     OW48161   1.442   3.588  28.380
12178SOL    HW148162   1.439   3.539  28.298
12178SOL    HW248163   1.350   3.604  28.401
12179SOL     OW48164   2.697   2.072   9.887
12179SOL    HW148165   2.643   2.039   9.959
12179SOL    HW248166   2.635   2.118   9.830
12180SOL     OW48167   1.063   4.391  21.761
12180SOL    HW148168   1.128   4.365  21.695
12180SOL    HW248169   0.981   4.400  21.712
12181SOL     OW48170   3.067   3.414  24.328
12181SOL    HW148171   3.057   3.439  24.420
12181SOL    HW248172   2.985   3.371  24.306
12182SOL     OW48173   0.329   1.506   7.165
12182SOL    HW148174   0.354   1.427   7.213
12182SOL    HW248175   0.411   1.538   7.127
12183SOL     OW48176   0.954   4.291   1.418
12183SOL    HW148177   0.899   4.217   1.443
12183SOL    HW248178   0.989   4.324   1.501
12184SOL     OW48179   1.426   4.755   6.772
12184SOL    HW148180   1.463   0.024   6.845
12184SOL    HW248181   1.422   4.665   6.804
12185SOL     OW48182   0.736   1.642   8.088
12185SOL    HW148183   0.750   1.625   8.181
12185SOL    HW248184   0.714   1.557   8.051
12186SOL     OW48185   0.737   2.337  24.861
12186SOL    HW148186   0.746   2.278  24.936
12186SOL    HW248187   0.654   2.382  24.876
12187SOL     OW48188   2.437   3.271   9.653
12187SOL    HW148189   2.388   3.340   9.608
12187SOL    HW248190   2.510   3.252   9.595
12188SOL     OW48191   2.271   3.810  10.798
12188SOL    HW148192   2.340   3.776  10.855
12188SOL    HW248193   2.212   3.858  10.856
12189SOL     OW48194   1.853   2.264  23.793
12189SOL    HW148195   1.803   2.260  23.874
12189SOL    HW248196   1.814   2.336  23.744
12190SOL     OW48197   0.286   4.548   6.593
12190SOL    HW148198   0.224   4.491   6.548
12190SOL    HW248199   0.321   4.605   6.524
12191SOL     OW48200   3.257   2.275   6.641
12191SOL    HW148201   3.183   2.284   6.701
12191SOL    HW248202   3.334   2.270   6.698
12192SOL     OW48203   0.235   4.423   0.546
12192SOL    HW148204   0.205   4.422   0.637
12192SOL    HW248205   0.157   4.402   0.495
12193SOL     OW48206   3.926   4.114  23.026
12193SOL    HW148207   3.894   4.184  22.969
12193SOL    HW248208   3.988   4.065  22.972
12194SOL     OW48209   0.948   3.885  22.890
12194SOL    HW148210   1.002   3.916  22.963
12194SOL    HW248211   0.895   3.961  22.866
12195SOL     OW48212   1.583   2.728  20.669
12195SOL    HW148213   1.556   2.820  20.665
12195SOL    HW248214   1.521   2.683  20.612
12196SOL     OW48215   3.437   2.791  19.741
12196SOL    HW148216   3.451   2.825  19.653
12196SOL    HW248217   3.525   2.772  19.774
12197SOL     OW48218   4.412   0.917   8.980
12197SOL    HW148219   4.507   0.919   8.988
12197SOL    HW248220   4.391   0.999   8.935
12198SOL     OW48221   2.841   1.672   3.029
12198SOL    HW148222   2.801   1.759   3.036
12198SOL    HW248223   2.839   1.638   3.118
12199SOL     OW48224   3.629   3.984  23.627
12199SOL    HW148225   3.635   3.996  23.532
12199SOL    HW248226   3.679   4.057  23.663
12200SOL     OW48227   1.035   0.857   4.141
12200SOL    HW148228   0.999   0.936   4.182
12200SOL    HW248229   0.960   0.816   4.098
12201SOL     OW48230   2.035   1.321   7.342
12201SOL    HW148231   1.954   1.349   7.386
12201SOL    HW248232   2.078   1.264   7.405
12202SOL     OW48233   3.056   2.412   9.993
12202SOL    HW148234   2.962   2.410   9.973
12202SOL    HW248235   3.082   2.320   9.995
12203SOL     OW48236   2.292   1.151  21.056
12203SOL    HW148237   2.346   1.220  21.017
12203SOL    HW248238   2.246   1.112  20.982
12204SOL     OW48239   0.305   2.833  21.924
12204SOL    HW148240   0.284   2.863  22.012
12204SOL    HW248241   0.225   2.789  21.894
12205SOL     OW48242   3.853   3.545  27.739
12205SOL    HW148243   3.764   3.513  27.754
12205SOL    HW248244   3.901   3.468  27.708
12206SOL     OW48245   2.722   2.472  20.062
12206SOL    HW148246   2.779   2.523  20.005
12206SOL    HW248247   2.764   2.386  20.067
12207SOL     OW48248   3.157   2.446   8.964
12207SOL    HW148249   3.131   2.453   8.872
12207SOL    HW248250   3.223   2.377   8.965
12208SOL     OW48251   0.261   4.678  27.040
12208SOL    HW148252   0.327   4.627  27.086
12208SOL    HW248253   0.311   4.740  26.987
12209SOL     OW48254   3.900   1.640   7.890
12209SOL    HW148255   3.967   1.676   7.948
12209SOL    HW248256   3.930   1.662   7.802
12210SOL     OW48257   2.988   4.105   7.777
12210SOL    HW148258   2.980   4.165   7.851
12210SOL    HW248259   2.899   4.099   7.742
12211SOL     OW48260   4.668   4.607   5.642
12211SOL    HW148261   4.633   4.691   5.612
12211SOL    HW248262   4.648   4.546   5.571
12212SOL     OW48263   2.711   3.823  11.065
12212SOL    HW148264   2.736   3.911  11.038
12212SOL    HW248265   2.667   3.835  11.149
12213SOL     OW48266   2.288   3.518   0.960
12213SOL    HW148267   2.279   3.428   0.929
12213SOL    HW248268   2.204   3.538   1.001
12214SOL     OW48269   2.162   2.897   4.444
12214SOL    HW148270   2.246   2.870   4.407
12214SOL    HW248271   2.168   2.992   4.449
12215SOL     OW48272   1.337   0.711  27.746
12215SOL    HW148273   1.303   0.798  27.768
12215SOL    HW248274   1.376   0.721  27.659
12216SOL     OW48275   2.974   4.423  27.419
12216SOL    HW148276   2.982   4.518  27.428
12216SOL    HW248277   2.885   4.404  27.449
12217SOL     OW48278   1.999   0.298   5.265
12217SOL    HW148279   2.027   0.357   5.335
12217SOL    HW248280   1.949   0.230   5.309
12218SOL     OW48281   2.528   1.007   0.422
12218SOL    HW148282   2.445   1.054   0.428
12218SOL    HW248283   2.592   1.074   0.399
12219SOL     OW48284   1.830   1.187   0.285
12219SOL    HW148285   1.925   1.187   0.272
12219SOL    HW248286   1.814   1.259   0.346
12220SOL     OW48287   4.428   0.550  11.387
12220SOL    HW148288   4.393   0.528  11.474
12220SOL    HW248289   4.522   0.564  11.401
12221SOL     OW48290   2.909   0.789  24.015
12221SOL    HW148291   2.840   0.766  24.077
12221SOL    HW248292   2.967   0.847  24.064
12222SOL     OW48293   4.476   4.508  22.726
12222SOL    HW148294   4.411   4.557  22.676
12222SOL    HW248295   4.425   4.448  22.780
12223SOL     OW48296   0.960   3.820  19.094
12223SOL    HW148297   1.055   3.831  19.100
12223SOL    HW248298   0.925   3.887  19.152
12224SOL     OW48299   4.494   2.480  25.921
12224SOL    HW148300   4.583   2.502  25.892
12224SOL    HW248301   4.444   2.471  25.840
12225SOL     OW48302   4.019   2.145   9.250
12225SOL    HW148303   3.931   2.111   9.265
12225SOL    HW248304   4.027   2.147   9.155
12226SOL     OW48305   4.525   0.930  22.879
12226SOL    HW148306   4.549   0.922  22.787
12226SOL    HW248307   4.488   0.844  22.901
12227SOL     OW48308   0.958   0.570   0.338
12227SOL    HW148309   0.953   0.512   0.414
12227SOL    HW248310   0.870   0.567   0.299
12228SOL     OW48311   2.013   3.008  19.090
12228SOL    HW148312   1.925   2.981  19.064
12228SOL    HW248313   2.013   3.003  19.186
12229SOL     OW48314   0.031   2.765  18.203
12229SOL    HW148315   0.090   2.768  18.278
12229SOL    HW248316   4.731   2.808  18.234
12230SOL     OW48317   3.196   3.318  11.328
12230SOL    HW148318   3.202   3.262  11.405
12230SOL    HW248319   3.102   3.325  11.311
12231SOL     OW48320   3.813   4.676   5.042
12231SOL    HW148321   3.731   4.630   5.025
12231SOL    HW248322   3.826   4.668   5.136
12232SOL     OW48323   1.043   2.556   8.908
12232SOL    HW148324   1.059   2.629   8.848
12232SOL    HW248325   1.129   2.536   8.944
12233SOL     OW48326   1.361   4.637  22.833
12233SOL    HW148327   1.352   4.673  22.921
12233SOL    HW248328   1.279   4.589  22.818
12234SOL     OW48329   1.886   3.567  11.018
12234SOL    HW148330   1.972   3.575  10.976
12234SOL    HW248331   1.824   3.596  10.951
12235SOL     OW48332   3.958   3.919  21.019
12235SOL    HW148333   3.869   3.945  20.997
12235SOL    HW248334   4.010   3.999  21.010
12236SOL     OW48335   4.207   2.799  23.821
12236SOL    HW148336   4.112   2.787  23.814
12236SOL    HW248337   4.220   2.894  23.817
12237SOL     OW48338   4.609   2.702   2.544
12237SOL    HW148339   4.549   2.720   2.617
12237SOL    HW248340   4.560   2.643   2.487
12238SOL     OW48341   1.940   4.271   8.328
12238SOL    HW148342   1.925   4.190   8.378
12238SOL    HW248343   2.032   4.291   8.344
12239SOL     OW48344   1.947   3.206   1.092
12239SOL    HW148345   1.977   3.290   1.127
12239SOL    HW248346   1.896   3.229   1.015
12240SOL     OW48347   1.815   2.267   7.292
12240SOL    HW148348   1.889   2.251   7.234
12240SOL    HW248349   1.739   2.237   7.243
12241SOL     OW48350   4.485   3.786  17.526
12241SOL    HW148351   4.535   3.802  17.606
12241SOL    HW248352   4.548   3.746  17.466
12242SOL     OW48353   0.583   3.927  18.964
12242SOL    HW148354   0.673   3.957  18.948
12242SOL    HW248355   0.577   3.919  19.059
12243SOL     OW48356   1.601   1.026  16.547
12243SOL    HW148357   1.569   1.089  16.482
12243SOL    HW248358   1.522   0.992  16.589
12244SOL     OW48359   2.528   1.695   5.535
12244SOL    HW148360   2.513   1.757   5.464
12244SOL    HW248361   2.537   1.610   5.492
12245SOL     OW48362   3.773   1.405  26.404
12245SOL    HW148363   3.836   1.357  26.457
12245SOL    HW248364   3.710   1.339  26.375
12246SOL     OW48365   1.385   4.328  23.979
12246SOL    HW148366   1.465   4.278  23.963
12246SOL    HW248367   1.315   4.272  23.947
12247SOL     OW48368   0.326   0.778  21.422
12247SOL    HW148369   0.348   0.703  21.366
12247SOL    HW248370   0.292   0.844  21.362
12248SOL     OW48371   0.605   0.715  23.356
12248SOL    HW148372   0.699   0.704  23.369
12248SOL    HW248373   0.566   0.635  23.391
12249SOL     OW48374   4.393   2.569   3.224
12249SOL    HW148375   4.486   2.587   3.240
12249SOL    HW248376   4.392   2.510   3.149
12250SOL     OW48377   2.900   2.674   8.388
12250SOL    HW148378   2.897   2.668   8.293
12250SOL    HW248379   2.970   2.614   8.414
12251SOL     OW48380   4.766   1.109   9.979
12251SOL    HW148381   0.077   1.107   9.952
12251SOL    HW248382   4.763   1.174  10.049
12252SOL     OW48383   2.229   0.331   8.285
12252SOL    HW148384   2.300   0.366   8.339
12252SOL    HW248385   2.153   0.329   8.343
12253SOL     OW48386   0.424   4.598  20.637
12253SOL    HW148387   0.510   4.585  20.598
12253SOL    HW248388   0.363   4.598  20.563
12254SOL     OW48389   3.640   3.293  20.990
12254SOL    HW148390   3.613   3.289  20.898
12254SOL    HW248391   3.727   3.334  20.987
12255SOL     OW48392   3.766   2.725   1.152
12255SOL    HW148393   3.851   2.693   1.182
12255SOL    HW248394   3.731   2.654   1.098
12256SOL     OW48395   1.885   2.244  22.684
12256SOL    HW148396   1.956   2.298  22.719
12256SOL    HW248397   1.920   2.155  22.685
12257SOL     OW48398   1.364   2.900   6.582
12257SOL    HW148399   1.414   2.838   6.529
12257SOL    HW248400   1.376   2.869   6.672
12258SOL     OW48401   1.106   3.786   4.016
12258SOL    HW148402   1.068   3.699   4.029
12258SOL    HW248403   1.040   3.833   3.965
12259SOL     OW48404   2.753   1.436  25.127
12259SOL    HW148405   2.821   1.473  25.070
12259SOL    HW248406   2.676   1.428  25.070
12260SOL     OW48407   4.287   1.580   5.696
12260SOL    HW148408   4.223   1.651   5.706
12260SOL    HW248409   4.358   1.603   5.756
12261SOL     OW48410   0.819   0.743   3.042
12261SOL    HW148411   0.882   0.681   3.079
12261SOL    HW248412   0.796   0.706   2.957
12262SOL     OW48413   4.694   3.155   9.101
12262SOL    HW148414   4.660   3.076   9.144
12262SOL    HW248415   4.737   3.123   9.022
12263SOL     OW48416   4.426   2.121   9.148
12263SOL    HW148417   4.455   2.054   9.210
12263SOL    HW248418   4.364   2.174   9.197
12264SOL     OW48419   4.614   2.728   5.419
12264SOL    HW148420   4.529   2.770   5.409
12264SOL    HW248421   4.615   2.696   5.509
12265SOL     OW48422   0.554   2.804   2.398
12265SOL    HW148423   0.634   2.851   2.420
12265SOL    HW248424   0.486   2.849   2.448
12266SOL     OW48425   0.084   3.091  21.307
12266SOL    HW148426   4.775   3.079  21.338
12266SOL    HW248427   0.079   3.166  21.248
12267SOL     OW48428   0.516   4.391   9.792
12267SOL    HW148429   0.548   4.301   9.797
12267SOL    HW248430   0.485   4.410   9.881
12268SOL     OW48431   0.742   1.963   5.226
12268SOL    HW148432   0.684   1.967   5.150
12268SOL    HW248433   0.700   1.902   5.286
12269SOL     OW48434   4.412   2.621   4.428
12269SOL    HW148435   4.325   2.641   4.461
12269SOL    HW248436   4.424   2.528   4.446
12270SOL     OW48437   2.310   2.834   3.159
12270SOL    HW148438   2.263   2.872   3.233
12270SOL    HW248439   2.352   2.756   3.195
12271SOL     OW48440   3.287   3.158  21.067
12271SOL    HW148441   3.375   3.122  21.075
12271SOL    HW248442   3.269   3.196  21.153
12272SOL     OW48443   4.592   3.603   3.984
12272SOL    HW148444   4.627   3.673   4.039
12272SOL    HW248445   4.544   3.547   4.044
12273SOL     OW48446   2.066   4.195   5.553
12273SOL    HW148447   2.133   4.165   5.615
12273SOL    HW248448   2.016   4.260   5.602
12274SOL     OW48449   1.184   1.729  20.511
12274SOL    HW148450   1.183   1.653  20.570
12274SOL    HW248451   1.173   1.692  20.424
12275SOL     OW48452   2.418   2.212   0.188
12275SOL    HW148453   2.382   2.255   0.110
12275SOL    HW248454   2.377   2.258   0.262
12276SOL     OW48455   4.221   0.339  21.659
12276SOL    HW148456   4.255   0.296  21.737
12276SOL    HW248457   4.290   0.400  21.632
12277SOL     OW48458   4.186   4.578  21.495
12277SOL    HW148459   4.257   4.520  21.523
12277SOL    HW248460   4.224   4.628  21.422
12278SOL     OW48461   1.923   3.493   5.368
12278SOL    HW148462   1.870   3.538   5.302
12278SOL    HW248463   1.877   3.508   5.451
12279SOL     OW48464   1.600   4.554   1.811
12279SOL    HW148465   1.549   4.528   1.887
12279SOL    HW248466   1.606   4.475   1.757
12280SOL     OW48467   1.034   3.246  27.387
12280SOL    HW148468   1.102   3.293  27.436
12280SOL    HW248469   0.953   3.291  27.409
12281SOL     OW48470   1.507   1.895   0.659
12281SOL    HW148471   1.547   1.939   0.734
12281SOL    HW248472   1.503   1.963   0.591
12282SOL     OW48473   1.671   2.273  22.209
12282SOL    HW148474   1.764   2.293  22.202
12282SOL    HW248475   1.645   2.249  22.120
12283SOL     OW48476   1.168   1.097  23.960
12283SOL    HW148477   1.076   1.097  23.986
12283SOL    HW248478   1.213   1.053  24.032
12284SOL     OW48479   0.154   1.588   4.244
12284SOL    HW148480   0.249   1.591   4.252
12284SOL    HW248481   0.129   1.503   4.279
12285SOL     OW48482   4.696   3.372  26.720
12285SOL    HW148483   4.701   3.365  26.815
12285SOL    HW248484   4.639   3.447  26.705
12286SOL     OW48485   1.523   2.724   1.735
12286SOL    HW148486   1.544   2.681   1.818
12286SOL    HW248487   1.437   2.690   1.712
12287SOL     OW48488   0.590   0.996  22.332
12287SOL    HW148489   0.540   1.019  22.254
12287SOL    HW248490   0.671   0.958  22.299
12288SOL     OW48491   4.227   2.986  26.032
12288SOL    HW148492   4.212   3.047  26.105
12288SOL    HW248493   4.318   3.002  26.007
12289SOL     OW48494   0.706   0.301   9.473
12289SOL    HW148495   0.630   0.346   9.510
12289SOL    HW248496   0.709   0.217   9.520
12290SOL     OW48497   3.373   0.687  20.626
12290SOL    HW148498   3.434   0.702  20.554
12290SOL    HW248499   3.421   0.715  20.704
12291SOL     OW48500   0.755   3.448  27.719
12291SOL    HW148501   0.680   3.508  27.723
12291SOL    HW248502   0.741   3.399  27.638
12292SOL     OW48503   4.539   0.983  21.684
12292SOL    HW148504   4.576   0.993  21.596
12292SOL    HW248505   4.500   0.895  21.684
12293SOL     OW48506   1.861   1.505   3.339
12293SOL    HW148507   1.860   1.542   3.251
12293SOL    HW248508   1.770   1.482   3.357
12294SOL     OW48509   3.940   3.739  28.439
12294SOL    HW148510   3.932   3.733   0.015
12294SOL    HW248511   4.014   3.681  28.418
12295SOL     OW48512   0.233   2.977   9.125
12295SOL    HW148513   0.150   2.934   9.106
12295SOL    HW248514   0.299   2.909   9.111
12296SOL     OW48515   2.840   1.079   8.868
12296SOL    HW148516   2.932   1.084   8.894
12296SOL    HW248517   2.811   0.992   8.896
12297SOL     OW48518   3.976   2.890   6.632
12297SOL    HW148519   3.892   2.845   6.632
12297SOL    HW248520   4.021   2.857   6.554
12298SOL     OW48521   2.885   2.359  18.423
12298SOL    HW148522   2.853   2.449  18.425
12298SOL    HW248523   2.959   2.359  18.484
12299SOL     OW48524   0.825   2.922  28.231
12299SOL    HW148525   0.866   2.944  28.315
12299SOL    HW248526   0.881   2.964  28.165
12300SOL     OW48527   1.597   4.219  22.455
12300SOL    HW148528   1.563   4.196  22.542
12300SOL    HW248529   1.611   4.314  22.459
12301SOL     OW48530   1.940   0.336  27.479
12301SOL    HW148531   1.879   0.381  27.538
12301SOL    HW248532   2.025   0.377  27.496
12302SOL     OW48533   3.925   2.455  22.715
12302SOL    HW148534   4.010   2.415  22.734
12302SOL    HW248535   3.895   2.411  22.635
12303SOL     OW48536   0.401   4.221  22.024
12303SOL    HW148537   0.442   4.290  22.077
12303SOL    HW248538   0.432   4.139  22.063
12304SOL     OW48539   3.459   0.477   2.470
12304SOL    HW148540   3.368   0.503   2.460
12304SOL    HW248541   3.480   0.497   2.561
12305SOL     OW48542   4.350   2.421  26.795
12305SOL    HW148543   4.407   2.360  26.748
12305SOL    HW248544   4.405   2.457  26.864
12306SOL     OW48545   4.429   2.097  27.055
12306SOL    HW148546   4.357   2.140  27.101
12306SOL    HW248547   4.508   2.126  27.101
12307SOL     OW48548   0.837   4.385   6.171
12307SOL    HW148549   0.804   4.400   6.260
12307SOL    HW248550   0.897   4.311   6.180
12308SOL     OW48551   3.159   3.764   7.491
12308SOL    HW148552   3.076   3.744   7.534
12308SOL    HW248553   3.209   3.811   7.557
12309SOL     OW48554   2.465   2.823   8.917
12309SOL    HW148555   2.495   2.867   8.997
12309SOL    HW248556   2.540   2.771   8.888
12310SOL     OW48557   4.204   4.445   4.644
12310SOL    HW148558   4.257   4.524   4.637
12310SOL    HW248559   4.202   4.409   4.555
12311SOL     OW48560   3.201   4.385  28.365
12311SOL    HW148561   3.250   4.337  28.298
12311SOL    HW248562   3.113   4.394  28.329
12312SOL     OW48563   1.324   0.726  24.004
12312SOL    HW148564   1.404   0.730  23.952
12312SOL    HW248565   1.297   0.634  24.000
12313SOL     OW48566   3.783   3.874  25.619
12313SOL    HW148567   3.716   3.817  25.657
12313SOL    HW248568   3.777   3.955  25.670
12314SOL     OW48569   0.434   4.468   0.095
12314SOL    HW148570   0.385   4.389   0.119
12314SOL    HW248571   0.379   4.540   0.126
12315SOL     OW48572   0.613   3.846  22.989
12315SOL    HW148573   0.697   3.839  23.034
12315SOL    HW248574   0.618   3.781  22.919
12316SOL     OW48575   2.902   4.038   8.144
12316SOL    HW148576   2.816   4.016   8.108
12316SOL    HW248577   2.904   3.994   8.229
12317SOL     OW48578   4.147   3.055  23.239
12317SOL    HW148579   4.064   3.058  23.191
12317SOL    HW248580   4.123   3.074  23.330
12318SOL     OW48581   0.553   3.826  27.555
12318SOL    HW148582   0.624   3.835  27.492
12318SOL    HW248583   0.529   3.916  27.578
12319SOL     OW48584   1.634   3.881   9.179
12319SOL    HW148585   1.616   3.882   9.085
12319SOL    HW248586   1.726   3.905   9.186
12320SOL     OW48587   0.175   1.789   5.864
12320SOL    HW148588   0.159   1.861   5.803
12320SOL    HW248589   0.218   1.830   5.939
12321SOL     OW48590   1.483   1.861  22.980
12321SOL    HW148591   1.506   1.769  22.965
12321SOL    HW248592   1.533   1.909  22.914
12322SOL     OW48593   4.361   2.665   1.867
12322SOL    HW148594   4.450   2.678   1.899
12322SOL    HW248595   4.349   2.734   1.802
12323SOL     OW48596   2.680   0.737   6.429
12323SOL    HW148597   2.771   0.766   6.430
12323SOL    HW248598   2.685   0.642   6.441
12324SOL     OW48599   3.969   1.318  24.791
12324SOL    HW148600   3.875   1.334  24.789
12324SOL    HW248601   4.005   1.397  24.831
12325SOL     OW48602   2.065   0.943  28.042
12325SOL    HW148603   2.030   0.881  27.978
12325SOL    HW248604   2.142   0.899  28.078
12326SOL     OW48605   3.073   2.809   7.499
12326SOL    HW148606   3.077   2.736   7.561
12326SOL    HW248607   3.123   2.779   7.423
12327SOL     OW48608   0.356   0.178   0.298
12327SOL    HW148609   0.327   0.215   0.381
12327SOL    HW248610   0.428   0.235   0.270
12328SOL     OW48611   3.356   0.979  20.749
12328SOL    HW148612   3.285   0.972  20.813
12328SOL    HW248613   3.424   0.920  20.782
12329SOL     OW48614   1.264   3.400  10.312
12329SOL    HW148615   1.276   3.323  10.367
12329SOL    HW248616   1.326   3.464  10.346
12330SOL     OW48617   0.640   0.284  10.945
12330SOL    HW148618   0.681   0.270  11.030
12330SOL    HW248619   0.552   0.248  10.955
12331SOL     OW48620   4.346   4.266  25.077
12331SOL    HW148621   4.326   4.344  25.129
12331SOL    HW248622   4.393   4.208  25.137
12332SOL     OW48623   0.338   3.110   5.350
12332SOL    HW148624   0.358   3.031   5.300
12332SOL    HW248625   0.336   3.180   5.284
12333SOL     OW48626   3.575   3.481   0.524
12333SOL    HW148627   3.496   3.446   0.483
12333SOL    HW248628   3.561   3.576   0.526
12334SOL     OW48629   3.029   4.141  19.457
12334SOL    HW148630   2.956   4.177  19.407
12334SOL    HW248631   3.001   4.052  19.479
12335SOL     OW48632   2.897   0.736   1.753
12335SOL    HW148633   2.854   0.810   1.710
12335SOL    HW248634   2.977   0.773   1.790
12336SOL     OW48635   3.547   2.941  10.664
12336SOL    HW148636   3.529   2.881  10.592
12336SOL    HW248637   3.626   2.907  10.705
12337SOL     OW48638   1.330   3.156  24.277
12337SOL    HW148639   1.347   3.133  24.368
12337SOL    HW248640   1.370   3.085  24.227
12338SOL     OW48641   0.822   4.244  20.534
12338SOL    HW148642   0.838   4.201  20.618
12338SOL    HW248643   0.795   4.174  20.475
12339SOL     OW48644   0.986   0.819  23.584
12339SOL    HW148645   1.039   0.889  23.623
12339SOL    HW248646   1.028   0.801  23.500
12340SOL     OW48647   0.850   3.034   4.576
12340SOL    HW148648   0.772   3.013   4.525
12340SOL    HW248649   0.837   2.989   4.659
12341SOL     OW48650   0.251   3.981  27.060
12341SOL    HW148651   0.193   3.970  26.984
12341SOL    HW248652   0.197   3.957  27.135
12342SOL     OW48653   2.745   0.792  22.210
12342SOL    HW148654   2.776   0.828  22.293
12342SOL    HW248655   2.650   0.791  22.218
12343SOL     OW48656   1.416   3.436   1.733
12343SOL    HW148657   1.507   3.452   1.757
12343SOL    HW248658   1.395   3.505   1.670
12344SOL     OW48659   4.631   4.654   4.602
12344SOL    HW148660   4.712   4.698   4.628
12344SOL    HW248661   4.657   4.564   4.583
12345SOL     OW48662   1.353   0.890   3.280
12345SOL    HW148663   1.368   0.815   3.222
12345SOL    HW248664   1.258   0.890   3.295
12346SOL     OW48665   0.328   1.384   0.167
12346SOL    HW148666   0.288   1.465   0.198
12346SOL    HW248667   0.354   1.338   0.247
12347SOL     OW48668   3.675   1.349  28.214
12347SOL    HW148669   3.611   1.412  28.247
12347SOL    HW248670   3.724   1.321  28.292
12348SOL     OW48671   3.686   0.426   2.855
12348SOL    HW148672   3.677   0.516   2.824
12348SOL    HW248673   3.601   0.385   2.836
12349SOL     OW48674   0.679   1.984   6.171
12349SOL    HW148675   0.612   2.034   6.125
12349SOL    HW248676   0.724   2.048   6.226
12350SOL     OW48677   1.157   4.276  21.500
12350SOL    HW148678   1.080   4.219  21.501
12350SOL    HW248679   1.154   4.319  21.415
12351SOL     OW48680   4.613   3.532   1.464
12351SOL    HW148681   4.708   3.518   1.461
12351SOL    HW248682   4.584   3.521   1.373
12352SOL     OW48683   3.675   1.556  20.635
12352SOL    HW148684   3.601   1.616  20.645
12352SOL    HW248685   3.674   1.532  20.542
12353SOL     OW48686   2.646   4.229  11.108
12353SOL    HW148687   2.738   4.202  11.115
12353SOL    HW248688   2.623   4.211  11.017
12354SOL     OW48689   4.085   3.582  24.392
12354SOL    HW148690   4.145   3.631  24.449
12354SOL    HW248691   4.140   3.552  24.319
12355SOL     OW48692   3.744   3.608   4.165
12355SOL    HW148693   3.716   3.573   4.080
12355SOL    HW248694   3.797   3.685   4.143
12356SOL     OW48695   2.456   3.827  22.468
12356SOL    HW148696   2.498   3.913  22.468
12356SOL    HW248697   2.481   3.789  22.384
12357SOL     OW48698   0.771   4.546   4.549
12357SOL    HW148699   0.772   4.450   4.544
12357SOL    HW248700   0.725   4.566   4.630
12358SOL     OW48701   0.883   0.011  18.679
12358SOL    HW148702   0.923   4.707  18.698
12358SOL    HW248703   0.889   0.019  18.584
12359SOL     OW48704   4.334   2.490  22.105
12359SOL    HW148705   4.345   2.526  22.017
12359SOL    HW248706   4.411   2.434  22.118
12360SOL     OW48707   0.527   0.852  24.411
12360SOL    HW148708   0.561   0.797  24.340
12360SOL    HW248709   0.449   0.806  24.442
12361SOL     OW48710   2.318   0.020  28.252
12361SOL    HW148711   2.339   4.739  28.322
12361SOL    HW248712   2.228   4.780  28.228
12362SOL     OW48713   0.446   0.034   1.168
12362SOL    HW148714   0.454   0.020   1.074
12362SOL    HW248715   0.527   4.780   1.204
12363SOL     OW48716   4.535   0.336   6.434
12363SOL    HW148717   4.493   0.421   6.422
12363SOL    HW248718   4.511   0.309   6.523
12364SOL     OW48719   2.919   1.555   7.526
12364SOL    HW148720   2.957   1.592   7.605
12364SOL    HW248721   2.824   1.558   7.541
12365SOL     OW48722   0.219   1.282  21.122
12365SOL    HW148723   0.157   1.350  21.097
12365SOL    HW248724   0.222   1.223  21.046
12366SOL     OW48725   0.518   2.044  26.618
12366SOL    HW148726   0.591   2.056  26.679
12366SOL    HW248727   0.462   1.979  26.661
12367SOL     OW48728   3.499   3.348   9.534
12367SOL    HW148729   3.565   3.416   9.520
12367SOL    HW248730   3.546   3.266   9.520
12368SOL     OW48731   1.522   3.134   3.907
12368SOL    HW148732   1.580   3.115   3.833
12368SOL    HW248733   1.565   3.093   3.982
12369SOL     OW48734   2.012   1.464   2.500
12369SOL    HW148735   2.065   1.435   2.574
12369SOL    HW248736   1.936   1.506   2.540
12370SOL     OW48737   2.176   0.276  22.969
12370SOL    HW148738   2.126   0.198  22.991
12370SOL    HW248739   2.207   0.260  22.880
12371SOL     OW48740   3.730   1.899  28.238
12371SOL    HW148741   3.743   1.887  28.144
12371SOL    HW248742   3.811   1.867  28.278
12372SOL     OW48743   1.681   0.261  13.633
12372SOL    HW148744   1.678   0.209  13.713
12372SOL    HW248745   1.649   0.347  13.659
12373SOL     OW48746   0.448   1.698   8.877
12373SOL    HW148747   0.360   1.661   8.876
12373SOL    HW248748   0.435   1.792   8.861
12374SOL     OW48749   4.044   3.902  25.149
12374SOL    HW148750   4.012   3.928  25.063
12374SOL    HW248751   4.008   3.968  25.209
12375SOL     OW48752   3.170   1.592  23.781
12375SOL    HW148753   3.186   1.507  23.823
12375SOL    HW248754   3.087   1.623  23.818
12376SOL     OW48755   2.677   0.153  21.171
12376SOL    HW148756   2.649   0.124  21.084
12376SOL    HW248757   2.704   0.244  21.159
12377SOL     OW48758   1.262   0.110  12.708
12377SOL    HW148759   1.181   0.061  12.724
12377SOL    HW248760   1.307   0.109  12.792
12378SOL     OW48761   1.175   4.449   9.980
12378SOL    HW148762   1.099   4.474  10.032
12378SOL    HW248763   1.178   4.354   9.985
12379SOL     OW48764   0.788   1.296   6.824
12379SOL    HW148765   0.754   1.342   6.747
12379SOL    HW248766   0.773   1.203   6.805
12380SOL     OW48767   1.905   0.571  21.788
12380SOL    HW148768   1.967   0.632  21.748
12380SOL    HW248769   1.825   0.622  21.799
12381SOL     OW48770   1.082   0.852   5.545
12381SOL    HW148771   1.150   0.788   5.566
12381SOL    HW248772   1.122   0.937   5.565
12382SOL     OW48773   2.727   3.333  24.851
12382SOL    HW148774   2.747   3.396  24.782
12382SOL    HW248775   2.808   3.327  24.902
12383SOL     OW48776   2.225   0.502   8.044
12383SOL    HW148777   2.196   0.587   8.076
12383SOL    HW248778   2.223   0.445   8.121
12384SOL     OW48779   3.648   3.840  19.855
12384SOL    HW148780   3.624   3.782  19.782
12384SOL    HW248781   3.570   3.842  19.910
12385SOL     OW48782   1.286   0.664   6.247
12385SOL    HW148783   1.358   0.696   6.301
12385SOL    HW248784   1.308   0.691   6.158
12386SOL     OW48785   1.568   3.781  10.592
12386SOL    HW148786   1.642   3.829  10.554
12386SOL    HW248787   1.501   3.848  10.606
12387SOL     OW48788   2.085   1.362  26.067
12387SOL    HW148789   2.077   1.444  26.116
12387SOL    HW248790   2.004   1.315  26.086
12388SOL     OW48791   2.161   4.222   7.115
12388SOL    HW148792   2.168   4.129   7.136
12388SOL    HW248793   2.228   4.237   7.049
12389SOL     OW48794   1.707   0.762  19.155
12389SOL    HW148795   1.743   0.674  19.165
12389SOL    HW248796   1.779   0.813  19.118
12390SOL     OW48797   2.894   0.466   6.983
12390SOL    HW148798   2.911   0.389   7.037
12390SOL    HW248799   2.899   0.539   7.045
12391SOL     OW48800   1.056   1.929   9.247
12391SOL    HW148801   1.062   2.011   9.297
12391SOL    HW248802   1.086   1.862   9.308
12392SOL     OW48803   4.619   2.205  25.321
12392SOL    HW148804   4.661   2.224  25.237
12392SOL    HW248805   4.596   2.291  25.356
12393SOL     OW48806   4.296   1.866   3.011
12393SOL    HW148807   4.297   1.830   3.100
12393SOL    HW248808   4.206   1.853   2.981
12394SOL     OW48809   0.996   1.639   8.509
12394SOL    HW148810   1.075   1.607   8.465
12394SOL    HW248811   0.966   1.711   8.454
12395SOL     OW48812   3.472   4.174   9.804
12395SOL    HW148813   3.387   4.135   9.824
12395SOL    HW248814   3.534   4.102   9.813
12396SOL     OW48815   4.599   4.314   4.280
12396SOL    HW148816   4.633   4.292   4.367
12396SOL    HW248817   4.531   4.249   4.263
12397SOL     OW48818   3.447   0.917  21.151
12397SOL    HW148819   3.523   0.881  21.197
12397SOL    HW248820   3.374   0.902  21.211
12398SOL     OW48821   4.537   4.768  22.997
12398SOL    HW148822   4.459   4.751  22.944
12398SOL    HW248823   4.564   0.076  22.972
12399SOL     OW48824   1.830   0.971   1.435
12399SOL    HW148825   1.910   0.987   1.485
12399SOL    HW248826   1.844   0.885   1.394
12400SOL     OW48827   1.664   1.754   8.457
12400SOL    HW148828   1.647   1.701   8.379
12400SOL    HW248829   1.606   1.718   8.524
12401SOL     OW48830   3.575   1.365   8.561
12401SOL    HW148831   3.669   1.370   8.546
12401SOL    HW248832   3.557   1.271   8.569
12402SOL     OW48833   0.218   2.947  23.360
12402SOL    HW148834   0.251   2.979  23.276
12402SOL    HW248835   0.162   2.873  23.337
12403SOL     OW48836   3.021   2.206   0.379
12403SOL    HW148837   2.948   2.187   0.320
12403SOL    HW248838   3.021   2.134   0.442
12404SOL     OW48839   0.169   2.404   4.938
12404SOL    HW148840   0.170   2.483   4.992
12404SOL    HW248841   0.079   2.398   4.906
12405SOL     OW48842   3.820   0.533   9.973
12405SOL    HW148843   3.762   0.497  10.040
12405SOL    HW248844   3.842   0.459   9.917
12406SOL     OW48845   2.177   1.136   3.661
12406SOL    HW148846   2.159   1.047   3.631
12406SOL    HW248847   2.166   1.190   3.583
12407SOL     OW48848   0.827   3.299  21.752
12407SOL    HW148849   0.746   3.251  21.737
12407SOL    HW248850   0.800   3.377  21.801
12408SOL     OW48851   3.954   4.121   3.245
12408SOL    HW148852   3.931   4.207   3.209
12408SOL    HW248853   4.026   4.139   3.306
12409SOL     OW48854   3.230   1.243  27.049
12409SOL    HW148855   3.189   1.287  26.974
12409SOL    HW248856   3.271   1.165  27.012
12410SOL     OW48857   0.188   1.208  22.026
12410SOL    HW148858   0.233   1.272  22.081
12410SOL    HW248859   0.097   1.210  22.055
12411SOL     OW48860   3.508   0.919   7.520
12411SOL    HW148861   3.521   0.956   7.608
12411SOL    HW248862   3.587   0.945   7.472
12412SOL     OW48863   0.857   4.632  27.457
12412SOL    HW148864   0.825   4.666  27.373
12412SOL    HW248865   0.903   4.551  27.435
12413SOL     OW48866   0.426   4.085  25.510
12413SOL    HW148867   0.429   4.087  25.606
12413SOL    HW248868   0.415   3.992  25.488
12414SOL     OW48869   4.211   4.262  21.339
12414SOL    HW148870   4.258   4.193  21.292
12414SOL    HW248871   4.123   4.260  21.302
12415SOL     OW48872   1.844   4.718  25.556
12415SOL    HW148873   1.783   0.004  25.587
12415SOL    HW248874   1.909   4.710  25.626
12416SOL     OW48875   0.139   3.704   7.232
12416SOL    HW148876   0.228   3.672   7.245
12416SOL    HW248877   0.083   3.631   7.259
12417SOL     OW48878   1.134   3.837   7.596
12417SOL    HW148879   1.056   3.817   7.544
12417SOL    HW248880   1.153   3.929   7.578
12418SOL     OW48881   2.563   0.392  19.544
12418SOL    HW148882   2.592   0.304  19.521
12418SOL    HW248883   2.634   0.449  19.514
12419SOL     OW48884   2.069   3.849  26.643
12419SOL    HW148885   2.014   3.879  26.570
12419SOL    HW248886   2.045   3.757  26.655
12420SOL     OW48887   3.770   2.658  23.040
12420SOL    HW148888   3.713   2.582  23.031
12420SOL    HW248889   3.725   2.727  22.991
12421SOL     OW48890   1.461   1.293  20.818
12421SOL    HW148891   1.454   1.250  20.733
12421SOL    HW248892   1.470   1.386  20.797
12422SOL     OW48893   1.204   4.573  26.078
12422SOL    HW148894   1.272   4.594  26.142
12422SOL    HW248895   1.200   4.477  26.078
12423SOL     OW48896   2.510   3.340   8.811
12423SOL    HW148897   2.420   3.316   8.791
12423SOL    HW248898   2.563   3.271   8.770
12424SOL     OW48899   2.033   0.477   0.466
12424SOL    HW148900   1.955   0.428   0.440
12424SOL    HW248901   2.088   0.478   0.388
12425SOL     OW48902   1.247   2.506  22.418
12425SOL    HW148903   1.334   2.486  22.382
12425SOL    HW248904   1.231   2.437  22.482
12426SOL     OW48905   4.779   1.703   5.295
12426SOL    HW148906   4.756   1.712   5.387
12426SOL    HW248907   0.021   1.610   5.285
12427SOL     OW48908   2.806   2.835   7.624
12427SOL    HW148909   2.776   2.765   7.566
12427SOL    HW248910   2.897   2.849   7.598
12428SOL     OW48911   3.213   0.284  27.383
12428SOL    HW148912   3.173   0.266  27.298
12428SOL    HW248913   3.307   0.291  27.364
12429SOL     OW48914   2.006   3.513  25.027
12429SOL    HW148915   1.980   3.553  24.944
12429SOL    HW248916   2.070   3.574  25.064
12430SOL     OW48917   0.453   0.057  21.547
12430SOL    HW148918   0.374   0.109  21.533
12430SOL    HW248919   0.492   0.093  21.626
12431SOL     OW48920   3.474   4.670  11.091
12431SOL    HW148921   3.428   4.731  11.149
12431SOL    HW248922   3.513   4.606  11.150
12432SOL     OW48923   2.670   3.978  20.441
12432SOL    HW148924   2.728   4.032  20.495
12432SOL    HW248925   2.672   3.892  20.482
12433SOL     OW48926   1.369   2.331  26.040
12433SOL    HW148927   1.293   2.295  26.086
12433SOL    HW248928   1.401   2.259  25.986
12434SOL     OW48929   1.103   1.530  24.798
12434SOL    HW148930   1.191   1.546  24.763
12434SOL    HW248931   1.078   1.445  24.762
12435SOL     OW48932   1.066   4.499   6.285
12435SOL    HW148933   1.020   4.489   6.202
12435SOL    HW248934   1.154   4.526   6.260
12436SOL     OW48935   2.692   2.286  17.484
12436SOL    HW148936   2.721   2.197  17.506
12436SOL    HW248937   2.726   2.301  17.396
12437SOL     OW48938   1.602   3.217  20.123
12437SOL    HW148939   1.688   3.191  20.089
12437SOL    HW248940   1.622   3.285  20.188
12438SOL     OW48941   0.188   0.849   8.760
12438SOL    HW148942   0.227   0.854   8.847
12438SOL    HW248943   0.100   0.884   8.771
12439SOL     OW48944   3.105   1.708   4.271
12439SOL    HW148945   3.096   1.796   4.235
12439SOL    HW248946   3.101   1.721   4.366
12440SOL     OW48947   3.141   1.131  21.747
12440SOL    HW148948   3.154   1.192  21.674
12440SOL    HW248949   3.095   1.057  21.708
12441SOL     OW48950   2.791   1.234  17.530
12441SOL    HW148951   2.787   1.145  17.494
12441SOL    HW248952   2.810   1.289  17.454
12442SOL     OW48953   4.673   0.567  25.282
12442SOL    HW148954   4.700   0.657  25.266
12442SOL    HW248955   4.598   0.554  25.224
12443SOL     OW48956   4.356   0.512  10.845
12443SOL    HW148957   4.382   0.432  10.799
12443SOL    HW248958   4.427   0.529  10.907
12444SOL     OW48959   4.363   3.807   3.136
12444SOL    HW148960   4.326   3.830   3.051
12444SOL    HW248961   4.436   3.749   3.116
12445SOL     OW48962   4.607   2.385  23.389
12445SOL    HW148963   4.528   2.350  23.348
12445SOL    HW248964   4.599   2.362  23.482
12446SOL     OW48965   3.871   4.641  27.130
12446SOL    HW148966   3.952   4.691  27.137
12446SOL    HW248967   3.830   4.649  27.216
12447SOL     OW48968   3.944   4.569  21.367
12447SOL    HW148969   3.905   4.657  21.368
12447SOL    HW248970   3.989   4.561  21.451
12448SOL     OW48971   4.374   0.277  20.570
12448SOL    HW148972   4.326   0.360  20.561
12448SOL    HW248973   4.325   0.215  20.516
12449SOL     OW48974   1.872   0.256   4.820
12449SOL    HW148975   1.916   0.341   4.812
12449SOL    HW248976   1.930   0.205   4.877
12450SOL     OW48977   3.437   2.698   0.387
12450SOL    HW148978   3.511   2.643   0.361
12450SOL    HW248979   3.439   2.698   0.483
12451SOL     OW48980   3.581   1.907  19.029
12451SOL    HW148981   3.519   1.934  18.962
12451SOL    HW248982   3.537   1.928  19.112
12452SOL     OW48983   2.500   2.094  25.322
12452SOL    HW148984   2.573   2.033  25.333
12452SOL    HW248985   2.526   2.150  25.249
12453SOL     OW48986   0.375   2.774   4.548
12453SOL    HW148987   0.324   2.715   4.604
12453SOL    HW248988   0.430   2.716   4.496
12454SOL     OW48989   2.097   1.055  24.057
12454SOL    HW148990   2.051   0.980  24.021
12454SOL    HW248991   2.043   1.084  24.130
12455SOL     OW48992   4.025   3.810  21.298
12455SOL    HW148993   4.002   3.874  21.231
12455SOL    HW248994   4.116   3.786  21.279
12456SOL     OW48995   3.248   2.560  19.086
12456SOL    HW148996   3.175   2.556  19.024
12456SOL    HW248997   3.217   2.513  19.163
12457SOL     OW48998   2.958   3.524  24.094
12457SOL    HW148999   2.993   3.499  24.180
12457SOL    HW249000   2.912   3.607  24.110
12458SOL     OW49001   0.840   1.383   9.396
12458SOL    HW149002   0.829   1.466   9.349
12458SOL    HW249003   0.751   1.354   9.416
12459SOL     OW49004   3.348   3.420  17.183
12459SOL    HW149005   3.384   3.479  17.117
12459SOL    HW249006   3.380   3.333  17.158
12460SOL     OW49007   0.191   0.830  27.085
12460SOL    HW149008   0.183   0.924  27.067
12460SOL    HW249009   0.282   0.819  27.113
12461SOL     OW49010   3.991   3.835  26.875
12461SOL    HW149011   3.990   3.927  26.848
12461SOL    HW249012   4.057   3.831  26.944
12462SOL     OW49013   2.583   3.121   3.676
12462SOL    HW149014   2.496   3.099   3.644
12462SOL    HW249015   2.570   3.198   3.731
12463SOL     OW49016   2.946   4.243  22.593
12463SOL    HW149017   2.866   4.277  22.553
12463SOL    HW249018   2.916   4.201  22.674
12464SOL     OW49019   0.463   4.170  21.139
12464SOL    HW149020   0.556   4.180  21.118
12464SOL    HW249021   0.418   4.227  21.077
12465SOL     OW49022   0.398   2.485  22.311
12465SOL    HW149023   0.349   2.427  22.252
12465SOL    HW249024   0.447   2.425  22.368
12466SOL     OW49025   0.031   4.626  24.510
12466SOL    HW149026   0.079   4.546  24.532
12466SOL    HW249027   4.733   4.622  24.565
12467SOL     OW49028   2.862   3.930   9.690
12467SOL    HW149029   2.884   3.841   9.661
12467SOL    HW249030   2.820   3.917   9.775
12468SOL     OW49031   1.030   3.913  10.673
12468SOL    HW149032   1.018   3.819  10.685
12468SOL    HW249033   0.967   3.953  10.733
12469SOL     OW49034   3.724   3.715  21.521
12469SOL    HW149035   3.669   3.762  21.459
12469SOL    HW249036   3.805   3.766  21.526
12470SOL     OW49037   3.854   2.960   7.861
12470SOL    HW149038   3.802   3.025   7.909
12470SOL    HW249039   3.841   2.878   7.909
12471SOL     OW49040   2.478   3.907   0.100
12471SOL    HW149041   2.453   3.934   0.188
12471SOL    HW249042   2.423   3.830   0.082
12472SOL     OW49043   2.055   2.678  25.376
12472SOL    HW149044   2.089   2.645  25.459
12472SOL    HW249045   2.120   2.741  25.346
12473SOL     OW49046   3.745   1.893   2.819
12473SOL    HW149047   3.798   1.859   2.892
12473SOL    HW249048   3.680   1.824   2.803
12474SOL     OW49049   0.087   0.577   3.884
12474SOL    HW149050   0.090   0.670   3.908
12474SOL    HW249051   4.774   0.558   3.875
12475SOL     OW49052   3.244   1.559  20.671
12475SOL    HW149053   3.305   1.579  20.741
12475SOL    HW249054   3.248   1.635  20.613
12476SOL     OW49055   0.094   0.726   2.319
12476SOL    HW149056   0.112   0.684   2.235
12476SOL    HW249057   0.120   0.661   2.385
12477SOL     OW49058   2.563   3.451   2.170
12477SOL    HW149059   2.599   3.504   2.242
12477SOL    HW249060   2.535   3.515   2.105
12478SOL     OW49061   0.870   0.577  24.180
12478SOL    HW149062   0.928   0.608  24.110
12478SOL    HW249063   0.913   0.605  24.261
12479SOL     OW49064   1.179   0.898  25.274
12479SOL    HW149065   1.241   0.937  25.335
12479SOL    HW249066   1.154   0.815  25.314
12480SOL     OW49067   4.497   4.168  27.755
12480SOL    HW149068   4.542   4.253  27.755
12480SOL    HW249069   4.429   4.177  27.688
12481SOL     OW49070   1.644   1.281   7.144
12481SOL    HW149071   1.561   1.233   7.146
12481SOL    HW249072   1.676   1.276   7.234
12482SOL     OW49073   2.183   2.515   7.707
12482SOL    HW149074   2.172   2.555   7.793
12482SOL    HW249075   2.125   2.438   7.709
12483SOL     OW49076   2.818   1.127  22.066
12483SOL    HW149077   2.841   1.068  21.995
12483SOL    HW249078   2.885   1.111  22.133
12484SOL     OW49079   2.892   3.153  22.392
12484SOL    HW149080   2.806   3.113  22.379
12484SOL    HW249081   2.940   3.133  22.312
12485SOL     OW49082   0.332   0.425   4.294
12485SOL    HW149083   0.329   0.434   4.389
12485SOL    HW249084   0.416   0.463   4.268
12486SOL     OW49085   0.341   1.735   2.746
12486SOL    HW149086   0.377   1.823   2.756
12486SOL    HW249087   0.340   1.721   2.651
12487SOL     OW49088   0.165   1.062   8.192
12487SOL    HW149089   0.202   1.079   8.105
12487SOL    HW249090   0.228   1.101   8.253
12488SOL     OW49091   1.916   2.922   5.980
12488SOL    HW149092   1.837   2.965   6.014
12488SOL    HW249093   1.883   2.856   5.920
12489SOL     OW49094   2.711   1.465  24.093
12489SOL    HW149095   2.744   1.527  24.158
12489SOL    HW249096   2.738   1.379  24.126
12490SOL     OW49097   1.648   4.440   7.836
12490SOL    HW149098   1.645   4.486   7.920
12490SOL    HW249099   1.674   4.507   7.773
12491SOL     OW49100   3.894   1.766   5.138
12491SOL    HW149101   3.832   1.694   5.128
12491SOL    HW249102   3.868   1.809   5.219
12492SOL     OW49103   2.991   2.786   1.280
12492SOL    HW149104   2.967   2.853   1.344
12492SOL    HW249105   3.003   2.835   1.198
12493SOL     OW49106   4.548   2.282  20.082
12493SOL    HW149107   4.627   2.294  20.135
12493SOL    HW249108   4.488   2.351  20.112
12494SOL     OW49109   1.803   0.367  26.977
12494SOL    HW149110   1.712   0.396  26.986
12494SOL    HW249111   1.831   0.346  27.066
12495SOL     OW49112   2.757   3.590   1.297
12495SOL    HW149113   2.784   3.538   1.221
12495SOL    HW249114   2.708   3.529   1.352
12496SOL     OW49115   1.007   2.391  28.210
12496SOL    HW149116   0.956   2.312  28.195
12496SOL    HW249117   0.949   2.448  28.261
12497SOL     OW49118   4.244   0.078  19.517
12497SOL    HW149119   4.166   0.057  19.466
12497SOL    HW249120   4.256   0.172  19.505
12498SOL     OW49121   1.447   1.053   5.328
12498SOL    HW149122   1.521   1.028   5.383
12498SOL    HW249123   1.436   1.147   5.343
12499SOL     OW49124   2.314   1.456  25.693
12499SOL    HW149125   2.271   1.446  25.608
12499SOL    HW249126   2.394   1.505  25.674
12500SOL     OW49127   3.067   0.645   2.632
12500SOL    HW149128   3.083   0.702   2.707
12500SOL    HW249129   3.143   0.659   2.575
12501SOL     OW49130   0.251   4.306  24.306
12501SOL    HW149131   0.316   4.376  24.304
12501SOL    HW249132   0.288   4.241  24.366
12502SOL     OW49133   1.186   0.721   6.585
12502SOL    HW149134   1.206   0.796   6.529
12502SOL    HW249135   1.176   0.647   6.525
12503SOL     OW49136   4.494   1.087  25.224
12503SOL    HW149137   4.577   1.086  25.271
12503SOL    HW249138   4.431   1.124  25.286
12504SOL     OW49139   2.687   3.707  27.720
12504SOL    HW149140   2.622   3.682  27.785
12504SOL    HW249141   2.765   3.658  27.744
12505SOL     OW49142   1.924   0.992   5.555
12505SOL    HW149143   2.009   0.956   5.528
12505SOL    HW249144   1.910   1.065   5.495
12506SOL     OW49145   2.623   1.416   1.102
12506SOL    HW149146   2.558   1.352   1.131
12506SOL    HW249147   2.688   1.365   1.054
12507SOL     OW49148   2.550   4.714   3.046
12507SOL    HW149149   2.460   4.683   3.033
12507SOL    HW249150   2.605   4.638   3.028
12508SOL     OW49151   0.403   4.563  21.548
12508SOL    HW149152   0.413   4.658  21.542
12508SOL    HW249153   0.349   4.539  21.473
12509SOL     OW49154   2.082   2.014  24.783
12509SOL    HW149155   2.070   2.094  24.834
12509SOL    HW249156   2.163   2.029  24.734
12510SOL     OW49157   1.511   2.527  27.163
12510SOL    HW149158   1.499   2.457  27.099
12510SOL    HW249159   1.541   2.483  27.242
12511SOL     OW49160   4.707   1.050  10.269
12511SOL    HW149161   4.657   1.013  10.196
12511SOL    HW249162   4.660   1.130  10.293
12512SOL     OW49163   1.531   0.227  24.036
12512SOL    HW149164   1.491   0.267  24.113
12512SOL    HW249165   1.504   0.283  23.963
12513SOL     OW49166   3.262   2.864   1.581
12513SOL    HW149167   3.343   2.900   1.546
12513SOL    HW249168   3.282   2.772   1.599
12514SOL     OW49169   4.644   1.260  17.969
12514SOL    HW149170   4.578   1.300  17.913
12514SOL    HW249171   4.603   1.180  18.002
12515SOL     OW49172   0.296   2.288  12.760
12515SOL    HW149173   0.302   2.193  12.771
12515SOL    HW249174   0.329   2.324  12.842
12516SOL     OW49175   2.118   0.657   0.136
12516SOL    HW149176   2.169   0.694   0.064
12516SOL    HW249177   2.028   0.685   0.118
12517SOL     OW49178   2.522   4.049   5.043
12517SOL    HW149179   2.545   4.071   5.133
12517SOL    HW249180   2.552   3.959   5.031
12518SOL     OW49181   2.190   3.182  10.580
12518SOL    HW149182   2.159   3.104  10.626
12518SOL    HW249183   2.285   3.173  10.578
12519SOL     OW49184   3.383   0.548  28.416
12519SOL    HW149185   3.468   0.525  28.378
12519SOL    HW249186   3.327   0.472  28.397
12520SOL     OW49187   0.381   4.564   9.626
12520SOL    HW149188   0.448   4.592   9.563
12520SOL    HW249189   0.425   4.498   9.680
12521SOL     OW49190   2.245   0.049   8.318
12521SOL    HW149191   2.265   0.077   8.407
12521SOL    HW249192   2.256   0.128   8.265
12522SOL     OW49193   3.927   1.432  20.616
12522SOL    HW149194   3.967   1.471  20.538
12522SOL    HW249195   3.867   1.499  20.649
12523SOL     OW49196   0.472   2.515   9.940
12523SOL    HW149197   0.385   2.523   9.978
12523SOL    HW249198   0.471   2.429   9.897
12524SOL     OW49199   4.556   2.952   8.391
12524SOL    HW149200   4.525   2.965   8.301
12524SOL    HW249201   4.604   3.032   8.412
12525SOL     OW49202   2.683   1.282   3.781
12525SOL    HW149203   2.699   1.332   3.701
12525SOL    HW249204   2.752   1.215   3.782
12526SOL     OW49205   3.285   1.700   8.959
12526SOL    HW149206   3.358   1.673   8.903
12526SOL    HW249207   3.270   1.625   9.017
12527SOL     OW49208   3.183   4.753  24.979
12527SOL    HW149209   3.179   0.063  24.949
12527SOL    HW249210   3.236   4.757  25.058
12528SOL     OW49211   0.053   0.063   1.629
12528SOL    HW149212   0.104   0.047   1.708
12528SOL    HW249213   0.041   0.158   1.626
12529SOL     OW49214   1.722   3.253  24.492
12529SOL    HW149215   1.779   3.282  24.563
12529SOL    HW249216   1.641   3.226  24.536
12530SOL     OW49217   0.085   4.448  26.207
12530SOL    HW149218   0.065   4.369  26.257
12530SOL    HW249219   0.153   4.421  26.145
12531SOL     OW49220   2.729   1.677   6.011
12531SOL    HW149221   2.671   1.744   5.975
12531SOL    HW249222   2.808   1.682   5.957
12532SOL     OW49223   1.512   0.251   7.504
12532SOL    HW149224   1.481   0.164   7.478
12532SOL    HW249225   1.590   0.265   7.451
12533SOL     OW49226   2.813   4.083   1.656
12533SOL    HW149227   2.843   4.054   1.570
12533SOL    HW249228   2.866   4.033   1.718
12534SOL     OW49229   4.318   3.789  25.128
12534SOL    HW149230   4.374   3.863  25.103
12534SOL    HW249231   4.229   3.824  25.125
12535SOL     OW49232   1.640   0.761  10.512
12535SOL    HW149233   1.712   0.727  10.565
12535SOL    HW249234   1.683   0.811  10.442
12536SOL     OW49235   2.496   0.602  22.212
12536SOL    HW149236   2.409   0.639  22.196
12536SOL    HW249237   2.511   0.543  22.138
12537SOL     OW49238   4.523   0.492   4.903
12537SOL    HW149239   4.476   0.429   4.848
12537SOL    HW249240   4.482   0.484   4.989
12538SOL     OW49241   0.375   2.425   1.788
12538SOL    HW149242   0.286   2.460   1.782
12538SOL    HW249243   0.373   2.367   1.864
12539SOL     OW49244   0.729   3.653  26.317
12539SOL    HW149245   0.798   3.715  26.295
12539SOL    HW249246   0.664   3.705  26.365
12540SOL     OW49247   0.410   0.820   9.697
12540SOL    HW149248   0.485   0.843   9.752
12540SOL    HW249249   0.448   0.790   9.615
12541SOL     OW49250   0.657   4.074   7.745
12541SOL    HW149251   0.612   4.058   7.662
12541SOL    HW249252   0.601   4.034   7.811
12542SOL     OW49253   3.008   3.792  10.527
12542SOL    HW149254   2.933   3.774  10.583
12542SOL    HW249255   3.034   3.706  10.493
12543SOL     OW49256   4.420   0.250  17.762
12543SOL    HW149257   4.477   0.311  17.716
12543SOL    HW249258   4.373   0.205  17.692
12544SOL     OW49259   2.282   3.867  25.205
12544SOL    HW149260   2.332   3.806  25.150
12544SOL    HW249261   2.308   3.844  25.294
12545SOL     OW49262   1.959   1.800  22.223
12545SOL    HW149263   1.881   1.818  22.276
12545SOL    HW249264   1.971   1.705  22.229
12546SOL     OW49265   1.155   2.419  25.125
12546SOL    HW149266   1.076   2.390  25.080
12546SOL    HW249267   1.168   2.509  25.096
12547SOL     OW49268   3.057   4.640   5.760
12547SOL    HW149269   3.012   4.585   5.696
12547SOL    HW249270   3.108   4.578   5.813
12548SOL     OW49271   4.117   1.717  23.136
12548SOL    HW149272   4.144   1.627  23.153
12548SOL    HW249273   4.050   1.735  23.202
12549SOL     OW49274   2.079   1.107   8.048
12549SOL    HW149275   2.085   1.154   7.965
12549SOL    HW249276   1.985   1.098   8.064
12550SOL     OW49277   2.324   0.417   9.831
12550SOL    HW149278   2.274   0.406   9.912
12550SOL    HW249279   2.290   0.497   9.792
12551SOL     OW49280   3.666   2.701  22.398
12551SOL    HW149281   3.713   2.738  22.324
12551SOL    HW249282   3.718   2.725  22.474
12552SOL     OW49283   0.149   3.296  21.567
12552SOL    HW149284   0.067   3.309  21.614
12552SOL    HW249285   0.194   3.226  21.615
12553SOL     OW49286   3.355   3.253  24.490
12553SOL    HW149287   3.285   3.209  24.441
12553SOL    HW249288   3.397   3.183  24.540
12554SOL     OW49289   2.815   2.156   0.198
12554SOL    HW149290   2.775   2.243   0.202
12554SOL    HW249291   2.742   2.096   0.212
12555SOL     OW49292   1.958   2.197   3.958
12555SOL    HW149293   1.915   2.190   4.043
12555SOL    HW249294   1.886   2.197   3.895
12556SOL     OW49295   3.719   4.378   3.857
12556SOL    HW149296   3.704   4.324   3.779
12556SOL    HW249297   3.747   4.463   3.823
12557SOL     OW49298   2.883   4.216  20.084
12557SOL    HW149299   2.952   4.258  20.032
12557SOL    HW249300   2.899   4.122  20.073
12558SOL     OW49301   1.164   2.842  10.477
12558SOL    HW149302   1.114   2.767  10.446
12558SOL    HW249303   1.111   2.918  10.454
12559SOL     OW49304   0.997   1.278  19.919
12559SOL    HW149305   0.904   1.294  19.933
12559SOL    HW249306   1.008   1.281  19.824
12560SOL     OW49307   1.303   2.898   8.622
12560SOL    HW149308   1.327   2.986   8.595
12560SOL    HW249309   1.384   2.848   8.617
12561SOL     OW49310   2.244   0.591  13.004
12561SOL    HW149311   2.205   0.593  13.091
12561SOL    HW249312   2.336   0.570  13.020
12562SOL     OW49313   3.509   2.345  18.167
12562SOL    HW149314   3.428   2.387  18.196
12562SOL    HW249315   3.482   2.258  18.139
12563SOL     OW49316   3.262   1.617   3.793
12563SOL    HW149317   3.248   1.667   3.712
12563SOL    HW249318   3.280   1.528   3.764
12564SOL     OW49319   0.108   2.760  27.331
12564SOL    HW149320   0.190   2.793  27.295
12564SOL    HW249321   0.103   2.799  27.418
12565SOL     OW49322   4.127   4.087   6.124
12565SOL    HW149323   4.084   4.023   6.067
12565SOL    HW249324   4.199   4.039   6.164
12566SOL     OW49325   0.315   2.263   4.674
12566SOL    HW149326   0.290   2.171   4.678
12566SOL    HW249327   0.301   2.296   4.763
12567SOL     OW49328   4.701   1.872   3.830
12567SOL    HW149329   4.744   1.888   3.914
12567SOL    HW249330   4.748   1.927   3.768
12568SOL     OW49331   4.456   3.895  27.818
12568SOL    HW149332   4.469   3.931  27.906
12568SOL    HW249333   4.494   3.961  27.760
12569SOL     OW49334   2.963   1.414  10.508
12569SOL    HW149335   3.000   1.500  10.486
12569SOL    HW249336   2.921   1.427  10.593
12570SOL     OW49337   4.592   1.332  25.959
12570SOL    HW149338   4.539   1.358  26.035
12570SOL    HW249339   4.668   1.389  25.962
12571SOL     OW49340   0.968   1.760  24.852
12571SOL    HW149341   1.034   1.691  24.845
12571SOL    HW249342   0.905   1.740  24.782
12572SOL     OW49343   0.120   2.491  26.830
12572SOL    HW149344   0.155   2.571  26.869
12572SOL    HW249345   0.061   2.521  26.761
12573SOL     OW49346   3.718   0.829  22.332
12573SOL    HW149347   3.784   0.889  22.297
12573SOL    HW249348   3.675   0.793  22.254
12574SOL     OW49349   4.088   0.229   6.715
12574SOL    HW149350   4.083   0.166   6.643
12574SOL    HW249351   4.096   0.314   6.672
12575SOL     OW49352   1.026   3.904   3.117
12575SOL    HW149353   1.058   3.910   3.027
12575SOL    HW249354   1.103   3.881   3.168
12576SOL     OW49355   4.579   3.246   0.267
12576SOL    HW149356   4.627   3.171   0.303
12576SOL    HW249357   4.641   3.287   0.207
12577SOL     OW49358   3.840   4.295   0.683
12577SOL    HW149359   3.912   4.303   0.745
12577SOL    HW249360   3.844   4.204   0.654
12578SOL     OW49361   0.256   1.068  24.539
12578SOL    HW149362   0.249   0.973  24.531
12578SOL    HW249363   0.337   1.082  24.589
12579SOL     OW49364   1.024   0.760  16.353
12579SOL    HW149365   1.063   0.758  16.265
12579SOL    HW249366   0.931   0.774  16.338
12580SOL     OW49367   3.621   1.271   5.411
12580SOL    HW149368   3.620   1.255   5.505
12580SOL    HW249369   3.620   1.366   5.403
12581SOL     OW49370   4.614   2.432  27.335
12581SOL    HW149371   4.553   2.372  27.292
12581SOL    HW249372   4.574   2.451  27.420
12582SOL     OW49373   3.479   1.465  18.039
12582SOL    HW149374   3.537   1.405  18.085
12582SOL    HW249375   3.445   1.414  17.965
12583SOL     OW49376   3.896   3.064  21.225
12583SOL    HW149377   3.886   2.969  21.236
12583SOL    HW249378   3.839   3.102  21.291
12584SOL     OW49379   1.617   3.663  27.985
12584SOL    HW149380   1.620   3.732  28.051
12584SOL    HW249381   1.528   3.668  27.949
12585SOL     OW49382   1.763   1.830  28.381
12585SOL    HW149383   1.820   1.906  28.373
12585SOL    HW249384   1.820   1.755  28.363
12586SOL     OW49385   4.236   4.669   2.788
12586SOL    HW149386   4.145   4.656   2.815
12586SOL    HW249387   4.247   4.611   2.713
12587SOL     OW49388   0.221   4.588  10.103
12587SOL    HW149389   0.150   4.629  10.054
12587SOL    HW249390   0.179   4.555  10.182
12588SOL     OW49391   2.017   0.421   9.687
12588SOL    HW149392   1.948   0.409   9.752
12588SOL    HW249393   2.088   0.364   9.717
12589SOL     OW49394   1.931   0.886   4.766
12589SOL    HW149395   1.918   0.798   4.802
12589SOL    HW249396   1.936   0.943   4.843
12590SOL     OW49397   4.176   2.059   3.221
12590SOL    HW149398   4.200   2.019   3.137
12590SOL    HW249399   4.136   1.988   3.271
12591SOL     OW49400   0.214   0.381   6.776
12591SOL    HW149401   0.164   0.362   6.855
12591SOL    HW249402   0.301   0.344   6.792
12592SOL     OW49403   0.463   2.310  24.723
12592SOL    HW149404   0.452   2.387  24.779
12592SOL    HW249405   0.474   2.238  24.785
12593SOL     OW49406   3.251   4.151   7.661
12593SOL    HW149407   3.284   4.235   7.693
12593SOL    HW249408   3.169   4.138   7.709
12594SOL     OW49409   3.958   3.325  27.582
12594SOL    HW149410   3.884   3.343  27.525
12594SOL    HW249411   3.983   3.235  27.562
12595SOL     OW49412   0.311   2.260  21.435
12595SOL    HW149413   0.241   2.213  21.390
12595SOL    HW249414   0.297   2.352  21.411
12596SOL     OW49415   2.352   4.573   7.035
12596SOL    HW149416   2.292   4.618   7.094
12596SOL    HW249417   2.305   4.569   6.952
12597SOL     OW49418   0.335   1.148  23.934
12597SOL    HW149419   0.261   1.091  23.956
12597SOL    HW249420   0.390   1.095  23.877
12598SOL     OW49421   4.092   0.141  25.210
12598SOL    HW149422   4.140   0.181  25.283
12598SOL    HW249423   4.003   0.175  25.218
12599SOL     OW49424   3.683   1.225   3.388
12599SOL    HW149425   3.718   1.224   3.299
12599SOL    HW249426   3.746   1.174   3.439
12600SOL     OW49427   0.873   3.775  28.052
12600SOL    HW149428   0.851   3.833  28.125
12600SOL    HW249429   0.793   3.724  28.037
12601SOL     OW49430   1.381   2.870  25.157
12601SOL    HW149431   1.454   2.893  25.214
12601SOL    HW249432   1.409   2.897  25.070
12602SOL     OW49433   2.534   2.675  28.374
12602SOL    HW149434   2.507   2.759  28.412
12602SOL    HW249435   2.463   2.653  28.313
12603SOL     OW49436   3.741   4.360  22.650
12603SOL    HW149437   3.661   4.349  22.599
12603SOL    HW249438   3.791   4.425  22.602
12604SOL     OW49439   2.930   3.993  25.521
12604SOL    HW149440   2.872   4.005  25.446
12604SOL    HW249441   3.014   3.967  25.483
12605SOL     OW49442   4.712   3.806  22.153
12605SOL    HW149443   4.691   3.813  22.246
12605SOL    HW249444   4.773   3.733  22.148
12606SOL     OW49445   4.359   1.589  27.147
12606SOL    HW149446   4.295   1.580  27.077
12606SOL    HW249447   4.444   1.591  27.102
12607SOL     OW49448   0.668   4.738  21.150
12607SOL    HW149449   0.702   0.040  21.115
12607SOL    HW249450   0.583   4.762  21.188
12608SOL     OW49451   3.969   2.492  28.176
12608SOL    HW149452   3.962   2.551  28.101
12608SOL    HW249453   4.020   2.418  28.144
12609SOL     OW49454   1.028   3.443   4.842
12609SOL    HW149455   0.934   3.457   4.853
12609SOL    HW249456   1.040   3.434   4.748
12610SOL     OW49457   4.259   2.008  22.440
12610SOL    HW149458   4.215   1.933  22.480
12610SOL    HW249459   4.349   2.003  22.473
12611SOL     OW49460   1.068   2.841  25.589
12611SOL    HW149461   1.038   2.773  25.649
12611SOL    HW249462   0.988   2.877  25.551
12612SOL     OW49463   4.482   1.902  17.645
12612SOL    HW149464   4.499   1.852  17.565
12612SOL    HW249465   4.401   1.950  17.626
12613SOL     OW49466   3.904   2.017  10.690
12613SOL    HW149467   3.978   1.960  10.669
12613SOL    HW249468   3.918   2.095  10.636
12614SOL     OW49469   0.552   0.762  16.579
12614SOL    HW149470   0.623   0.700  16.561
12614SOL    HW249471   0.559   0.827  16.509
12615SOL     OW49472   2.773   0.507  20.797
12615SOL    HW149473   2.785   0.540  20.886
12615SOL    HW249474   2.680   0.486  20.791
12616SOL     OW49475   1.172   0.251  26.454
12616SOL    HW149476   1.159   0.322  26.516
12616SOL    HW249477   1.194   0.295  26.372
12617SOL     OW49478   3.414   1.783   6.667
12617SOL    HW149479   3.475   1.731   6.615
12617SOL    HW249480   3.400   1.862   6.615
12618SOL     OW49481   0.618   2.441   7.292
12618SOL    HW149482   0.680   2.459   7.362
12618SOL    HW249483   0.640   2.505   7.224
12619SOL     OW49484   2.337   1.267  22.314
12619SOL    HW149485   2.379   1.198  22.364
12619SOL    HW249486   2.383   1.347  22.339
12620SOL     OW49487   1.774   3.138   9.337
12620SOL    HW149488   1.739   3.086   9.264
12620SOL    HW249489   1.823   3.075   9.390
12621SOL     OW49490   3.608   4.751   9.660
12621SOL    HW149491   3.624   4.657   9.672
12621SOL    HW249492   3.514   4.757   9.645
12622SOL     OW49493   3.547   3.773  26.983
12622SOL    HW149494   3.484   3.762  27.055
12622SOL    HW249495   3.630   3.739  27.018
12623SOL     OW49496   2.144   4.505  20.087
12623SOL    HW149497   2.224   4.558  20.092
12623SOL    HW249498   2.176   4.416  20.069
12624SOL     OW49499   2.496   3.443  20.673
12624SOL    HW149500   2.544   3.522  20.650
12624SOL    HW249501   2.459   3.462  20.759
12625SOL     OW49502   3.536   3.334  25.055
12625SOL    HW149503   3.578   3.279  24.989
12625SOL    HW249504   3.535   3.280  25.134
12626SOL     OW49505   3.592   1.249   3.826
12626SOL    HW149506   3.577   1.263   3.920
12626SOL    HW249507   3.557   1.161   3.809
12627SOL     OW49508   1.818   0.274  12.769
12627SOL    HW149509   1.910   0.252  12.780
12627SOL    HW249510   1.779   0.196  12.728
12628SOL     OW49511   4.527   0.007   2.347
12628SOL    HW149512   4.484   0.086   2.314
12628SOL    HW249513   4.572   4.751   2.271
12629SOL     OW49514   2.331   0.957   2.368
12629SOL    HW149515   2.420   0.987   2.351
12629SOL    HW249516   2.319   0.972   2.462
12630SOL     OW49517   1.251   2.841  22.743
12630SOL    HW149518   1.278   2.923  22.702
12630SOL    HW249519   1.202   2.868  22.821
12631SOL     OW49520   1.140   3.205  25.189
12631SOL    HW149521   1.062   3.177  25.141
12631SOL    HW249522   1.143   3.300  25.177
12632SOL     OW49523   2.592   1.143   1.187
12632SOL    HW149524   2.575   1.139   1.093
12632SOL    HW249525   2.522   1.091   1.226
12633SOL     OW49526   3.276   0.847  22.763
12633SOL    HW149527   3.348   0.855  22.701
12633SOL    HW249528   3.256   0.753  22.765
12634SOL     OW49529   1.773   0.528  17.464
12634SOL    HW149530   1.788   0.460  17.398
12634SOL    HW249531   1.737   0.602  17.414
12635SOL     OW49532   2.668   3.640  28.008
12635SOL    HW149533   2.631   3.674  28.090
12635SOL    HW249534   2.753   3.684  28.001
12636SOL     OW49535   1.531   0.090  22.745
12636SOL    HW149536   1.453   0.037  22.732
12636SOL    HW249537   1.601   0.039  22.704
12637SOL     OW49538   0.073   1.132  11.353
12637SOL    HW149539   0.092   1.050  11.308
12637SOL    HW249540   4.780   1.112  11.411
12638SOL     OW49541   2.504   3.177   0.589
12638SOL    HW149542   2.512   3.240   0.660
12638SOL    HW249543   2.523   3.092   0.630
12639SOL     OW49544   2.142   1.607  26.183
12639SOL    HW149545   2.058   1.652  26.173
12639SOL    HW249546   2.178   1.642  26.264
12640SOL     OW49547   0.982   1.208  23.372
12640SOL    HW149548   0.973   1.267  23.447
12640SOL    HW249549   0.946   1.125  23.403
12641SOL     OW49550   1.465   1.884  28.120
12641SOL    HW149551   1.548   1.914  28.083
12641SOL    HW249552   1.449   1.800  28.077
12642SOL     OW49553   1.983   2.379   6.744
12642SOL    HW149554   2.071   2.372   6.706
12642SOL    HW249555   1.988   2.456   6.801
12643SOL     OW49556   0.389   0.425   9.966
12643SOL    HW149557   0.312   0.474   9.996
12643SOL    HW249558   0.356   0.337   9.947
12644SOL     OW49559   0.131   1.312   4.641
12644SOL    HW149560   0.153   1.393   4.595
12644SOL    HW249561   0.216   1.274   4.663
12645SOL     OW49562   3.434   2.310  22.074
12645SOL    HW149563   3.403   2.271  22.155
12645SOL    HW249564   3.373   2.279  22.007
12646SOL     OW49565   2.211   3.289  21.497
12646SOL    HW149566   2.123   3.327  21.502
12646SOL    HW249567   2.263   3.355  21.451
12647SOL     OW49568   2.582   4.111   6.210
12647SOL    HW149569   2.633   4.120   6.290
12647SOL    HW249570   2.565   4.017   6.202
12648SOL     OW49571   1.081   0.254   1.220
12648SOL    HW149572   0.985   0.261   1.221
12648SOL    HW249573   1.104   0.229   1.309
12649SOL     OW49574   2.703   0.827   3.361
12649SOL    HW149575   2.612   0.806   3.339
12649SOL    HW249576   2.755   0.762   3.315
12650SOL     OW49577   2.839   1.548   9.888
12650SOL    HW149578   2.802   1.572   9.973
12650SOL    HW249579   2.763   1.530   9.833
12651SOL     OW49580   4.257   3.018  19.456
12651SOL    HW149581   4.185   3.076  19.481
12651SOL    HW249582   4.253   3.014  19.360
12652SOL     OW49583   1.295   0.669   4.048
12652SOL    HW149584   1.204   0.677   4.077
12652SOL    HW249585   1.317   0.577   4.064
12653SOL     OW49586   3.454   3.302  26.707
12653SOL    HW149587   3.455   3.366  26.778
12653SOL    HW249588   3.399   3.231  26.740
12654SOL     OW49589   2.634   0.271   7.553
12654SOL    HW149590   2.674   0.356   7.537
12654SOL    HW249591   2.583   0.284   7.633
12655SOL     OW49592   0.154   4.339   1.772
12655SOL    HW149593   0.209   4.373   1.701
12655SOL    HW249594   0.120   4.256   1.739
12656SOL     OW49595   4.297   2.179   1.515
12656SOL    HW149596   4.337   2.114   1.573
12656SOL    HW249597   4.293   2.259   1.568
12657SOL     OW49598   0.997   3.421  19.109
12657SOL    HW149599   1.078   3.408  19.158
12657SOL    HW249600   0.928   3.386  19.166
12658SOL     OW49601   1.979   4.627   3.133
12658SOL    HW149602   1.930   4.692   3.083
12658SOL    HW249603   2.046   4.595   3.073
12659SOL     OW49604   2.545   0.994   8.387
12659SOL    HW149605   2.613   1.022   8.448
12659SOL    HW249606   2.566   1.040   8.305
12660SOL     OW49607   2.060   1.246   2.331
12660SOL    HW149608   2.153   1.261   2.315
12660SOL    HW249609   2.024   1.333   2.346
12661SOL     OW49610   3.690   3.618  24.733
12661SOL    HW149611   3.718   3.526  24.737
12661SOL    HW249612   3.770   3.668  24.750
12662SOL     OW49613   3.389   1.816  27.951
12662SOL    HW149614   3.326   1.864  27.898
12662SOL    HW249615   3.340   1.791  28.029
12663SOL     OW49616   0.448   3.448   8.869
12663SOL    HW149617   0.541   3.424   8.870
12663SOL    HW249618   0.406   3.387   8.929
12664SOL     OW49619   0.034   4.225   7.411
12664SOL    HW149620   4.771   4.281   7.347
12664SOL    HW249621   0.102   4.180   7.361
12665SOL     OW49622   4.700   3.580   2.272
12665SOL    HW149623   4.623   3.540   2.232
12665SOL    HW249624   4.763   3.587   2.201
12666SOL     OW49625   2.167   1.033  21.324
12666SOL    HW149626   2.150   0.940  21.308
12666SOL    HW249627   2.180   1.071  21.237
12667SOL     OW49628   2.597   2.763   8.583
12667SOL    HW149629   2.575   2.851   8.551
12667SOL    HW249630   2.660   2.778   8.653
12668SOL     OW49631   0.068   1.206  20.825
12668SOL    HW149632   4.765   1.166  20.849
12668SOL    HW249633   0.045   1.295  20.799
12669SOL     OW49634   1.578   1.413  22.358
12669SOL    HW149635   1.672   1.431  22.363
12669SOL    HW249636   1.537   1.499  22.357
12670SOL     OW49637   3.540   2.771   1.451
12670SOL    HW149638   3.594   2.715   1.396
12670SOL    HW249639   3.468   2.714   1.479
12671SOL     OW49640   1.410   4.595  21.865
12671SOL    HW149641   1.403   4.600  21.770
12671SOL    HW249642   1.365   4.514  21.888
12672SOL     OW49643   0.470   3.547  11.524
12672SOL    HW149644   0.458   3.574  11.615
12672SOL    HW249645   0.382   3.524  11.494
12673SOL     OW49646   2.926   2.334   7.403
12673SOL    HW149647   2.968   2.267   7.457
12673SOL    HW249648   2.858   2.286   7.355
12674SOL     OW49649   2.488   3.685   2.619
12674SOL    HW149650   2.529   3.640   2.693
12674SOL    HW249651   2.425   3.744   2.659
12675SOL     OW49652   3.475   0.186  10.758
12675SOL    HW149653   3.469   0.181  10.853
12675SOL    HW249654   3.452   0.277  10.738
12676SOL     OW49655   0.740   3.131  10.207
12676SOL    HW149656   0.786   3.204  10.166
12676SOL    HW249657   0.729   3.067  10.137
12677SOL     OW49658   0.892   2.918  19.495
12677SOL    HW149659   0.832   2.858  19.539
12677SOL    HW249660   0.978   2.900  19.534
12678SOL     OW49661   2.030   2.855   3.703
12678SOL    HW149662   1.943   2.816   3.700
12678SOL    HW249663   2.016   2.947   3.681
12679SOL     OW49664   0.441   1.323  21.299
12679SOL    HW149665   0.378   1.340  21.229
12679SOL    HW249666   0.435   1.229  21.314
12680SOL     OW49667   0.340   0.727   2.980
12680SOL    HW149668   0.260   0.757   2.938
12680SOL    HW249669   0.345   0.778   3.061
12681SOL     OW49670   0.478   1.493  27.353
12681SOL    HW149671   0.563   1.450  27.366
12681SOL    HW249672   0.494   1.585  27.376
12682SOL     OW49673   3.337   4.528  22.038
12682SOL    HW149674   3.257   4.573  22.011
12682SOL    HW249675   3.308   4.468  22.107
12683SOL     OW49676   1.674   0.192  21.841
12683SOL    HW149677   1.604   0.235  21.889
12683SOL    HW249678   1.677   0.103  21.876
12684SOL     OW49679   3.336   2.951  19.926
12684SOL    HW149680   3.377   2.894  19.861
12684SOL    HW249681   3.281   3.010  19.875
12685SOL     OW49682   0.925   3.301  11.173
12685SOL    HW149683   0.932   3.273  11.264
12685SOL    HW249684   0.842   3.348  11.169
12686SOL     OW49685   4.171   2.105   5.402
12686SOL    HW149686   4.204   2.017   5.383
12686SOL    HW249687   4.086   2.108   5.357
12687SOL     OW49688   0.526   2.913  10.721
12687SOL    HW149689   0.572   2.924  10.638
12687SOL    HW249690   0.448   2.968  10.713
12688SOL     OW49691   4.325   3.534  21.742
12688SOL    HW149692   4.322   3.503  21.833
12688SOL    HW249693   4.396   3.599  21.742
12689SOL     OW49694   0.157   0.792  20.514
12689SOL    HW149695   0.196   0.842  20.442
12689SOL    HW249696   0.150   0.855  20.586
12690SOL     OW49697   2.351   2.397   0.405
12690SOL    HW149698   2.383   2.485   0.387
12690SOL    HW249699   2.260   2.410   0.432
12691SOL     OW49700   1.900   4.449  23.059
12691SOL    HW149701   1.904   4.480  22.969
12691SOL    HW249702   1.976   4.392  23.069
12692SOL     OW49703   4.454   0.300  10.725
12692SOL    HW149704   4.404   0.275  10.647
12692SOL    HW249705   4.528   0.239  10.726
12693SOL     OW49706   0.568   3.992  20.867
12693SOL    HW149707   0.660   3.979  20.889
12693SOL    HW249708   0.523   3.992  20.951
12694SOL     OW49709   0.950   2.852   7.775
12694SOL    HW149710   0.859   2.863   7.801
12694SOL    HW249711   0.953   2.879   7.683
12695SOL     OW49712   0.068   0.110   6.780
12695SOL    HW149713   0.013   0.176   6.823
12695SOL    HW249714   0.006   0.043   6.751
12696SOL     OW49715   3.376   2.175  10.847
12696SOL    HW149716   3.442   2.121  10.804
12696SOL    HW249717   3.406   2.183  10.938
12697SOL     OW49718   4.002   1.076   8.145
12697SOL    HW149719   3.976   1.142   8.081
12697SOL    HW249720   4.094   1.094   8.162
12698SOL     OW49721   2.686   1.170  23.895
12698SOL    HW149722   2.683   1.098  23.832
12698SOL    HW249723   2.763   1.221  23.869
12699SOL     OW49724   0.176   2.733   1.928
12699SOL    HW149725   0.121   2.680   1.986
12699SOL    HW249726   0.209   2.803   1.984
12700SOL     OW49727   1.583   3.487  18.767
12700SOL    HW149728   1.574   3.515  18.858
12700SOL    HW249729   1.673   3.456  18.761
12701SOL     OW49730   3.459   0.570   1.709
12701SOL    HW149731   3.419   0.590   1.794
12701SOL    HW249732   3.457   0.653   1.661
12702SOL     OW49733   3.277   3.533  21.107
12702SOL    HW149734   3.321   3.452  21.132
12702SOL    HW249735   3.194   3.530  21.155
12703SOL     OW49736   3.484   0.109  26.243
12703SOL    HW149737   3.524   0.083  26.160
12703SOL    HW249738   3.418   0.042  26.259
12704SOL     OW49739   4.445   1.684   5.304
12704SOL    HW149740   4.492   1.655   5.226
12704SOL    HW249741   4.426   1.604   5.352
12705SOL     OW49742   1.154   2.481   5.536
12705SOL    HW149743   1.128   2.549   5.598
12705SOL    HW249744   1.232   2.516   5.494
12706SOL     OW49745   3.251   1.773   2.988
12706SOL    HW149746   3.247   1.805   2.898
12706SOL    HW249747   3.344   1.753   3.002
12707SOL     OW49748   2.970   0.018  26.200
12707SOL    HW149749   2.916   4.722  26.221
12707SOL    HW249750   3.047   4.762  26.156
12708SOL     OW49751   0.938   2.532  24.174
12708SOL    HW149752   0.998   2.469  24.214
12708SOL    HW249753   0.867   2.540  24.237
12709SOL     OW49754   3.775   1.534   5.020
12709SOL    HW149755   3.687   1.521   4.984
12709SOL    HW249756   3.824   1.457   4.992
12710SOL     OW49757   1.421   2.809   4.053
12710SOL    HW149758   1.498   2.862   4.032
12710SOL    HW249759   1.405   2.824   4.146
12711SOL     OW49760   2.355   1.556  21.113
12711SOL    HW149761   2.430   1.497  21.122
12711SOL    HW249762   2.279   1.498  21.117
12712SOL     OW49763   0.447   2.352  12.987
12712SOL    HW149764   0.494   2.290  13.042
12712SOL    HW249765   0.516   2.398  12.939
12713SOL     OW49766   2.766   1.261   0.941
12713SOL    HW149767   2.761   1.172   0.905
12713SOL    HW249768   2.801   1.314   0.869
12714SOL     OW49769   3.315   2.273   3.896
12714SOL    HW149770   3.355   2.350   3.857
12714SOL    HW249771   3.301   2.213   3.823
12715SOL     OW49772   3.361   0.429  24.768
12715SOL    HW149773   3.449   0.434  24.730
12715SOL    HW249774   3.316   0.507  24.734
12716SOL     OW49775   1.637   2.402   7.658
12716SOL    HW149776   1.694   2.457   7.712
12716SOL    HW249777   1.603   2.461   7.591
12717SOL     OW49778   2.483   2.604   3.001
12717SOL    HW149779   2.471   2.626   3.093
12717SOL    HW249780   2.485   2.689   2.957
12718SOL     OW49781   3.889   0.814  24.556
12718SOL    HW149782   3.914   0.905  24.568
12718SOL    HW249783   3.949   0.765  24.612
12719SOL     OW49784   3.649   1.532  22.253
12719SOL    HW149785   3.672   1.523  22.161
12719SOL    HW249786   3.553   1.539  22.253
12720SOL     OW49787   3.923   3.762  24.782
12720SOL    HW149788   3.991   3.704  24.816
12720SOL    HW249789   3.939   3.846  24.825
12721SOL     OW49790   4.092   2.156   7.966
12721SOL    HW149791   4.176   2.157   8.012
12721SOL    HW249792   4.044   2.083   8.005
12722SOL     OW49793   4.668   1.936   6.040
12722SOL    HW149794   4.655   1.882   5.962
12722SOL    HW249795   4.587   1.986   6.049
12723SOL     OW49796   2.093   2.474  22.735
12723SOL    HW149797   2.055   2.494  22.821
12723SOL    HW249798   2.184   2.502  22.743
12724SOL     OW49799   1.102   1.544  23.152
12724SOL    HW149800   1.108   1.454  23.120
12724SOL    HW249801   1.075   1.536  23.243
12725SOL     OW49802   2.221   4.373   0.671
12725SOL    HW149803   2.232   4.368   0.766
12725SOL    HW249804   2.310   4.384   0.637
12726SOL     OW49805   3.906   1.427   5.470
12726SOL    HW149806   3.823   1.428   5.422
12726SOL    HW249807   3.896   1.357   5.534
12727SOL     OW49808   1.207   0.649  21.925
12727SOL    HW149809   1.215   0.561  21.888
12727SOL    HW249810   1.232   0.708  21.854
12728SOL     OW49811   2.712   2.085   5.660
12728SOL    HW149812   2.757   2.143   5.721
12728SOL    HW249813   2.694   2.006   5.711
12729SOL     OW49814   3.151   0.296  22.171
12729SOL    HW149815   3.072   0.348  22.154
12729SOL    HW249816   3.156   0.291  22.266
12730SOL     OW49817   3.936   2.960   8.537
12730SOL    HW149818   4.010   3.010   8.502
12730SOL    HW249819   3.888   2.931   8.460
12731SOL     OW49820   0.768   3.347  27.431
12731SOL    HW149821   0.800   3.437  27.440
12731SOL    HW249822   0.673   3.356  27.429
12732SOL     OW49823   4.153   2.866  26.648
12732SOL    HW149824   4.091   2.813  26.698
12732SOL    HW249825   4.222   2.804  26.624
12733SOL     OW49826   4.570   0.888  25.674
12733SOL    HW149827   4.503   0.900  25.741
12733SOL    HW249828   4.571   0.793  25.659
12734SOL     OW49829   3.572   4.089   9.565
12734SOL    HW149830   3.577   4.004   9.609
12734SOL    HW249831   3.525   4.145   9.627
12735SOL     OW49832   2.384   3.318  20.257
12735SOL    HW149833   2.421   3.230  20.260
12735SOL    HW249834   2.305   3.313  20.311
12736SOL     OW49835   0.363   2.602  21.052
12736SOL    HW149836   0.362   2.698  21.050
12736SOL    HW249837   0.455   2.579  21.037
12737SOL     OW49838   2.257   0.198   4.219
12737SOL    HW149839   2.225   0.130   4.160
12737SOL    HW249840   2.192   0.268   4.211
12738SOL     OW49841   1.755   3.463  24.271
12738SOL    HW149842   1.774   3.536  24.330
12738SOL    HW249843   1.728   3.392  24.329
12739SOL     OW49844   0.589   0.872  18.732
12739SOL    HW149845   0.621   0.851  18.820
12739SOL    HW249846   0.535   0.950  18.744
12740SOL     OW49847   0.801   1.964  21.936
12740SOL    HW149848   0.854   1.903  21.988
12740SOL    HW249849   0.850   1.974  21.854
12741SOL     OW49850   1.263   0.809  10.748
12741SOL    HW149851   1.183   0.857  10.724
12741SOL    HW249852   1.270   0.740  10.682
12742SOL     OW49853   4.776   0.412  25.494
12742SOL    HW149854   4.741   0.336  25.447
12742SOL    HW249855   4.761   0.486  25.435
12743SOL     OW49856   0.442   0.238   6.523
12743SOL    HW149857   0.477   0.290   6.595
12743SOL    HW249858   0.464   0.288   6.445
12744SOL     OW49859   0.111   1.550  23.632
12744SOL    HW149860   0.061   1.511  23.560
12744SOL    HW249861   0.117   1.643  23.609
12745SOL     OW49862   0.139   2.071  21.319
12745SOL    HW149863   0.218   2.020  21.302
12745SOL    HW249864   0.074   2.034  21.260
12746SOL     OW49865   2.174   2.263   6.594
12746SOL    HW149866   2.194   2.308   6.512
12746SOL    HW249867   2.260   2.245   6.632
12747SOL     OW49868   4.332   3.271   5.627
12747SOL    HW149869   4.392   3.260   5.553
12747SOL    HW249870   4.310   3.364   5.627
12748SOL     OW49871   0.276   0.639   2.608
12748SOL    HW149872   0.351   0.683   2.568
12748SOL    HW249873   0.305   0.549   2.623
12749SOL     OW49874   4.302   2.547  23.442
12749SOL    HW149875   4.350   2.627  23.463
12749SOL    HW249876   4.211   2.568  23.462
12750SOL     OW49877   1.880   0.993   7.097
12750SOL    HW149878   1.848   1.052   7.028
12750SOL    HW249879   1.829   1.018   7.175
12751SOL     OW49880   0.229   4.575   7.813
12751SOL    HW149881   0.239   4.660   7.770
12751SOL    HW249882   0.260   4.511   7.749
12752SOL     OW49883   4.680   3.037   3.942
12752SOL    HW149884   4.647   2.950   3.921
12752SOL    HW249885   4.753   3.051   3.882
12753SOL     OW49886   3.371   0.724   8.175
12753SOL    HW149887   3.440   0.657   8.172
12753SOL    HW249888   3.393   0.784   8.104
12754SOL     OW49889   3.843   2.278   8.077
12754SOL    HW149890   3.866   2.185   8.074
12754SOL    HW249891   3.859   2.304   8.168
12755SOL     OW49892   0.289   4.632   8.271
12755SOL    HW149893   0.322   4.554   8.227
12755SOL    HW249894   0.226   4.670   8.210
12756SOL     OW49895   2.549   3.637   5.872
12756SOL    HW149896   2.465   3.597   5.848
12756SOL    HW249897   2.573   3.594   5.954
12757SOL     OW49898   3.509   1.310  23.961
12757SOL    HW149899   3.424   1.311  23.917
12757SOL    HW249900   3.533   1.217  23.963
12758SOL     OW49901   1.043   2.680   5.057
12758SOL    HW149902   1.000   2.695   5.141
12758SOL    HW249903   1.043   2.766   5.015
12759SOL     OW49904   0.472   3.615  24.446
12759SOL    HW149905   0.394   3.617  24.391
12759SOL    HW249906   0.444   3.571  24.526
12760SOL     OW49907   4.224   2.548   7.953
12760SOL    HW149908   4.252   2.515   8.038
12760SOL    HW249909   4.261   2.636   7.948
12761SOL     OW49910   1.951   0.731  27.887
12761SOL    HW149911   1.881   0.770  27.835
12761SOL    HW249912   2.014   0.700  27.822
12762SOL     OW49913   4.165   2.349  24.479
12762SOL    HW149914   4.174   2.256  24.458
12762SOL    HW249915   4.105   2.351  24.553
12763SOL     OW49916   0.204   1.731   9.250
12763SOL    HW149917   0.214   1.638   9.228
12763SOL    HW249918   0.210   1.776   9.166
12764SOL     OW49919   0.763   0.649  23.637
12764SOL    HW149920   0.846   0.697  23.633
12764SOL    HW249921   0.747   0.635  23.730
12765SOL     OW49922   2.385   1.999  10.812
12765SOL    HW149923   2.393   2.073  10.752
12765SOL    HW249924   2.428   1.927  10.766
12766SOL     OW49925   3.767   3.924  25.345
12766SOL    HW149926   3.679   3.906  25.312
12766SOL    HW249927   3.763   3.900  25.438
12767SOL     OW49928   2.470   4.650  20.397
12767SOL    HW149929   2.508   4.619  20.479
12767SOL    HW249930   2.403   4.585  20.376
12768SOL     OW49931   2.732   1.974   6.918
12768SOL    HW149932   2.651   1.933   6.887
12768SOL    HW249933   2.787   1.901   6.945
12769SOL     OW49934   2.007   4.691  20.318
12769SOL    HW149935   1.971   4.732  20.239
12769SOL    HW249936   1.978   4.600  20.313
12770SOL     OW49937   2.886   1.554   4.222
12770SOL    HW149938   2.955   1.619   4.236
12770SOL    HW249939   2.820   1.600   4.171
12771SOL     OW49940   1.010   1.016   1.477
12771SOL    HW149941   0.986   0.943   1.420
12771SOL    HW249942   1.071   0.978   1.540
12772SOL     OW49943   1.332   1.422   4.166
12772SOL    HW149944   1.343   1.329   4.186
12772SOL    HW249945   1.377   1.468   4.237
12773SOL     OW49946   0.348   0.050   3.590
12773SOL    HW149947   0.325   0.082   3.503
12773SOL    HW249948   0.394   4.748   3.574
12774SOL     OW49949   0.125   4.688   4.796
12774SOL    HW149950   0.157   4.676   4.886
12774SOL    HW249951   0.064   4.761   4.802
12775SOL     OW49952   0.045   3.306   7.984
12775SOL    HW149953   0.065   3.351   7.902
12775SOL    HW249954   0.130   3.295   8.027
12776SOL     OW49955   0.773   3.774  26.934
12776SOL    HW149956   0.783   3.836  26.862
12776SOL    HW249957   0.707   3.813  26.991
12777SOL     OW49958   3.900   3.832   9.240
12777SOL    HW149959   3.805   3.824   9.246
12777SOL    HW249960   3.915   3.921   9.208
12778SOL     OW49961   2.082   4.293   9.250
12778SOL    HW149962   2.115   4.368   9.300
12778SOL    HW249963   2.117   4.306   9.162
12779SOL     OW49964   2.416   2.119  20.735
12779SOL    HW149965   2.385   2.125  20.825
12779SOL    HW249966   2.470   2.040  20.734
12780SOL     OW49967   2.479   0.482   1.047
12780SOL    HW149968   2.530   0.449   1.121
12780SOL    HW249969   2.388   0.477   1.076
12781SOL     OW49970   2.212   0.169  25.688
12781SOL    HW149971   2.184   0.080  25.666
12781SOL    HW249972   2.146   0.200  25.750
12782SOL     OW49973   1.336   3.458  18.666
12782SOL    HW149974   1.423   3.433  18.698
12782SOL    HW249975   1.306   3.525  18.727
12783SOL     OW49976   0.140   0.287   8.606
12783SOL    HW149977   0.190   0.246   8.677
12783SOL    HW249978   0.114   0.214   8.550
12784SOL     OW49979   2.633   1.624  10.511
12784SOL    HW149980   2.716   1.588  10.542
12784SOL    HW249981   2.585   1.548  10.479
12785SOL     OW49982   4.376   4.455   8.215
12785SOL    HW149983   4.395   4.530   8.272
12785SOL    HW249984   4.461   4.431   8.178
12786SOL     OW49985   2.863   1.149  21.235
12786SOL    HW149986   2.845   1.102  21.154
12786SOL    HW249987   2.785   1.134  21.289
12787SOL     OW49988   1.896   1.152   8.826
12787SOL    HW149989   1.861   1.237   8.799
12787SOL    HW249990   1.827   1.115   8.881
12788SOL     OW49991   4.406   4.285  21.849
12788SOL    HW149992   4.425   4.214  21.911
12788SOL    HW249993   4.390   4.361  21.904
12789SOL     OW49994   2.458   4.014  21.032
12789SOL    HW149995   2.469   4.073  20.957
12789SOL    HW249996   2.504   4.057  21.104
12790SOL     OW49997   1.709   2.205   9.364
12790SOL    HW149998   1.620   2.225   9.392
12790SOL    HW249999   1.745   2.289   9.336
12791SOL     OW50000   0.502   3.052   5.731
12791SOL    HW150001   0.461   2.982   5.782
12791SOL    HW250002   0.544   3.006   5.658
12792SOL     OW50003   4.778   1.328   1.605
12792SOL    HW150004   4.740   1.372   1.529
12792SOL    HW250005   4.733   1.366   1.680
12793SOL     OW50006   4.386   0.026   8.205
12793SOL    HW150007   4.312   4.772   8.155
12793SOL    HW250008   4.413   4.733   8.261
12794SOL     OW50009   2.252   3.005  20.742
12794SOL    HW150010   2.264   3.064  20.816
12794SOL    HW250011   2.267   2.918  20.778
12795SOL     OW50012   1.043   1.336  19.668
12795SOL    HW150013   1.024   1.426  19.641
12795SOL    HW250014   1.021   1.282  19.592
12796SOL     OW50015   4.041   3.455   1.508
12796SOL    HW150016   4.110   3.413   1.456
12796SOL    HW250017   3.976   3.386   1.522
12797SOL     OW50018   0.017   3.062   3.007
12797SOL    HW150019   0.035   3.074   3.100
12797SOL    HW250020   4.707   3.031   3.004
12798SOL     OW50021   0.015   2.278   8.943
12798SOL    HW150022   0.035   2.215   9.013
12798SOL    HW250023   0.066   2.356   8.966
12799SOL     OW50024   0.422   0.955   3.532
12799SOL    HW150025   0.421   1.044   3.567
12799SOL    HW250026   0.335   0.943   3.494
12800SOL     OW50027   4.391   1.599   8.840
12800SOL    HW150028   4.392   1.589   8.935
12800SOL    HW250029   4.372   1.692   8.826
12801SOL     OW50030   0.380   3.929  24.163
12801SOL    HW150031   0.467   3.957  24.191
12801SOL    HW250032   0.361   3.982  24.086
12802SOL     OW50033   0.633   1.236  28.147
12802SOL    HW150034   0.638   1.260  28.054
12802SOL    HW250035   0.539   1.230  28.165
12803SOL     OW50036   0.058   1.582   6.990
12803SOL    HW150037   4.763   1.543   7.033
12803SOL    HW250038   0.133   1.554   7.042
12804SOL     OW50039   1.703   3.270   3.012
12804SOL    HW150040   1.683   3.269   2.918
12804SOL    HW250041   1.619   3.254   3.055
12805SOL     OW50042   2.150   1.474  20.930
12805SOL    HW150043   2.070   1.490  20.879
12805SOL    HW250044   2.197   1.407  20.880
12806SOL     OW50045   3.534   4.136  20.329
12806SOL    HW150046   3.610   4.173  20.283
12806SOL    HW250047   3.546   4.041  20.324
12807SOL     OW50048   0.428   0.860   7.437
12807SOL    HW150049   0.519   0.852   7.407
12807SOL    HW250050   0.391   0.929   7.382
12808SOL     OW50051   3.976   2.611   1.296
12808SOL    HW150052   3.940   2.534   1.340
12808SOL    HW250053   4.071   2.600   1.302
12809SOL     OW50054   2.996   2.463  23.247
12809SOL    HW150055   2.908   2.439  23.217
12809SOL    HW250056   2.981   2.532  23.312
12810SOL     OW50057   1.639   4.658   7.566
12810SOL    HW150058   1.717   4.654   7.621
12810SOL    HW250059   1.653   4.735   7.510
12811SOL     OW50060   1.292   0.925   4.667
12811SOL    HW150061   1.384   0.950   4.667
12811SOL    HW250062   1.291   0.836   4.703
12812SOL     OW50063   1.091   2.371  18.380
12812SOL    HW150064   1.038   2.342  18.305
12812SOL    HW250065   1.182   2.360  18.351
12813SOL     OW50066   4.283   0.944   2.633
12813SOL    HW150067   4.313   0.864   2.677
12813SOL    HW250068   4.278   1.009   2.703
12814SOL     OW50069   3.046   0.442  24.503
12814SOL    HW150070   3.129   0.405  24.472
12814SOL    HW250071   2.984   0.369  24.497
12815SOL     OW50072   2.789   4.455   2.161
12815SOL    HW150073   2.846   4.399   2.108
12815SOL    HW250074   2.704   4.412   2.157
12816SOL     OW50075   3.402   0.843  11.331
12816SOL    HW150076   3.418   0.911  11.397
12816SOL    HW250077   3.481   0.789  11.334
12817SOL     OW50078   3.728   3.034   3.351
12817SOL    HW150079   3.640   3.009   3.380
12817SOL    HW250080   3.745   3.118   3.393
12818SOL     OW50081   4.089   1.223   8.501
12818SOL    HW150082   4.176   1.261   8.493
12818SOL    HW250083   4.104   1.128   8.503
12819SOL     OW50084   1.755   4.624  21.801
12819SOL    HW150085   1.751   4.530  21.785
12819SOL    HW250086   1.777   4.632  21.894
12820SOL     OW50087   0.842   0.604  27.900
12820SOL    HW150088   0.759   0.643  27.927
12820SOL    HW250089   0.824   0.567  27.814
12821SOL     OW50090   1.482   0.648   6.738
12821SOL    HW150091   1.566   0.648   6.783
12821SOL    HW250092   1.418   0.662   6.807
12822SOL     OW50093   3.064   4.093  20.723
12822SOL    HW150094   3.046   4.162  20.787
12822SOL    HW250095   3.083   4.015  20.776
12823SOL     OW50096   2.351   3.354   5.611
12823SOL    HW150097   2.331   3.426   5.552
12823SOL    HW250098   2.377   3.397   5.693
12824SOL     OW50099   0.921   1.438  20.810
12824SOL    HW150100   0.954   1.464  20.896
12824SOL    HW250101   0.832   1.406  20.827
12825SOL     OW50102   0.098   0.074   9.017
12825SOL    HW150103   0.016   0.031   8.994
12825SOL    HW250104   0.125   0.033   9.099
12826SOL     OW50105   0.718   1.079  25.099
12826SOL    HW150106   0.764   1.149  25.145
12826SOL    HW250107   0.733   1.097  25.006
12827SOL     OW50108   3.502   1.068   5.599
12827SOL    HW150109   3.593   1.045   5.582
12827SOL    HW250110   3.459   1.060   5.514
12828SOL     OW50111   3.088   0.393   1.023
12828SOL    HW150112   3.061   0.353   0.941
12828SOL    HW250113   3.011   0.443   1.052
12829SOL     OW50114   3.519   4.466   3.467
12829SOL    HW150115   3.546   4.427   3.384
12829SOL    HW250116   3.548   4.557   3.461
12830SOL     OW50117   4.777   2.443  16.242
12830SOL    HW150118   4.771   2.363  16.295
12830SOL    HW250119   4.686   2.467  16.224
12831SOL     OW50120   2.177   1.458   6.842
12831SOL    HW150121   2.206   1.376   6.883
12831SOL    HW250122   2.143   1.510   6.915
12832SOL     OW50123   2.913   1.610   2.781
12832SOL    HW150124   2.879   1.602   2.870
12832SOL    HW250125   2.947   1.523   2.761
12833SOL     OW50126   2.734   1.085   8.597
12833SOL    HW150127   2.784   1.006   8.577
12833SOL    HW250128   2.750   1.100   8.690
12834SOL     OW50129   4.677   2.581   3.287
12834SOL    HW150130   4.727   2.555   3.210
12834SOL    HW250131   4.699   2.516   3.353
12835SOL     OW50132   1.221   4.677   7.582
12835SOL    HW150133   1.199   4.642   7.669
12835SOL    HW250134   1.285   4.615   7.547
12836SOL     OW50135   2.024   2.644  22.533
12836SOL    HW150136   2.109   2.688  22.525
12836SOL    HW250137   2.039   2.575  22.598
12837SOL     OW50138   4.349   3.777  27.247
12837SOL    HW150139   4.338   3.865  27.211
12837SOL    HW250140   4.306   3.719  27.184
12838SOL     OW50141   2.288   1.276   2.186
12838SOL    HW150142   2.374   1.315   2.199
12838SOL    HW250143   2.298   1.220   2.109
12839SOL     OW50144   1.412   2.222   8.311
12839SOL    HW150145   1.358   2.181   8.243
12839SOL    HW250146   1.489   2.166   8.318
12840SOL     OW50147   0.998   0.907  18.087
12840SOL    HW150148   1.036   0.945  18.166
12840SOL    HW250149   0.907   0.938  18.087
12841SOL     OW50150   1.494   1.541  21.034
12841SOL    HW150151   1.412   1.506  20.998
12841SOL    HW250152   1.479   1.543  21.129
12842SOL     OW50153   0.598   3.785   5.953
12842SOL    HW150154   0.554   3.803   5.870
12842SOL    HW250155   0.666   3.721   5.931
12843SOL     OW50156   1.509   3.024   3.217
12843SOL    HW150157   1.445   2.956   3.197
12843SOL    HW250158   1.463   3.106   3.198
12844SOL     OW50159   4.050   0.695   6.014
12844SOL    HW150160   3.964   0.686   5.974
12844SOL    HW250161   4.036   0.753   6.089
12845SOL     OW50162   2.842   3.627   9.596
12845SOL    HW150163   2.826   3.533   9.596
12845SOL    HW250164   2.937   3.635   9.587
12846SOL     OW50165   3.503   1.618  24.551
12846SOL    HW150166   3.433   1.553  24.544
12846SOL    HW250167   3.506   1.639  24.644
12847SOL     OW50168   3.947   4.420  23.162
12847SOL    HW150169   4.036   4.446  23.140
12847SOL    HW250170   3.957   4.333  23.202
12848SOL     OW50171   3.246   3.118   1.197
12848SOL    HW150172   3.309   3.057   1.235
12848SOL    HW250173   3.178   3.062   1.158
12849SOL     OW50174   0.396   2.964  24.000
12849SOL    HW150175   0.418   2.907  23.926
12849SOL    HW250176   0.453   3.040  23.988
12850SOL     OW50177   0.013   0.094   8.329
12850SOL    HW150178   4.726   0.157   8.305
12850SOL    HW250179   0.093   0.127   8.288
12851SOL     OW50180   2.027   0.291  12.170
12851SOL    HW150181   2.048   0.204  12.136
12851SOL    HW250182   2.081   0.300  12.248
12852SOL     OW50183   1.405   2.907  23.850
12852SOL    HW150184   1.411   2.918  23.945
12852SOL    HW250185   1.346   2.832  23.838
12853SOL     OW50186   0.075   3.979   6.502
12853SOL    HW150187   0.153   4.031   6.482
12853SOL    HW250188   0.104   3.918   6.570
12854SOL     OW50189   2.353   2.495  22.438
12854SOL    HW150190   2.368   2.438  22.513
12854SOL    HW250191   2.373   2.583  22.470
12855SOL     OW50192   2.204   3.684   7.445
12855SOL    HW150193   2.273   3.680   7.511
12855SOL    HW250194   2.182   3.592   7.428
12856SOL     OW50195   0.770   1.635  22.225
12856SOL    HW150196   0.813   1.573  22.166
12856SOL    HW250197   0.777   1.595  22.312
12857SOL     OW50198   4.405   2.434   4.934
12857SOL    HW150199   4.338   2.370   4.913
12857SOL    HW250200   4.415   2.428   5.029
12858SOL     OW50201   3.193   2.448   5.955
12858SOL    HW150202   3.189   2.476   6.046
12858SOL    HW250203   3.154   2.520   5.906
12859SOL     OW50204   1.176   3.732   4.390
12859SOL    HW150205   1.108   3.687   4.340
12859SOL    HW250206   1.195   3.811   4.339
12860SOL     OW50207   1.830   3.941   2.956
12860SOL    HW150208   1.814   4.000   2.882
12860SOL    HW250209   1.880   3.869   2.918
12861SOL     OW50210   1.884   2.897  24.438
12861SOL    HW150211   1.796   2.896  24.476
12861SOL    HW250212   1.887   2.978  24.386
12862SOL     OW50213   2.741   0.287   3.837
12862SOL    HW150214   2.754   0.200   3.800
12862SOL    HW250215   2.690   0.334   3.771
12863SOL     OW50216   2.991   2.036   6.475
12863SOL    HW150217   2.936   2.004   6.547
12863SOL    HW250218   2.986   1.967   6.409
12864SOL     OW50219   4.165   0.431   4.080
12864SOL    HW150220   4.107   0.355   4.079
12864SOL    HW250221   4.253   0.394   4.077
12865SOL     OW50222   1.020   0.479   3.979
12865SOL    HW150223   0.996   0.408   3.920
12865SOL    HW250224   1.009   0.442   4.067
12866SOL     OW50225   1.954   1.302   9.462
12866SOL    HW150226   2.016   1.375   9.458
12866SOL    HW250227   1.879   1.331   9.410
12867SOL     OW50228   0.010   2.786   3.700
12867SOL    HW150229   0.095   2.810   3.736
12867SOL    HW250230   0.030   2.736   3.621
12868SOL     OW50231   3.220   4.425   2.791
12868SOL    HW150232   3.195   4.473   2.870
12868SOL    HW250233   3.142   4.374   2.769
12869SOL     OW50234   4.365   4.704  12.955
12869SOL    HW150235   4.412   4.765  13.012
12869SOL    HW250236   4.281   4.747  12.938
12870SOL     OW50237   2.276   0.002  24.480
12870SOL    HW150238   2.211   0.033  24.543
12870SOL    HW250239   2.311   4.703  24.519
12871SOL     OW50240   2.736   4.652  10.779
12871SOL    HW150241   2.649   4.614  10.790
12871SOL    HW250242   2.723   4.724  10.718
12872SOL     OW50243   4.728   2.830   0.146
12872SOL    HW150244   4.715   2.924   0.131
12872SOL    HW250245   4.653   2.788   0.105
12873SOL     OW50246   3.927   0.497  21.706
12873SOL    HW150247   3.956   0.406  21.710
12873SOL    HW250248   3.942   0.531  21.794
12874SOL     OW50249   3.964   2.120  11.078
12874SOL    HW150250   3.942   2.182  11.147
12874SOL    HW250251   4.034   2.162  11.029
12875SOL     OW50252   4.526   1.593   5.827
12875SOL    HW150253   4.591   1.526   5.807
12875SOL    HW250254   4.574   1.676   5.821
12876SOL     OW50255   1.930   0.169  24.225
12876SOL    HW150256   1.939   0.168  24.130
12876SOL    HW250257   1.991   0.102  24.255
12877SOL     OW50258   0.729   3.103   4.942
12877SOL    HW150259   0.751   3.186   4.900
12877SOL    HW250260   0.665   3.063   4.884
12878SOL     OW50261   2.514   4.556  26.266
12878SOL    HW150262   2.593   4.563  26.213
12878SOL    HW250263   2.507   4.463  26.288
12879SOL     OW50264   0.506   1.438  18.375
12879SOL    HW150265   0.548   1.524  18.375
12879SOL    HW250266   0.480   1.425  18.284
12880SOL     OW50267   3.618   1.286   5.704
12880SOL    HW150268   3.691   1.255   5.758
12880SOL    HW250269   3.557   1.213   5.702
12881SOL     OW50270   2.043   3.970  25.059
12881SOL    HW150271   2.109   3.962  25.128
12881SOL    HW250272   2.090   3.950  24.978
12882SOL     OW50273   1.635   1.947   7.689
12882SOL    HW150274   1.632   2.016   7.623
12882SOL    HW250275   1.580   1.979   7.760
12883SOL     OW50276   4.324   0.821   4.897
12883SOL    HW150277   4.386   0.892   4.879
12883SOL    HW250278   4.364   0.743   4.858
12884SOL     OW50279   2.254   1.003   9.101
12884SOL    HW150280   2.230   0.944   9.029
12884SOL    HW250281   2.344   0.978   9.124
12885SOL     OW50282   2.053   0.906   2.051
12885SOL    HW150283   2.140   0.872   2.072
12885SOL    HW250284   2.068   0.966   1.978
12886SOL     OW50285   1.034   0.972  24.546
12886SOL    HW150286   0.982   1.002  24.620
12886SOL    HW250287   0.979   0.906  24.503
12887SOL     OW50288   4.419   0.842   9.699
12887SOL    HW150289   4.351   0.803   9.755
12887SOL    HW250290   4.443   0.923   9.744
12888SOL     OW50291   1.104   1.007   0.636
12888SOL    HW150292   1.046   0.987   0.709
12888SOL    HW250293   1.096   1.102   0.624
12889SOL     OW50294   3.077   2.933  22.785
12889SOL    HW150295   3.063   3.024  22.758
12889SOL    HW250296   3.030   2.925  22.868
12890SOL     OW50297   0.715   2.823  26.698
12890SOL    HW150298   0.674   2.801  26.614
12890SOL    HW250299   0.652   2.881  26.741
12891SOL     OW50300   1.406   1.630  25.054
12891SOL    HW150301   1.407   1.622  24.959
12891SOL    HW250302   1.397   1.540  25.085
12892SOL     OW50303   3.132   2.093  27.621
12892SOL    HW150304   3.108   2.157  27.554
12892SOL    HW250305   3.048   2.056  27.650
12893SOL     OW50306   2.827   1.598  23.232
12893SOL    HW150307   2.816   1.687  23.266
12893SOL    HW250308   2.913   1.599  23.190
12894SOL     OW50309   3.572   3.851  16.958
12894SOL    HW150310   3.591   3.943  16.975
12894SOL    HW250311   3.579   3.809  17.044
12895SOL     OW50312   0.298   2.376   4.439
12895SOL    HW150313   0.387   2.407   4.421
12895SOL    HW250314   0.302   2.341   4.528
12896SOL     OW50315   2.585   3.149  21.963
12896SOL    HW150316   2.503   3.182  22.000
12896SOL    HW250317   2.580   3.172  21.870
12897SOL     OW50318   1.736   2.406  28.016
12897SOL    HW150319   1.726   2.501  28.011
12897SOL    HW250320   1.795   2.392  28.090
12898SOL     OW50321   4.409   2.800   2.698
12898SOL    HW150322   4.472   2.872   2.696
12898SOL    HW250323   4.334   2.834   2.746
12899SOL     OW50324   1.496   2.238   5.824
12899SOL    HW150325   1.438   2.256   5.750
12899SOL    HW250326   1.498   2.320   5.873
12900SOL     OW50327   4.325   3.871   3.889
12900SOL    HW150328   4.355   3.856   3.979
12900SOL    HW250329   4.405   3.865   3.836
12901SOL     OW50330   3.210   1.929   0.748
12901SOL    HW150331   3.154   1.943   0.825
12901SOL    HW250332   3.283   1.876   0.781
12902SOL     OW50333   1.450   2.557  25.257
12902SOL    HW150334   1.481   2.467  25.245
12902SOL    HW250335   1.399   2.575  25.178
12903SOL     OW50336   3.122   3.719  19.695
12903SOL    HW150337   3.057   3.698  19.762
12903SOL    HW250338   3.157   3.804  19.721
12904SOL     OW50339   1.355   3.236   8.701
12904SOL    HW150340   1.432   3.263   8.750
12904SOL    HW250341   1.282   3.247   8.763
12905SOL     OW50342   3.304   4.204  24.801
12905SOL    HW150343   3.371   4.154  24.755
12905SOL    HW250344   3.234   4.215  24.737
12906SOL     OW50345   1.158   2.786   2.003
12906SOL    HW150346   1.141   2.700   1.964
12906SOL    HW250347   1.103   2.846   1.953
12907SOL     OW50348   1.314   0.580  23.702
12907SOL    HW150349   1.347   0.576  23.612
12907SOL    HW250350   1.231   0.533  23.700
12908SOL     OW50351   2.447   0.541  10.785
12908SOL    HW150352   2.420   0.633  10.786
12908SOL    HW250353   2.433   0.510  10.875
12909SOL     OW50354   0.972   0.278  22.743
12909SOL    HW150355   0.880   0.253  22.749
12909SOL    HW250356   1.018   0.195  22.732
12910SOL     OW50357   0.844   2.628   4.474
12910SOL    HW150358   0.848   2.639   4.379
12910SOL    HW250359   0.932   2.650   4.504
12911SOL     OW50360   1.165   4.560  28.403
12911SOL    HW150361   1.192   4.628  28.341
12911SOL    HW250362   1.231   4.563  28.472
12912SOL     OW50363   1.253   4.235  22.296
12912SOL    HW150364   1.195   4.186  22.238
12912SOL    HW250365   1.330   4.253  22.243
12913SOL     OW50366   0.787   3.796  11.506
12913SOL    HW150367   0.774   3.701  11.502
12913SOL    HW250368   0.742   3.824  11.586
12914SOL     OW50369   1.052   2.350  26.540
12914SOL    HW150370   0.989   2.314  26.478
12914SOL    HW250371   1.012   2.431  26.570
12915SOL     OW50372   2.293   3.411  21.846
12915SOL    HW150373   2.201   3.419  21.819
12915SOL    HW250374   2.295   3.446  21.935
12916SOL     OW50375   1.827   0.128   6.750
12916SOL    HW150376   1.900   0.069   6.769
12916SOL    HW250377   1.868   0.207   6.714
12917SOL     OW50378   3.031   0.744   1.991
12917SOL    HW150379   3.043   0.664   1.940
12917SOL    HW250380   3.120   0.770   2.015
12918SOL     OW50381   2.455   3.428  28.169
12918SOL    HW150382   2.544   3.459  28.152
12918SOL    HW250383   2.465   3.335  28.190
12919SOL     OW50384   1.876   4.137  22.732
12919SOL    HW150385   1.923   4.056  22.752
12919SOL    HW250386   1.829   4.158  22.813
12920SOL     OW50387   1.009   0.004   0.800
12920SOL    HW150388   0.995   4.723   0.728
12920SOL    HW250389   0.935   4.771   0.859
12921SOL     OW50390   4.080   0.682  18.662
12921SOL    HW150391   4.043   0.611  18.609
12921SOL    HW250392   4.081   0.648  18.751
12922SOL     OW50393   3.473   2.223  27.700
12922SOL    HW150394   3.414   2.181  27.637
12922SOL    HW250395   3.416   2.280  27.752
12923SOL     OW50396   0.605   2.533  25.762
12923SOL    HW150397   0.672   2.553  25.697
12923SOL    HW250398   0.615   2.601  25.829
12924SOL     OW50399   0.435   2.010   2.750
12924SOL    HW150400   0.451   2.068   2.825
12924SOL    HW250401   0.351   2.040   2.714
12925SOL     OW50402   1.878   0.755   8.356
12925SOL    HW150403   1.847   0.683   8.410
12925SOL    HW250404   1.955   0.788   8.402
12926SOL     OW50405   2.292   4.420  20.816
12926SOL    HW150406   2.278   4.488  20.750
12926SOL    HW250407   2.277   4.464  20.899
12927SOL     OW50408   2.809   2.712   1.044
12927SOL    HW150409   2.717   2.690   1.027
12927SOL    HW250410   2.850   2.628   1.063
12928SOL     OW50411   0.139   4.355  21.177
12928SOL    HW150412   0.060   4.311  21.145
12928SOL    HW250413   0.209   4.324  21.120
12929SOL     OW50414   2.069   2.500  17.720
12929SOL    HW150415   2.076   2.508  17.815
12929SOL    HW250416   2.131   2.565  17.686
12930SOL     OW50417   2.216   3.850  21.073
12930SOL    HW150418   2.245   3.759  21.076
12930SOL    HW250419   2.296   3.901  21.062
12931SOL     OW50420   2.781   4.407   4.841
12931SOL    HW150421   2.713   4.383   4.778
12931SOL    HW250422   2.736   4.411   4.925
12932SOL     OW50423   0.221   2.518   9.223
12932SOL    HW150424   0.201   2.428   9.250
12932SOL    HW250425   0.250   2.561   9.303
12933SOL     OW50426   4.347   1.005  19.926
12933SOL    HW150427   4.297   1.062  19.868
12933SOL    HW250428   4.395   0.947  19.867
12934SOL     OW50429   1.406   2.023   5.229
12934SOL    HW150430   1.485   2.002   5.279
12934SOL    HW250431   1.356   2.081   5.286
12935SOL     OW50432   2.548   3.246   1.916
12935SOL    HW150433   2.620   3.244   1.979
12935SOL    HW250434   2.563   3.170   1.860
12936SOL     OW50435   2.567   2.274  12.150
12936SOL    HW150436   2.591   2.366  12.158
12936SOL    HW250437   2.489   2.265  12.204
12937SOL     OW50438   4.323   3.665   6.700
12937SOL    HW150439   4.400   3.721   6.705
12937SOL    HW250440   4.334   3.602   6.771
12938SOL     OW50441   0.980   1.833   2.635
12938SOL    HW150442   0.958   1.741   2.648
12938SOL    HW250443   1.026   1.858   2.715
12939SOL     OW50444   0.686   1.576   2.027
12939SOL    HW150445   0.781   1.586   2.031
12939SOL    HW250446   0.654   1.633   2.097
12940SOL     OW50447   2.557   2.657   0.978
12940SOL    HW150448   2.537   2.600   1.052
12940SOL    HW250449   2.475   2.704   0.961
12941SOL     OW50450   3.625   3.787  26.346
12941SOL    HW150451   3.672   3.849  26.402
12941SOL    HW250452   3.622   3.706  26.397
12942SOL     OW50453   4.744   1.745   6.786
12942SOL    HW150454   4.756   1.675   6.850
12942SOL    HW250455   0.028   1.812   6.810
12943SOL     OW50456   0.869   1.529   8.727
12943SOL    HW150457   0.924   1.570   8.660
12943SOL    HW250458   0.927   1.521   8.803
12944SOL     OW50459   2.737   4.315   6.809
12944SOL    HW150460   2.806   4.371   6.774
12944SOL    HW250461   2.659   4.371   6.811
12945SOL     OW50462   2.711   0.640  24.137
12945SOL    HW150463   2.678   0.562  24.092
12945SOL    HW250464   2.634   0.676  24.182
12946SOL     OW50465   1.605   1.441  28.094
12946SOL    HW150466   1.623   1.480  28.009
12946SOL    HW250467   1.689   1.444  28.140
12947SOL     OW50468   2.352   3.363   1.452
12947SOL    HW150469   2.331   3.356   1.545
12947SOL    HW250470   2.392   3.450   1.443
12948SOL     OW50471   2.709   3.489  21.352
12948SOL    HW150472   2.749   3.561  21.304
12948SOL    HW250473   2.772   3.469  21.422
12949SOL     OW50474   2.828   2.076   8.128
12949SOL    HW150475   2.743   2.069   8.085
12949SOL    HW250476   2.863   2.159   8.097
12950SOL     OW50477   3.452   1.860  19.575
12950SOL    HW150478   3.366   1.877  19.612
12950SOL    HW250479   3.434   1.816  19.492
12951SOL     OW50480   0.675   0.966  12.074
12951SOL    HW150481   0.733   0.891  12.063
12951SOL    HW250482   0.728   1.032  12.118
12952SOL     OW50483   0.100   0.799  25.517
12952SOL    HW150484   0.121   0.769  25.428
12952SOL    HW250485   0.016   0.757  25.537
12953SOL     OW50486   1.367   0.571  10.896
12953SOL    HW150487   1.368   0.477  10.878
12953SOL    HW250488   1.458   0.593  10.914
12954SOL     OW50489   1.193   2.595   1.022
12954SOL    HW150490   1.190   2.602   1.117
12954SOL    HW250491   1.282   2.622   0.999
12955SOL     OW50492   3.019   2.740   1.761
12955SOL    HW150493   3.069   2.668   1.800
12955SOL    HW250494   3.019   2.721   1.667
12956SOL     OW50495   1.034   1.955  24.569
12956SOL    HW150496   1.097   1.908  24.624
12956SOL    HW250497   1.066   2.045  24.569
12957SOL     OW50498   4.662   2.108   7.497
12957SOL    HW150499   4.749   2.124   7.461
12957SOL    HW250500   4.659   2.013   7.511
12958SOL     OW50501   0.507   1.342  12.279
12958SOL    HW150502   0.537   1.310  12.364
12958SOL    HW250503   0.562   1.419  12.261
12959SOL     OW50504   0.389   0.069   2.345
12959SOL    HW150505   0.423   0.158   2.356
12959SOL    HW250506   0.294   0.080   2.343
12960SOL     OW50507   3.914   2.273  21.184
12960SOL    HW150508   3.960   2.266  21.268
12960SOL    HW250509   3.829   2.310  21.206
12961SOL     OW50510   0.528   1.760  23.029
12961SOL    HW150511   0.490   1.805  23.105
12961SOL    HW250512   0.600   1.816  23.001
12962SOL     OW50513   3.036   4.766  19.936
12962SOL    HW150514   3.003   4.723  19.857
12962SOL    HW250515   2.977   0.059  19.950
12963SOL     OW50516   4.085   3.977  22.833
12963SOL    HW150517   4.014   3.998  22.773
12963SOL    HW250518   4.090   3.881  22.832
12964SOL     OW50519   4.230   0.893   9.500
12964SOL    HW150520   4.297   0.825   9.503
12964SOL    HW250521   4.278   0.975   9.515
12965SOL     OW50522   4.663   1.258  22.025
12965SOL    HW150523   4.608   1.289  21.953
12965SOL    HW250524   4.620   1.290  22.104
12966SOL     OW50525   1.100   0.534   8.788
12966SOL    HW150526   1.176   0.522   8.845
12966SOL    HW250527   1.043   0.594   8.836
12967SOL     OW50528   4.488   3.479   0.457
12967SOL    HW150529   4.454   3.420   0.390
12967SOL    HW250530   4.413   3.533   0.481
12968SOL     OW50531   4.370   0.541   6.817
12968SOL    HW150532   4.382   0.626   6.774
12968SOL    HW250533   4.425   0.546   6.895
12969SOL     OW50534   2.670   3.315  20.485
12969SOL    HW150535   2.629   3.251  20.427
12969SOL    HW250536   2.599   3.345  20.542
12970SOL     OW50537   2.634   0.424  24.629
12970SOL    HW150538   2.696   0.352  24.618
12970SOL    HW250539   2.684   0.493  24.673
12971SOL     OW50540   0.058   2.325   3.324
12971SOL    HW150541   0.126   2.316   3.257
12971SOL    HW250542   0.055   2.239   3.366
12972SOL     OW50543   1.365   1.801   5.551
12972SOL    HW150544   1.455   1.780   5.576
12972SOL    HW250545   1.339   1.870   5.611
12973SOL     OW50546   1.928   2.426  21.646
12973SOL    HW150547   1.995   2.375  21.691
12973SOL    HW250548   1.912   2.501  21.704
12974SOL     OW50549   4.033   2.975  24.187
12974SOL    HW150550   4.015   2.881  24.192
12974SOL    HW250551   3.999   3.002  24.101
12975SOL     OW50552   2.088   0.655  26.431
12975SOL    HW150553   2.171   0.699  26.449
12975SOL    HW250554   2.023   0.707  26.478
12976SOL     OW50555   3.547   3.734  25.752
12976SOL    HW150556   3.492   3.657  25.763
12976SOL    HW250557   3.508   3.800  25.809
12977SOL     OW50558   3.314   2.112   4.926
12977SOL    HW150559   3.358   2.072   4.851
12977SOL    HW250560   3.383   2.124   4.991
12978SOL     OW50561   4.155   3.735   3.429
12978SOL    HW150562   4.201   3.712   3.510
12978SOL    HW250563   4.219   3.786   3.379
12979SOL     OW50564   4.523   3.416  27.880
12979SOL    HW150565   4.540   3.508  27.859
12979SOL    HW250566   4.452   3.391  27.820
12980SOL     OW50567   3.401   0.746   6.375
12980SOL    HW150568   3.473   0.790   6.329
12980SOL    HW250569   3.375   0.676   6.316
12981SOL     OW50570   4.778   0.606   9.346
12981SOL    HW150571   4.729   0.650   9.415
12981SOL    HW250572   4.720   0.609   9.270
12982SOL     OW50573   0.970   1.292   3.322
12982SOL    HW150574   0.909   1.222   3.345
12982SOL    HW250575   1.027   1.253   3.256
12983SOL     OW50576   2.517   4.499   2.742
12983SOL    HW150577   2.499   4.405   2.749
12983SOL    HW250578   2.607   4.508   2.774
12984SOL     OW50579   3.285   4.052   2.813
12984SOL    HW150580   3.335   4.129   2.839
12984SOL    HW250581   3.288   3.995   2.890
12985SOL     OW50582   2.536   2.374  20.385
12985SOL    HW150583   2.442   2.381  20.368
12985SOL    HW250584   2.573   2.343  20.302
12986SOL     OW50585   0.896   1.770   0.942
12986SOL    HW150586   0.982   1.732   0.925
12986SOL    HW250587   0.915   1.853   0.985
12987SOL     OW50588   0.538   1.632  20.829
12987SOL    HW150589   0.511   1.683  20.753
12987SOL    HW250590   0.575   1.696  20.890
12988SOL     OW50591   2.210   1.544  28.378
12988SOL    HW150592   2.284   1.498  28.417
12988SOL    HW250593   2.249   1.601  28.312
12989SOL     OW50594   2.369   3.166  12.931
12989SOL    HW150595   2.334   3.251  12.958
12989SOL    HW250596   2.411   3.131  13.010
12990SOL     OW50597   1.821   2.311   5.045
12990SOL    HW150598   1.747   2.353   5.002
12990SOL    HW250599   1.870   2.270   4.974
12991SOL     OW50600   0.431   4.339   4.037
12991SOL    HW150601   0.527   4.342   4.038
12991SOL    HW250602   0.404   4.429   4.019
12992SOL     OW50603   3.152   0.709   6.585
12992SOL    HW150604   3.188   0.753   6.508
12992SOL    HW250605   3.176   0.617   6.573
12993SOL     OW50606   2.541   3.839  24.460
12993SOL    HW150607   2.559   3.752  24.495
12993SOL    HW250608   2.452   3.833  24.425
12994SOL     OW50609   0.772   4.161  28.418
12994SOL    HW150610   0.705   4.216  28.378
12994SOL    HW250611   0.838   4.223  28.449
12995SOL     OW50612   2.501   1.847   3.526
12995SOL    HW150613   2.470   1.841   3.616
12995SOL    HW250614   2.593   1.873   3.533
12996SOL     OW50615   3.582   1.994  12.385
12996SOL    HW150616   3.500   1.951  12.409
12996SOL    HW250617   3.609   2.040  12.465
12997SOL     OW50618   4.743   3.284   8.718
12997SOL    HW150619   0.052   3.318   8.723
12997SOL    HW250620   4.751   3.192   8.742
12998SOL     OW50621   4.342   3.676   7.196
12998SOL    HW150622   4.300   3.704   7.115
12998SOL    HW250623   4.431   3.651   7.170
12999SOL     OW50624   3.052   1.870   1.894
12999SOL    HW150625   3.142   1.883   1.864
12999SOL    HW250626   2.998   1.884   1.816
13000SOL     OW50627   1.027   2.363   0.757
13000SOL    HW150628   1.081   2.290   0.725
13000SOL    HW250629   0.940   2.325   0.769
13001SOL     OW50630   4.534   1.391  21.473
13001SOL    HW150631   4.491   1.400  21.558
13001SOL    HW250632   4.464   1.364  21.413
13002SOL     OW50633   2.245   1.116  26.496
13002SOL    HW150634   2.270   1.040  26.548
13002SOL    HW250635   2.175   1.084  26.439
13003SOL     OW50636   1.348   4.679  22.447
13003SOL    HW150637   1.373   4.667  22.355
13003SOL    HW250638   1.359   4.592  22.486
13004SOL     OW50639   4.519   3.905   8.699
13004SOL    HW150640   4.497   3.992   8.731
13004SOL    HW250641   4.463   3.846   8.749
13005SOL     OW50642   1.835   3.198  23.622
13005SOL    HW150643   1.829   3.167  23.712
13005SOL    HW250644   1.877   3.127  23.574
13006SOL     OW50645   1.608   0.723   4.596
13006SOL    HW150646   1.650   0.763   4.519
13006SOL    HW250647   1.666   0.650   4.619
13007SOL     OW50648   4.250   2.922  21.243
13007SOL    HW150649   4.211   2.904  21.158
13007SOL    HW250650   4.342   2.941  21.224
13008SOL     OW50651   1.121   1.673  12.772
13008SOL    HW150652   1.156   1.703  12.856
13008SOL    HW250653   1.030   1.704  12.771
13009SOL     OW50654   2.551   1.962   6.532
13009SOL    HW150655   2.603   1.887   6.503
13009SOL    HW250656   2.614   2.018   6.578
13010SOL     OW50657   1.877   2.807   2.837
13010SOL    HW150658   1.912   2.775   2.920
13010SOL    HW250659   1.846   2.895   2.857
13011SOL     OW50660   3.525   4.623  16.933
13011SOL    HW150661   3.525   4.651  17.025
13011SOL    HW250662   3.586   4.682  16.890
13012SOL     OW50663   0.721   3.425   2.419
13012SOL    HW150664   0.778   3.479   2.365
13012SOL    HW250665   0.711   3.343   2.370
13013SOL     OW50666   4.205   0.568   5.507
13013SOL    HW150667   4.120   0.593   5.544
13013SOL    HW250668   4.211   0.618   5.426
13014SOL     OW50669   4.196   2.321   3.299
13014SOL    HW150670   4.221   2.237   3.260
13014SOL    HW250671   4.270   2.379   3.281
13015SOL     OW50672   2.045   2.239  25.730
13015SOL    HW150673   2.132   2.257  25.764
13015SOL    HW250674   2.023   2.152  25.763
13016SOL     OW50675   1.454   0.347   9.458
13016SOL    HW150676   1.537   0.310   9.428
13016SOL    HW250677   1.439   0.422   9.400
13017SOL     OW50678   2.923   0.452   1.720
13017SOL    HW150679   2.938   0.425   1.629
13017SOL    HW250680   2.893   0.543   1.714
13018SOL     OW50681   0.884   1.029   5.057
13018SOL    HW150682   0.797   1.053   5.088
13018SOL    HW250683   0.910   1.102   5.001
13019SOL     OW50684   0.064   2.661   6.205
13019SOL    HW150685   0.052   2.712   6.285
13019SOL    HW250686   0.012   2.582   6.219
13020SOL     OW50687   0.230   2.776  11.382
13020SOL    HW150688   0.321   2.778  11.412
13020SOL    HW250689   0.218   2.687  11.350
13021SOL     OW50690   1.322   3.984  13.806
13021SOL    HW150691   1.283   4.041  13.872
13021SOL    HW250692   1.337   4.042  13.731
13022SOL     OW50693   3.897   2.574  11.632
13022SOL    HW150694   3.819   2.600  11.681
13022SOL    HW250695   3.924   2.653  11.585
13023SOL     OW50696   2.415   0.584  13.377
13023SOL    HW150697   2.342   0.547  13.426
13023SOL    HW250698   2.382   0.667  13.342
13024SOL     OW50699   3.478   2.523  13.290
13024SOL    HW150700   3.458   2.493  13.379
13024SOL    HW250701   3.415   2.593  13.273
13025SOL     OW50702   0.895   2.715  13.461
13025SOL    HW150703   0.808   2.714  13.500
13025SOL    HW250704   0.955   2.718  13.536
13026SOL     OW50705   3.368   2.794  11.181
13026SOL    HW150706   3.362   2.847  11.260
13026SOL    HW250707   3.459   2.804  11.152
13027SOL     OW50708   4.472   2.195  12.986
13027SOL    HW150709   4.522   2.222  12.909
13027SOL    HW250710   4.499   2.255  13.055
13028SOL     OW50711   0.515   1.971  11.630
13028SOL    HW150712   0.534   2.060  11.660
13028SOL    HW250713   0.480   1.982  11.541
13029SOL     OW50714   1.836   2.302  11.731
13029SOL    HW150715   1.769   2.238  11.755
13029SOL    HW250716   1.866   2.274  11.645
13030SOL     OW50717   0.649   2.474  12.244
13030SOL    HW150718   0.730   2.479  12.295
13030SOL    HW250719   0.651   2.553  12.189
13031SOL     OW50720   3.100   1.675  12.007
13031SOL    HW150721   3.015   1.677  11.963
13031SOL    HW250722   3.080   1.694  12.099
13032SOL     OW50723   3.308   2.567  11.766
13032SOL    HW150724   3.273   2.489  11.810
13032SOL    HW250725   3.402   2.564  11.783
13033SOL     OW50726   4.204   1.727  12.999
13033SOL    HW150727   4.278   1.670  12.980
13033SOL    HW250728   4.242   1.815  13.004
13034SOL     OW50729   0.027   3.044  12.955
13034SOL    HW150730   0.083   3.083  12.888
13034SOL    HW250731   0.073   2.964  12.981
13035SOL     OW50732   0.226   2.520  11.311
13035SOL    HW150733   0.132   2.517  11.329
13035SOL    HW250734   0.257   2.432  11.330
13036SOL     OW50735   4.216   2.663  11.496
13036SOL    HW150736   4.127   2.697  11.509
13036SOL    HW250737   4.235   2.682  11.404
13037SOL     OW50738   3.446   2.708  12.958
13037SOL    HW150739   3.440   2.793  12.915
13037SOL    HW250740   3.388   2.651  12.907
13038SOL     OW50741   1.396   3.800  13.046
13038SOL    HW150742   1.373   3.754  13.127
13038SOL    HW250743   1.401   3.731  12.980
13039SOL     OW50744   4.727   2.071  13.138
13039SOL    HW150745   4.665   2.075  13.065
13039SOL    HW250746   4.759   2.161  13.148
13040SOL     OW50747   0.768   3.459  22.097
13040SOL    HW150748   0.724   3.458  22.182
13040SOL    HW250749   0.859   3.437  22.117
13041SOL     OW50750   2.290   1.957  11.552
13041SOL    HW150751   2.233   1.900  11.604
13041SOL    HW250752   2.377   1.946  11.591
13042SOL     OW50753   3.345   1.755   7.363
13042SOL    HW150754   3.251   1.775   7.358
13042SOL    HW250755   3.356   1.712   7.448
13043SOL     OW50756   4.172   2.555  13.081
13043SOL    HW150757   4.158   2.565  13.175
13043SOL    HW250758   4.171   2.645  13.047
13044SOL     OW50759   0.636   1.961  10.916
13044SOL    HW150760   0.599   1.877  10.890
13044SOL    HW250761   0.591   2.026  10.862
13045SOL     OW50762   4.741   1.508   1.398
13045SOL    HW150763   0.007   1.518   1.315
13045SOL    HW250764   4.649   1.526   1.377
13046SOL     OW50765   4.106   2.870  12.547
13046SOL    HW150766   4.162   2.870  12.625
13046SOL    HW250767   4.153   2.816  12.483
13047SOL     OW50768   4.506   2.994  12.282
13047SOL    HW150769   4.517   2.903  12.311
13047SOL    HW250770   4.464   2.987  12.196
13048SOL     OW50771   4.095   2.816  13.022
13048SOL    HW150772   4.060   2.898  13.056
13048SOL    HW250773   4.018   2.769  12.990
13049SOL     OW50774   0.545   2.032  12.643
13049SOL    HW150775   0.616   1.969  12.628
13049SOL    HW250776   0.486   1.987  12.704
13050SOL     OW50777   4.742   3.345  12.178
13050SOL    HW150778   0.019   3.345  12.255
13050SOL    HW250779   4.705   3.433  12.175
13051SOL     OW50780   4.421   2.903  12.039
13051SOL    HW150781   4.354   2.897  11.971
13051SOL    HW250782   4.476   2.826  12.025
13052SOL     OW50783   4.069   3.107  12.433
13052SOL    HW150784   4.083   3.169  12.505
13052SOL    HW250785   4.090   3.021  12.470
13053SOL     OW50786   1.411   2.166  12.751
13053SOL    HW150787   1.368   2.123  12.825
13053SOL    HW250788   1.412   2.099  12.682
13054SOL     OW50789   3.583   2.537  17.452
13054SOL    HW150790   3.650   2.507  17.513
13054SOL    HW250791   3.632   2.586  17.385
13055SOL     OW50792   3.334   2.354  12.725
13055SOL    HW150793   3.368   2.368  12.637
13055SOL    HW250794   3.244   2.386  12.721
13056SOL     OW50795   3.625   2.186  13.812
13056SOL    HW150796   3.694   2.157  13.753
13056SOL    HW250797   3.654   2.156  13.898
13057SOL     OW50798   1.394   0.449   9.709
13057SOL    HW150799   1.308   0.490   9.721
13057SOL    HW250800   1.399   0.429   9.616
13058SOL     OW50801   4.667   2.696  14.559
13058SOL    HW150802   4.743   2.749  14.584
13058SOL    HW250803   4.600   2.720  14.623
13059SOL     OW50804   1.754   2.348  13.809
13059SOL    HW150805   1.809   2.359  13.886
13059SOL    HW250806   1.793   2.274  13.762
13060SOL     OW50807   0.947   1.939  15.059
13060SOL    HW150808   0.939   2.033  15.074
13060SOL    HW250809   0.859   1.912  15.031
13061SOL     OW50810   0.226   2.308  12.113
13061SOL    HW150811   0.311   2.279  12.147
13061SOL    HW250812   0.176   2.332  12.191
13062SOL     OW50813   0.638   1.317  14.199
13062SOL    HW150814   0.547   1.345  14.207
13062SOL    HW250815   0.655   1.269  14.280
13063SOL     OW50816   0.032   1.680  16.029
13063SOL    HW150817   4.732   1.644  15.991
13063SOL    HW250818   0.080   1.715  15.954
13064SOL     OW50819   0.098   1.950  14.707
13064SOL    HW150820   0.027   1.887  14.694
13064SOL    HW250821   0.088   2.013  14.636
13065SOL     OW50822   4.437   1.460  14.066
13065SOL    HW150823   4.480   1.523  14.125
13065SOL    HW250824   4.478   1.376  14.086
13066SOL     OW50825   0.072   3.411  12.877
13066SOL    HW150826   0.053   3.399  12.784
13066SOL    HW250827   4.774   3.379  12.922
13067SOL     OW50828   4.590   2.590  13.535
13067SOL    HW150829   4.549   2.533  13.600
13067SOL    HW250830   4.684   2.585  13.555
13068SOL     OW50831   3.490   2.669  12.637
13068SOL    HW150832   3.405   2.701  12.667
13068SOL    HW250833   3.474   2.578  12.613
13069SOL     OW50834   4.582   2.438  14.479
13069SOL    HW150835   4.593   2.529  14.505
13069SOL    HW250836   4.604   2.388  14.558
13070SOL     OW50837   0.338   1.180  13.529
13070SOL    HW150838   0.254   1.191  13.574
13070SOL    HW250839   0.372   1.097  13.562
13071SOL     OW50840   0.559   0.059  14.891
13071SOL    HW150841   0.519   4.754  14.907
13071SOL    HW250842   0.503   0.099  14.824
13072SOL     OW50843   1.488   2.218  13.779
13072SOL    HW150844   1.521   2.182  13.862
13072SOL    HW250845   1.550   2.287  13.757
13073SOL     OW50846   0.531   2.227  11.694
13073SOL    HW150847   0.458   2.273  11.652
13073SOL    HW250848   0.535   2.264  11.782
13074SOL     OW50849   0.314   3.181  14.345
13074SOL    HW150850   0.402   3.167  14.310
13074SOL    HW250851   0.327   3.187  14.440
13075SOL     OW50852   4.133   2.479  14.126
13075SOL    HW150853   4.050   2.476  14.079
13075SOL    HW250854   4.111   2.514  14.212
13076SOL     OW50855   0.296   0.779  15.921
13076SOL    HW150856   0.273   0.737  15.838
13076SOL    HW250857   0.376   0.735  15.949
13077SOL     OW50858   4.715   0.418  14.520
13077SOL    HW150859   4.695   0.457  14.605
13077SOL    HW250860   4.682   0.482  14.457
13078SOL     OW50861   2.614   1.782  14.731
13078SOL    HW150862   2.668   1.793  14.809
13078SOL    HW250863   2.665   1.724  14.674
13079SOL     OW50864   3.626   1.977  14.334
13079SOL    HW150865   3.641   1.885  14.356
13079SOL    HW250866   3.700   2.024  14.373
13080SOL     OW50867   0.655   2.515  12.888
13080SOL    HW150868   0.684   2.603  12.910
13080SOL    HW250869   0.736   2.467  12.870
13081SOL     OW50870   4.767   3.372  12.622
13081SOL    HW150871   4.698   3.311  12.597
13081SOL    HW250872   0.048   3.370  12.549
13082SOL     OW50873   3.532   1.852  13.554
13082SOL    HW150874   3.460   1.813  13.604
13082SOL    HW250875   3.610   1.806  13.585
13083SOL     OW50876   4.458   2.154  14.522
13083SOL    HW150877   4.459   2.196  14.436
13083SOL    HW250878   4.395   2.205  14.573
13084SOL     OW50879   4.744   1.190  14.870
13084SOL    HW150880   0.030   1.123  14.854
13084SOL    HW250881   0.004   1.271  14.840
13085SOL     OW50882   3.637   1.701  14.394
13085SOL    HW150883   3.636   1.623  14.449
13085SOL    HW250884   3.589   1.676  14.315
13086SOL     OW50885   3.716   3.133  12.759
13086SOL    HW150886   3.715   3.229  12.758
13086SOL    HW250887   3.630   3.108  12.726
13087SOL     OW50888   0.261   1.818  15.104
13087SOL    HW150889   0.201   1.892  15.094
13087SOL    HW250890   0.271   1.782  15.016
13088SOL     OW50891   0.390   2.859  13.775
13088SOL    HW150892   0.417   2.787  13.832
13088SOL    HW250893   0.337   2.817  13.707
13089SOL     OW50894   0.181   2.819  13.008
13089SOL    HW150895   0.167   2.728  12.981
13089SOL    HW250896   0.259   2.816  13.064
13090SOL     OW50897   0.275   2.914  14.048
13090SOL    HW150898   0.283   2.901  13.954
13090SOL    HW250899   0.241   2.831  14.081
13091SOL     OW50900   0.389   2.189  14.484
13091SOL    HW150901   0.407   2.145  14.567
13091SOL    HW250902   0.442   2.142  14.419
13092SOL     OW50903   4.009   3.692  12.656
13092SOL    HW150904   3.973   3.637  12.726
13092SOL    HW250905   4.069   3.751  12.700
13093SOL     OW50906   4.725   1.488  12.559
13093SOL    HW150907   4.703   1.411  12.612
13093SOL    HW250908   4.667   1.557  12.591
13094SOL     OW50909   4.761   1.009  15.954
13094SOL    HW150910   0.019   1.079  15.901
13094SOL    HW250911   4.742   0.939  15.891
13095SOL     OW50912   3.230   2.318  11.863
13095SOL    HW150913   3.220   2.234  11.819
13095SOL    HW250914   3.269   2.296  11.948
13096SOL     OW50915   4.122   3.212  13.290
13096SOL    HW150916   4.185   3.247  13.353
13096SOL    HW250917   4.080   3.289  13.253
13097SOL     OW50918   3.810   2.261  14.249
13097SOL    HW150919   3.832   2.351  14.225
13097SOL    HW250920   3.719   2.250  14.221
13098SOL     OW50921   4.763   1.387  15.145
13098SOL    HW150922   0.062   1.398  15.093
13098SOL    HW250923   4.732   1.476  15.160
13099SOL     OW50924   3.974   1.893  15.082
13099SOL    HW150925   3.894   1.841  15.091
13099SOL    HW250926   3.986   1.932  15.169
13100SOL     OW50927   3.634   2.058  15.803
13100SOL    HW150928   3.567   1.991  15.818
13100SOL    HW250929   3.661   2.046  15.712
13101SOL     OW50930   4.583   2.413  16.774
13101SOL    HW150931   4.643   2.458  16.714
13101SOL    HW250932   4.637   2.390  16.850
13102SOL     OW50933   4.267   1.733  14.645
13102SOL    HW150934   4.249   1.669  14.714
13102SOL    HW250935   4.249   1.818  14.685
13103SOL     OW50936   4.065   4.188  15.266
13103SOL    HW150937   4.082   4.271  15.222
13103SOL    HW250938   4.031   4.131  15.197
13104SOL     OW50939   4.717   2.203  14.097
13104SOL    HW150940   4.633   2.184  14.055
13104SOL    HW250941   0.002   2.189  14.029
13105SOL     OW50942   4.255   2.282  14.662
13105SOL    HW150943   4.174   2.304  14.617
13105SOL    HW250944   4.228   2.264  14.752
13106SOL     OW50945   0.769   2.047  15.438
13106SOL    HW150946   0.846   2.092  15.402
13106SOL    HW250947   0.695   2.103  15.413
13107SOL     OW50948   0.620   2.338  16.575
13107SOL    HW150949   0.572   2.259  16.600
13107SOL    HW250950   0.702   2.332  16.625
13108SOL     OW50951   0.273   2.515  15.503
13108SOL    HW150952   0.196   2.481  15.458
13108SOL    HW250953   0.342   2.451  15.486
13109SOL     OW50954   0.152   1.540  16.295
13109SOL    HW150955   0.119   1.591  16.221
13109SOL    HW250956   0.170   1.453  16.259
13110SOL     OW50957   0.446   0.902  14.923
13110SOL    HW150958   0.540   0.885  14.923
13110SOL    HW250959   0.408   0.827  14.877
13111SOL     OW50960   0.891   1.498  15.340
13111SOL    HW150961   0.948   1.536  15.406
13111SOL    HW250962   0.914   1.543  15.259
13112SOL     OW50963   4.003   2.232  15.215
13112SOL    HW150964   3.948   2.171  15.263
13112SOL    HW250965   4.043   2.286  15.283
13113SOL     OW50966   3.927   2.047  14.860
13113SOL    HW150967   3.888   2.123  14.904
13113SOL    HW250968   3.959   1.992  14.931
13114SOL     OW50969   1.644   3.176  18.621
13114SOL    HW150970   1.695   3.252  18.593
13114SOL    HW250971   1.648   3.178  18.717
13115SOL     OW50972   3.905   2.488  14.960
13115SOL    HW150973   3.919   2.462  14.869
13115SOL    HW250974   3.854   2.416  14.998
13116SOL     OW50975   4.664   0.535  14.756
13116SOL    HW150976   4.687   0.465  14.816
13116SOL    HW250977   4.588   0.577  14.796
13117SOL     OW50978   3.695   1.841  15.199
13117SOL    HW150979   3.641   1.888  15.135
13117SOL    HW250980   3.642   1.765  15.224
13118SOL     OW50981   1.075   2.162  15.643
13118SOL    HW150982   1.116   2.243  15.675
13118SOL    HW250983   1.011   2.140  15.711
13119SOL     OW50984   0.638   2.784  16.498
13119SOL    HW150985   0.724   2.790  16.456
13119SOL    HW250986   0.586   2.852  16.455
13120SOL     OW50987   3.467   1.972  15.419
13120SOL    HW150988   3.433   1.884  15.434
13120SOL    HW250989   3.392   2.029  15.435
13121SOL     OW50990   1.408   3.708  16.642
13121SOL    HW150991   1.414   3.736  16.551
13121SOL    HW250992   1.365   3.622  16.637
13122SOL     OW50993   2.365   0.932  18.021
13122SOL    HW150994   2.313   0.916  18.100
13122SOL    HW250995   2.333   0.869  17.957
13123SOL     OW50996   4.581   0.621  14.373
13123SOL    HW150997   4.611   0.702  14.414
13123SOL    HW250998   4.486   0.621  14.388
13124SOL     OW50999   0.774   2.379  27.353
13124SOL    HW151000   0.831   2.454  27.338
13124SOL    HW251001   0.734   2.396  27.438
13125SOL     OW51002   4.106   3.091  15.340
13125SOL    HW151003   4.182   3.124  15.292
13125SOL    HW251004   4.086   3.007  15.299
13126SOL     OW51005   3.692   2.911  16.165
13126SOL    HW151006   3.619   2.879  16.112
13126SOL    HW251007   3.728   2.984  16.114
13127SOL     OW51008   4.703   1.880  14.454
13127SOL    HW151009   4.625   1.927  14.424
13127SOL    HW251010   4.777   1.932  14.422
13128SOL     OW51011   0.371   2.733  15.617
13128SOL    HW151012   0.348   2.643  15.593
13128SOL    HW251013   0.346   2.785  15.541
13129SOL     OW51014   4.565   3.588  15.030
13129SOL    HW151015   4.577   3.584  14.935
13129SOL    HW251016   4.654   3.586  15.065
13130SOL     OW51017   3.923   3.219  15.166
13130SOL    HW151018   3.854   3.162  15.133
13130SOL    HW251019   3.945   3.184  15.252
13131SOL     OW51020   3.722   1.995  15.556
13131SOL    HW151021   3.637   2.001  15.512
13131SOL    HW251022   3.751   1.906  15.538
13132SOL     OW51023   0.395   3.081  15.231
13132SOL    HW151024   0.403   3.031  15.150
13132SOL    HW251025   0.462   3.149  15.224
13133SOL     OW51026   3.688   3.429  16.620
13133SOL    HW151027   3.696   3.385  16.536
13133SOL    HW251028   3.774   3.468  16.634
13134SOL     OW51029   0.757   2.431  16.345
13134SOL    HW151030   0.690   2.373  16.307
13134SOL    HW251031   0.751   2.417  16.439
13135SOL     OW51032   0.101   0.622  14.321
13135SOL    HW151033   0.078   0.707  14.358
13135SOL    HW251034   0.192   0.608  14.348
13136SOL     OW51035   0.102   0.779  14.949
13136SOL    HW151036   0.142   0.745  14.869
13136SOL    HW251037   0.009   0.788  14.927
13137SOL     OW51038   0.300   0.858  15.344
13137SOL    HW151039   0.237   0.910  15.294
13137SOL    HW251040   0.264   0.769  15.344
13138SOL     OW51041   2.770   3.376  17.586
13138SOL    HW151042   2.846   3.394  17.641
13138SOL    HW251043   2.800   3.394  17.497
13139SOL     OW51044   1.613   0.767  22.997
13139SOL    HW151045   1.552   0.701  22.964
13139SOL    HW251046   1.688   0.717  23.030
13140SOL     OW51047   0.245   2.511  16.207
13140SOL    HW151048   0.264   2.601  16.182
13140SOL    HW251049   0.150   2.508  16.215
13141SOL     OW51050   3.933   1.777  16.492
13141SOL    HW151051   3.903   1.698  16.447
13141SOL    HW251052   4.016   1.798  16.450
13142SOL     OW51053   0.915   0.084  16.866
13142SOL    HW151054   0.954   0.089  16.779
13142SOL    HW251055   0.920   4.772  16.889
13143SOL     OW51056   0.972   4.108  21.563
13143SOL    HW151057   0.960   4.026  21.610
13143SOL    HW251058   0.883   4.134  21.538
13144SOL     OW51059   3.749   3.309  16.385
13144SOL    HW151060   3.742   3.374  16.315
13144SOL    HW251061   3.817   3.248  16.355
13145SOL     OW51062   0.101   4.271  24.037
13145SOL    HW151063   0.122   4.330  24.109
13145SOL    HW251064   0.182   4.264  23.987
13146SOL     OW51065   4.434   1.743  15.887
13146SOL    HW151066   4.519   1.726  15.847
13146SOL    HW251067   4.447   1.824  15.937
13147SOL     OW51068   2.313   1.488  16.259
13147SOL    HW151069   2.408   1.493  16.245
13147SOL    HW251070   2.278   1.456  16.176
13148SOL     OW51071   2.848   2.419   4.866
13148SOL    HW151072   2.816   2.406   4.955
13148SOL    HW251073   2.793   2.363   4.812
13149SOL     OW51074   0.869   4.429  20.138
13149SOL    HW151075   0.862   4.483  20.217
13149SOL    HW251076   0.894   4.342  20.170
13150SOL     OW51077   0.772   4.761  28.195
13150SOL    HW151078   0.708   4.699  28.160
13150SOL    HW251079   0.848   4.753  28.137
13151SOL     OW51080   2.069   1.725  16.632
13151SOL    HW151081   2.087   1.819  16.635
13151SOL    HW251082   2.103   1.696  16.547
13152SOL     OW51083   3.575   1.426   7.647
13152SOL    HW151084   3.519   1.502   7.628
13152SOL    HW251085   3.560   1.366   7.574
13153SOL     OW51086   1.805   1.494  16.529
13153SOL    HW151087   1.710   1.481  16.524
13153SOL    HW251088   1.834   1.434  16.598
13154SOL     OW51089   4.219   1.592   4.241
13154SOL    HW151090   4.268   1.652   4.184
13154SOL    HW251091   4.158   1.547   4.182
13155SOL     OW51092   3.854   4.555  24.621
13155SOL    HW151093   3.922   4.491  24.642
13155SOL    HW251094   3.875   4.584  24.532
13156SOL     OW51095   1.571   1.244   1.678
13156SOL    HW151096   1.612   1.158   1.688
13156SOL    HW251097   1.585   1.267   1.586
13157SOL     OW51098   1.335   3.691   3.811
13157SOL    HW151099   1.372   3.779   3.807
13157SOL    HW251100   1.411   3.634   3.824
13158SOL     OW51101   4.325   0.572  18.848
13158SOL    HW151102   4.302   0.494  18.798
13158SOL    HW251103   4.338   0.640  18.782
13159SOL     OW51104   2.013   0.768  16.305
13159SOL    HW151105   2.029   0.715  16.383
13159SOL    HW251106   1.966   0.845  16.337
13160SOL     OW51107   0.199   1.792  15.832
13160SOL    HW151108   0.217   1.761  15.743
13160SOL    HW251109   0.285   1.812  15.868
13161SOL     OW51110   4.336   0.075   8.495
13161SOL    HW151111   4.396   0.001   8.486
13161SOL    HW251112   4.273   0.064   8.424
13162SOL     OW51113   1.692   1.029  26.944
13162SOL    HW151114   1.740   1.103  26.980
13162SOL    HW251115   1.691   1.044  26.849
13163SOL     OW51116   1.539   2.648   7.037
13163SOL    HW151117   1.602   2.598   6.984
13163SOL    HW251118   1.574   2.644   7.126
13164SOL     OW51119   1.774   3.601  24.750
13164SOL    HW151120   1.747   3.690  24.729
13164SOL    HW251121   1.861   3.593  24.711
13165SOL     OW51122   4.517   4.337  24.374
13165SOL    HW151123   4.438   4.390  24.385
13165SOL    HW251124   4.549   4.359  24.286
13166SOL     OW51125   3.717   2.035  25.460
13166SOL    HW151126   3.791   2.095  25.465
13166SOL    HW251127   3.734   1.982  25.382
13167SOL     OW51128   0.206   1.307  16.151
13167SOL    HW151129   0.265   1.297  16.076
13167SOL    HW251130   0.259   1.283  16.227
13168SOL     OW51131   0.770   3.808  17.388
13168SOL    HW151132   0.812   3.842  17.467
13168SOL    HW251133   0.680   3.841  17.393
13169SOL     OW51134   4.256   3.941  22.140
13169SOL    HW151135   4.175   3.896  22.117
13169SOL    HW251136   4.282   3.904  22.224
13170SOL     OW51137   1.758   1.225  15.838
13170SOL    HW151138   1.800   1.164  15.777
13170SOL    HW251139   1.692   1.270  15.786
13171SOL     OW51140   1.383   0.469   7.464
13171SOL    HW151141   1.419   0.387   7.497
13171SOL    HW251142   1.452   0.533   7.480
13172SOL     OW51143   1.356   1.312  26.417
13172SOL    HW151144   1.400   1.233  26.385
13172SOL    HW251145   1.427   1.371  26.442
13173SOL     OW51146   4.749   0.570  15.626
13173SOL    HW151147   4.716   0.608  15.544
13173SOL    HW251148   4.718   0.479  15.624
13174SOL     OW51149   4.445   2.339  16.395
13174SOL    HW151150   4.427   2.380  16.310
13174SOL    HW251151   4.515   2.277  16.377
13175SOL     OW51152   4.333   0.458  20.972
13175SOL    HW151153   4.292   0.500  20.896
13175SOL    HW251154   4.265   0.400  21.007
13176SOL     OW51155   0.274   4.555  16.242
13176SOL    HW151156   0.306   4.507  16.166
13176SOL    HW251157   0.329   4.633  16.247
13177SOL     OW51158   3.609   4.648  16.564
13177SOL    HW151159   3.629   4.701  16.641
13177SOL    HW251160   3.658   4.690  16.493
13178SOL     OW51161   3.300   1.856  26.805
13178SOL    HW151162   3.395   1.870  26.809
13178SOL    HW251163   3.287   1.805  26.725
13179SOL     OW51164   1.615   0.960  19.326
13179SOL    HW151165   1.623   0.917  19.411
13179SOL    HW251166   1.615   0.888  19.263
13180SOL     OW51167   2.193   1.822  22.358
13180SOL    HW151168   2.261   1.842  22.293
13180SOL    HW251169   2.111   1.825  22.309
13181SOL     OW51170   1.582   0.025   8.639
13181SOL    HW151171   1.528   4.728   8.622
13181SOL    HW251172   1.671   4.771   8.647
13182SOL     OW51173   0.495   0.366   1.873
13182SOL    HW151174   0.477   0.387   1.781
13182SOL    HW251175   0.413   0.330   1.906
13183SOL     OW51176   4.623   0.696  15.396
13183SOL    HW151177   4.612   0.688  15.301
13183SOL    HW251178   4.534   0.692  15.431
13184SOL     OW51179   0.307   2.202   6.720
13184SOL    HW151180   0.276   2.285   6.684
13184SOL    HW251181   0.316   2.145   6.644
13185SOL     OW51182   2.008   1.968   4.105
13185SOL    HW151183   2.034   2.010   4.023
13185SOL    HW251184   1.950   1.896   4.078
13186SOL     OW51185   1.033   3.211  21.928
13186SOL    HW151186   0.964   3.204  21.862
13186SOL    HW251187   0.991   3.252  22.003
13187SOL     OW51188   2.522   2.576  21.814
13187SOL    HW151189   2.473   2.655  21.837
13187SOL    HW251190   2.613   2.605  21.809
13188SOL     OW51191   4.412   0.561  27.381
13188SOL    HW151192   4.344   0.549  27.448
13188SOL    HW251193   4.390   0.644  27.339
13189SOL     OW51194   0.786   0.479  27.683
13189SOL    HW151195   0.842   0.418  27.635
13189SOL    HW251196   0.699   0.465  27.646
13190SOL     OW51197   1.221   1.186   8.711
13190SOL    HW151198   1.138   1.150   8.742
13190SOL    HW251199   1.262   1.223   8.789
13191SOL     OW51200   1.239   3.791  23.529
13191SOL    HW151201   1.251   3.711  23.581
13191SOL    HW251202   1.155   3.825  23.558
13192SOL     OW51203   3.510   1.306  17.417
13192SOL    HW151204   3.482   1.271  17.501
13192SOL    HW251205   3.441   1.280  17.356
13193SOL     OW51206   0.432   4.413   7.953
13193SOL    HW151207   0.379   4.347   7.909
13193SOL    HW251208   0.446   4.481   7.887
13194SOL     OW51209   3.374   3.883   9.279
13194SOL    HW151210   3.391   3.808   9.222
13194SOL    HW251211   3.340   3.951   9.220
13195SOL     OW51212   0.948   1.467   8.247
13195SOL    HW151213   0.952   1.538   8.183
13195SOL    HW251214   0.918   1.509   8.327
13196SOL     OW51215   4.355   1.786  19.365
13196SOL    HW151216   4.309   1.769  19.447
13196SOL    HW251217   4.293   1.836  19.312
13197SOL     OW51218   3.077   2.531   7.621
13197SOL    HW151219   3.014   2.539   7.692
13197SOL    HW251220   3.069   2.440   7.592
13198SOL     OW51221   2.579   1.342  18.450
13198SOL    HW151222   2.506   1.294  18.411
13198SOL    HW251223   2.598   1.412  18.388
13199SOL     OW51224   2.403   3.698  27.542
13199SOL    HW151225   2.331   3.677  27.483
13199SOL    HW251226   2.481   3.693  27.487
13200SOL     OW51227   2.186   0.569   4.736
13200SOL    HW151228   2.094   0.581   4.759
13200SOL    HW251229   2.219   0.658   4.721
13201SOL     OW51230   4.178   1.636  26.960
13201SOL    HW151231   4.148   1.605  26.875
13201SOL    HW251232   4.148   1.727  26.964
13202SOL     OW51233   3.271   4.058   7.996
13202SOL    HW151234   3.344   4.097   7.948
13202SOL    HW251235   3.216   4.133   8.021
13203SOL     OW51236   3.885   3.611  25.057
13203SOL    HW151237   3.928   3.684  25.101
13203SOL    HW251238   3.944   3.537  25.069
13204SOL     OW51239   3.682   1.622   8.273
13204SOL    HW151240   3.693   1.704   8.322
13204SOL    HW251241   3.770   1.584   8.269
13205SOL     OW51242   1.857   4.589   0.540
13205SOL    HW151243   1.762   4.584   0.547
13205SOL    HW251244   1.886   4.498   0.531
13206SOL     OW51245   2.845   4.004  17.239
13206SOL    HW151246   2.765   3.973  17.197
13206SOL    HW251247   2.852   4.096  17.212
13207SOL     OW51248   3.491   1.180  22.346
13207SOL    HW151249   3.468   1.236  22.272
13207SOL    HW251250   3.553   1.117  22.310
13208SOL     OW51251   2.940   3.248   9.798
13208SOL    HW151252   2.961   3.203   9.880
13208SOL    HW251253   3.022   3.289   9.771
13209SOL     OW51254   4.441   3.485   1.234
13209SOL    HW151255   4.452   3.406   1.182
13209SOL    HW251256   4.419   3.553   1.170
13210SOL     OW51257   4.613   2.503  28.040
13210SOL    HW151258   4.645   2.501  28.130
13210SOL    HW251259   4.520   2.523  28.048
13211SOL     OW51260   3.077   3.429  17.203
13211SOL    HW151261   3.068   3.371  17.128
13211SOL    HW251262   3.171   3.440  17.214
13212SOL     OW51263   1.716   0.808   4.354
13212SOL    HW151264   1.662   0.761   4.291
13212SOL    HW251265   1.806   0.782   4.333
13213SOL     OW51266   2.242   2.263   3.927
13213SOL    HW151267   2.241   2.357   3.943
13213SOL    HW251268   2.152   2.241   3.905
13214SOL     OW51269   2.950   1.830   7.839
13214SOL    HW151270   2.992   1.879   7.909
13214SOL    HW251271   2.898   1.895   7.792
13215SOL     OW51272   1.680   3.187   7.547
13215SOL    HW151273   1.714   3.242   7.617
13215SOL    HW251274   1.641   3.112   7.592
13216SOL     OW51275   1.616   1.251   6.600
13216SOL    HW151276   1.595   1.180   6.660
13216SOL    HW251277   1.587   1.330   6.646
13217SOL     OW51278   4.450   3.911   1.596
13217SOL    HW151279   4.358   3.892   1.578
13217SOL    HW251280   4.476   3.973   1.527
13218SOL     OW51281   2.088   4.098   1.739
13218SOL    HW151282   2.069   4.184   1.703
13218SOL    HW251283   2.156   4.114   1.805
13219SOL     OW51284   3.670   2.495  25.808
13219SOL    HW151285   3.727   2.549  25.754
13219SOL    HW251286   3.606   2.556  25.845
13220SOL     OW51287   4.753   1.412  24.072
13220SOL    HW151288   4.702   1.435  23.994
13220SOL    HW251289   4.766   1.495  24.118
13221SOL     OW51290   2.076   3.027   1.878
13221SOL    HW151291   2.097   3.118   1.855
13221SOL    HW251292   2.138   3.005   1.947
13222SOL     OW51293   4.096   2.014  27.299
13222SOL    HW151294   4.036   1.944  27.272
13222SOL    HW251295   4.181   1.970  27.308
13223SOL     OW51296   1.537   2.010  25.985
13223SOL    HW151297   1.517   2.075  25.918
13223SOL    HW251298   1.632   2.002  25.984
13224SOL     OW51299   0.808   3.730   1.583
13224SOL    HW151300   0.850   3.738   1.668
13224SOL    HW251301   0.803   3.820   1.550
13225SOL     OW51302   2.578   1.380   6.161
13225SOL    HW151303   2.599   1.407   6.072
13225SOL    HW251304   2.603   1.288   6.164
13226SOL     OW51305   1.636   4.655   4.807
13226SOL    HW151306   1.729   4.656   4.828
13226SOL    HW251307   1.594   4.696   4.883
13227SOL     OW51308   1.936   2.720   6.698
13227SOL    HW151309   1.935   2.816   6.699
13227SOL    HW251310   2.007   2.697   6.637
13228SOL     OW51311   3.072   0.551   7.853
13228SOL    HW151312   3.113   0.624   7.899
13228SOL    HW251313   2.981   0.579   7.841
13229SOL     OW51314   2.996   4.250  27.840
13229SOL    HW151315   2.994   4.346  27.840
13229SOL    HW251316   2.941   4.224  27.914
13230SOL     OW51317   4.127   2.070   1.302
13230SOL    HW151318   4.045   2.054   1.349
13230SOL    HW251319   4.177   2.126   1.360
13231SOL     OW51320   4.208   4.274   4.437
13231SOL    HW151321   4.114   4.258   4.440
13231SOL    HW251322   4.245   4.191   4.409
13232SOL     OW51323   0.038   2.058  24.803
13232SOL    HW151324   4.731   2.054  24.764
13232SOL    HW251325   0.027   2.019  24.890
13233SOL     OW51326   2.532   3.785   5.063
13233SOL    HW151327   2.512   3.771   4.970
13233SOL    HW251328   2.610   3.732   5.079
13234SOL     OW51329   4.354   0.795  22.350
13234SOL    HW151330   4.264   0.789  22.317
13234SOL    HW251331   4.407   0.814  22.272
13235SOL     OW51332   0.948   2.161   7.005
13235SOL    HW151333   0.860   2.198   7.003
13235SOL    HW251334   0.973   2.152   6.913
13236SOL     OW51335   0.780   2.128  21.024
13236SOL    HW151336   0.700   2.125  20.972
13236SOL    HW251337   0.756   2.089  21.108
13237SOL     OW51338   2.758   0.443   0.357
13237SOL    HW151339   2.795   0.402   0.435
13237SOL    HW251340   2.677   0.395   0.340
13238SOL     OW51341   3.953   0.409  21.350
13238SOL    HW151342   3.886   0.474  21.372
13238SOL    HW251343   3.939   0.338  21.412
13239SOL     OW51344   3.088   1.816   0.294
13239SOL    HW151345   3.065   1.890   0.350
13239SOL    HW251346   3.154   1.767   0.344
13240SOL     OW51347   2.334   3.029   4.713
13240SOL    HW151348   2.309   2.938   4.700
13240SOL    HW251349   2.429   3.026   4.723
13241SOL     OW51350   2.921   2.564  26.634
13241SOL    HW151351   2.972   2.547  26.555
13241SOL    HW251352   2.830   2.568  26.604
13242SOL     OW51353   0.479   4.087  23.673
13242SOL    HW151354   0.515   4.069  23.760
13242SOL    HW251355   0.551   4.129  23.626
13243SOL     OW51356   2.045   2.722  26.103
13243SOL    HW151357   1.955   2.692  26.088
13243SOL    HW251358   2.073   2.757  26.019
13244SOL     OW51359   3.431   3.717  17.473
13244SOL    HW151360   3.449   3.631  17.511
13244SOL    HW251361   3.341   3.710  17.442
13245SOL     OW51362   3.812   3.076  19.989
13245SOL    HW151363   3.719   3.067  20.009
13245SOL    HW251364   3.854   3.092  20.074
13246SOL     OW51365   1.035   3.370   7.009
13246SOL    HW151366   1.096   3.443   7.019
13246SOL    HW251367   0.956   3.409   6.972
13247SOL     OW51368   4.324   3.594   0.052
13247SOL    HW151369   4.416   3.596   0.027
13247SOL    HW251370   4.318   3.523   0.116
13248SOL     OW51371   0.901   1.695  25.118
13248SOL    HW151372   0.917   1.704  25.024
13248SOL    HW251373   0.848   1.772  25.141
13249SOL     OW51374   0.768   0.952  23.244
13249SOL    HW151375   0.775   0.993  23.330
13249SOL    HW251376   0.680   0.915  23.241
13250SOL     OW51377   1.978   0.549  21.248
13250SOL    HW151378   1.938   0.533  21.333
13250SOL    HW251379   1.947   0.478  21.192
13251SOL     OW51380   4.288   3.453  26.189
13251SOL    HW151381   4.260   3.467  26.280
13251SOL    HW251382   4.367   3.506  26.180
13252SOL     OW51383   4.341   3.841  22.373
13252SOL    HW151384   4.329   3.746  22.374
13252SOL    HW251385   4.370   3.863  22.462
13253SOL     OW51386   4.733   1.435   0.903
13253SOL    HW151387   4.732   1.485   0.985
13253SOL    HW251388   0.024   1.474   0.852
13254SOL     OW51389   1.643   2.549  22.937
13254SOL    HW151390   1.591   2.495  22.996
13254SOL    HW251391   1.599   2.634  22.938
13255SOL     OW51392   0.231   2.058  23.253
13255SOL    HW151393   0.319   2.026  23.233
13255SOL    HW251394   0.175   1.981  23.243
13256SOL     OW51395   2.173   2.582  11.279
13256SOL    HW151396   2.231   2.615  11.210
13256SOL    HW251397   2.232   2.543  11.343
13257SOL     OW51398   4.181   2.858   7.421
13257SOL    HW151399   4.128   2.858   7.501
13257SOL    HW251400   4.266   2.892   7.449
13258SOL     OW51401   3.255   1.984   3.442
13258SOL    HW151402   3.267   1.900   3.399
13258SOL    HW251403   3.180   2.024   3.398
13259SOL     OW51404   4.025   1.117  25.283
13259SOL    HW151405   3.963   1.156  25.222
13259SOL    HW251406   4.111   1.140  25.248
13260SOL     OW51407   4.264   2.148  22.710
13260SOL    HW151408   4.291   2.237  22.688
13260SOL    HW251409   4.337   2.093  22.682
13261SOL     OW51410   2.131   4.061  20.662
13261SOL    HW151411   2.082   4.023  20.735
13261SOL    HW251412   2.223   4.048  20.685
13262SOL     OW51413   1.396   2.921  26.683
13262SOL    HW151414   1.470   2.936  26.624
13262SOL    HW251415   1.433   2.930  26.771
13263SOL     OW51416   1.462   4.282   3.793
13263SOL    HW151417   1.506   4.201   3.819
13263SOL    HW251418   1.383   4.285   3.847
13264SOL     OW51419   4.615   1.844   5.784
13264SOL    HW151420   4.534   1.847   5.733
13264SOL    HW251421   4.664   1.921   5.755
13265SOL     OW51422   0.297   0.235   5.089
13265SOL    HW151423   0.363   0.265   5.027
13265SOL    HW251424   0.230   0.304   5.088
13266SOL     OW51425   1.481   1.683  26.905
13266SOL    HW151426   1.447   1.607  26.857
13266SOL    HW251427   1.566   1.654  26.938
13267SOL     OW51428   4.584   0.721  27.703
13267SOL    HW151429   4.609   0.758  27.788
13267SOL    HW251430   4.667   0.711  27.656
13268SOL     OW51431   4.230   1.275   8.933
13268SOL    HW151432   4.158   1.338   8.932
13268SOL    HW251433   4.194   1.197   8.891
13269SOL     OW51434   2.506   3.566   9.007
13269SOL    HW151435   2.497   3.476   8.977
13269SOL    HW251436   2.549   3.558   9.092
13270SOL     OW51437   0.471   3.570  21.739
13270SOL    HW151438   0.520   3.530  21.811
13270SOL    HW251439   0.488   3.513  21.664
13271SOL     OW51440   1.406   2.127   9.638
13271SOL    HW151441   1.482   2.147   9.692
13271SOL    HW251442   1.425   2.167   9.553
13272SOL     OW51443   0.485   0.226  27.732
13272SOL    HW151444   0.508   0.293  27.668
13272SOL    HW251445   0.540   0.245  27.808
13273SOL     OW51446   2.127   2.178   7.702
13273SOL    HW151447   2.143   2.147   7.791
13273SOL    HW251448   2.072   2.110   7.663
13274SOL     OW51449   1.121   2.049  20.711
13274SOL    HW151450   1.131   2.028  20.618
13274SOL    HW251451   1.054   1.989  20.743
13275SOL     OW51452   4.655   4.692   0.104
13275SOL    HW151453   4.583   4.750   0.127
13275SOL    HW251454   4.681   4.651   0.187
13276SOL     OW51455   4.361   3.860  18.872
13276SOL    HW151456   4.417   3.804  18.926
13276SOL    HW251457   4.372   3.826  18.783
13277SOL     OW51458   2.757   0.331  10.153
13277SOL    HW151459   2.686   0.279  10.191
13277SOL    HW251460   2.727   0.350  10.064
13278SOL     OW51461   3.636   4.506  24.800
13278SOL    HW151462   3.702   4.544  24.742
13278SOL    HW251463   3.559   4.495  24.745
13279SOL     OW51464   2.702   1.843  28.194
13279SOL    HW151465   2.645   1.884  28.129
13279SOL    HW251466   2.673   1.752  28.197
13280SOL     OW51467   2.825   0.654  16.435
13280SOL    HW151468   2.851   0.746  16.437
13280SOL    HW251469   2.886   0.613  16.374
13281SOL     OW51470   0.916   0.114   3.900
13281SOL    HW151471   0.879   0.073   3.978
13281SOL    HW251472   0.847   0.106   3.834
13282SOL     OW51473   0.726   2.654   1.695
13282SOL    HW151474   0.664   2.674   1.765
13282SOL    HW251475   0.735   2.736   1.647
13283SOL     OW51476   0.380   2.548  17.486
13283SOL    HW151477   0.393   2.640  17.464
13283SOL    HW251478   0.468   2.510  17.484
13284SOL     OW51479   2.557   3.850   6.202
13284SOL    HW151480   2.624   3.783   6.214
13284SOL    HW251481   2.498   3.838   6.276
13285SOL     OW51482   3.354   4.525  25.963
13285SOL    HW151483   3.420   4.472  26.007
13285SOL    HW251484   3.382   4.528  25.872
13286SOL     OW51485   4.625   4.365  16.743
13286SOL    HW151486   4.538   4.379  16.707
13286SOL    HW251487   4.678   4.437  16.709
13287SOL     OW51488   4.118   3.675  11.196
13287SOL    HW151489   4.134   3.769  11.208
13287SOL    HW251490   4.049   3.654  11.259
13288SOL     OW51491   1.010   2.403  18.638
13288SOL    HW151492   1.040   2.381  18.550
13288SOL    HW251493   1.030   2.496  18.647
13289SOL     OW51494   0.215   2.228   0.326
13289SOL    HW151495   0.127   2.249   0.358
13289SOL    HW251496   0.265   2.309   0.337
13290SOL     OW51497   0.756   3.441  23.662
13290SOL    HW151498   0.746   3.445  23.757
13290SOL    HW251499   0.675   3.400  23.631
13291SOL     OW51500   3.335   3.906  20.415
13291SOL    HW151501   3.317   3.989  20.460
13291SOL    HW251502   3.428   3.890  20.431
13292SOL     OW51503   3.978   3.315  27.943
13292SOL    HW151504   3.915   3.353  28.004
13292SOL    HW251505   4.061   3.316  27.991
13293SOL     OW51506   1.883   4.509  27.296
13293SOL    HW151507   1.867   4.535  27.387
13293SOL    HW251508   1.904   4.591  27.251
13294SOL     OW51509   3.237   4.518   0.720
13294SOL    HW151510   3.297   4.592   0.728
13294SOL    HW251511   3.172   4.532   0.789
13295SOL     OW51512   1.821   2.600  18.126
13295SOL    HW151513   1.801   2.617  18.218
13295SOL    HW251514   1.917   2.594  18.123
13296SOL     OW51515   1.108   3.731   2.139
13296SOL    HW151516   1.173   3.768   2.198
13296SOL    HW251517   1.032   3.788   2.148
13297SOL     OW51518   0.118   1.437  24.454
13297SOL    HW151519   0.187   1.495  24.422
13297SOL    HW251520   0.111   1.369  24.387
13298SOL     OW51521   3.438   4.721   8.373
13298SOL    HW151522   3.386   4.682   8.444
13298SOL    HW251523   3.387   4.703   8.294
13299SOL     OW51524   2.460   1.772   0.434
13299SOL    HW151525   2.392   1.807   0.491
13299SOL    HW251526   2.412   1.722   0.368
13300SOL     OW51527   0.312   2.601   2.947
13300SOL    HW151528   0.391   2.646   2.978
13300SOL    HW251529   0.242   2.636   3.001
13301SOL     OW51530   1.924   0.477  22.864
13301SOL    HW151531   1.977   0.420  22.920
13301SOL    HW251532   1.945   0.566  22.894
13302SOL     OW51533   3.247   4.416   6.708
13302SOL    HW151534   3.282   4.438   6.794
13302SOL    HW251535   3.209   4.329   6.719
13303SOL     OW51536   4.316   3.528  26.845
13303SOL    HW151537   4.356   3.484  26.920
13303SOL    HW251538   4.373   3.507  26.771
13304SOL     OW51539   1.968   0.966  25.339
13304SOL    HW151540   2.059   0.944  25.361
13304SOL    HW251541   1.931   1.001  25.420
13305SOL     OW51542   2.977   4.416   7.663
13305SOL    HW151543   2.967   4.462   7.746
13305SOL    HW251544   2.892   4.425   7.620
13306SOL     OW51545   0.859   2.682   2.887
13306SOL    HW151546   0.841   2.639   2.971
13306SOL    HW251547   0.785   2.657   2.832
13307SOL     OW51548   3.610   0.778  22.088
13307SOL    HW151549   3.571   0.694  22.065
13307SOL    HW251550   3.571   0.840  22.026
13308SOL     OW51551   3.759   2.636  21.516
13308SOL    HW151552   3.695   2.667  21.452
13308SOL    HW251553   3.795   2.716  21.555
13309SOL     OW51554   0.272   0.196  20.619
13309SOL    HW151555   0.256   0.172  20.528
13309SOL    HW251556   0.362   0.227  20.621
13310SOL     OW51557   3.174   3.072  24.361
13310SOL    HW151558   3.102   3.077  24.298
13310SOL    HW251559   3.243   3.026  24.314
13311SOL     OW51560   2.540   4.008   9.232
13311SOL    HW151561   2.463   3.971   9.188
13311SOL    HW251562   2.545   3.960   9.315
13312SOL     OW51563   1.656   3.686  10.222
13312SOL    HW151564   1.608   3.661  10.143
13312SOL    HW251565   1.630   3.777  10.237
13313SOL     OW51566   0.648   3.426  10.016
13313SOL    HW151567   0.735   3.412  10.054
13313SOL    HW251568   0.627   3.517  10.037
13314SOL     OW51569   4.694   1.903   8.532
13314SOL    HW151570   4.706   1.863   8.446
13314SOL    HW251571   4.757   1.975   8.534
13315SOL     OW51572   4.779   2.028   8.141
13315SOL    HW151573   0.024   2.088   8.211
13315SOL    HW251574   0.016   2.076   8.060
13316SOL     OW51575   4.025   0.804   9.674
13316SOL    HW151576   4.079   0.882   9.664
13316SOL    HW251577   4.068   0.738   9.620
13317SOL     OW51578   3.772   3.366   2.232
13317SOL    HW151579   3.785   3.276   2.263
13317SOL    HW251580   3.726   3.409   2.304
13318SOL     OW51581   0.124   2.937   6.897
13318SOL    HW151582   0.203   2.973   6.937
13318SOL    HW251583   0.095   2.869   6.958
13319SOL     OW51584   0.737   2.752  23.962
13319SOL    HW151585   0.782   2.767  23.879
13319SOL    HW251586   0.644   2.762  23.941
13320SOL     OW51587   1.417   2.607   3.856
13320SOL    HW151588   1.411   2.639   3.946
13320SOL    HW251589   1.508   2.578   3.847
13321SOL     OW51590   2.406   0.340   3.000
13321SOL    HW151591   2.406   0.300   2.913
13321SOL    HW251592   2.405   0.266   3.061
13322SOL     OW51593   0.007   0.287  22.300
13322SOL    HW151594   0.076   0.256  22.359
13322SOL    HW251595   4.714   0.306  22.358
13323SOL     OW51596   0.289   4.129  19.865
13323SOL    HW151597   0.377   4.106  19.836
13323SOL    HW251598   0.233   4.062  19.826
13324SOL     OW51599   3.645   0.588  24.338
13324SOL    HW151600   3.693   0.666  24.312
13324SOL    HW251601   3.570   0.585  24.279
13325SOL     OW51602   1.931   4.258   0.965
13325SOL    HW151603   1.999   4.255   1.032
13325SOL    HW251604   1.862   4.313   1.003
13326SOL     OW51605   2.241   0.626  20.407
13326SOL    HW151606   2.227   0.532  20.420
13326SOL    HW251607   2.335   0.634  20.394
13327SOL     OW51608   1.791   4.758  20.625
13327SOL    HW151609   1.832   4.673  20.641
13327SOL    HW251610   1.859   0.042  20.647
13328SOL     OW51611   4.116   1.875  10.641
13328SOL    HW151612   4.169   1.821  10.582
13328SOL    HW251613   4.137   1.842  10.729
13329SOL     OW51614   3.252   2.608   1.926
13329SOL    HW151615   3.342   2.579   1.939
13329SOL    HW251616   3.216   2.617   2.014
13330SOL     OW51617   4.455   1.022   0.633
13330SOL    HW151618   4.524   1.021   0.567
13330SOL    HW251619   4.474   1.099   0.686
13331SOL     OW51620   2.043   4.679   7.568
13331SOL    HW151621   2.059   4.684   7.474
13331SOL    HW251622   2.120   4.719   7.608
13332SOL     OW51623   4.195   3.633   9.451
13332SOL    HW151624   4.152   3.644   9.366
13332SOL    HW251625   4.279   3.678   9.442
13333SOL     OW51626   4.562   1.277  10.339
13333SOL    HW151627   4.472   1.246  10.329
13333SOL    HW251628   4.560   1.332  10.417
13334SOL     OW51629   0.052   0.813   0.771
13334SOL    HW151630   4.737   0.815   0.777
13334SOL    HW251631   0.075   0.724   0.797
13335SOL     OW51632   0.323   3.055  18.133
13335SOL    HW151633   0.414   3.026  18.133
13335SOL    HW251634   0.327   3.147  18.109
13336SOL     OW51635   2.077   3.586  21.346
13336SOL    HW151636   2.013   3.607  21.278
13336SOL    HW251637   2.081   3.665  21.400
13337SOL     OW51638   2.538   4.548  28.020
13337SOL    HW151639   2.582   4.608  28.080
13337SOL    HW251640   2.476   4.500  28.075
13338SOL     OW51641   1.020   0.250   9.012
13338SOL    HW151642   0.986   0.337   9.034
13338SOL    HW251643   0.948   0.190   9.032
13339SOL     OW51644   3.994   3.279   2.846
13339SOL    HW151645   4.039   3.201   2.879
13339SOL    HW251646   4.025   3.288   2.756
13340SOL     OW51647   1.769   0.501  26.541
13340SOL    HW151648   1.779   0.578  26.484
13340SOL    HW251649   1.766   0.427  26.481
13341SOL     OW51650   4.238   4.628   3.483
13341SOL    HW151651   4.326   4.663   3.467
13341SOL    HW251652   4.253   4.548   3.533
13342SOL     OW51653   1.841   0.538  19.249
13342SOL    HW151654   1.804   0.500  19.329
13342SOL    HW251655   1.926   0.572  19.276
13343SOL     OW51656   3.109   2.143  24.885
13343SOL    HW151657   3.131   2.169  24.974
13343SOL    HW251658   3.025   2.186  24.868
13344SOL     OW51659   1.501   2.315   3.721
13344SOL    HW151660   1.519   2.379   3.790
13344SOL    HW251661   1.452   2.364   3.655
13345SOL     OW51662   3.349   3.768   0.167
13345SOL    HW151663   3.391   3.853   0.177
13345SOL    HW251664   3.336   3.737   0.257
13346SOL     OW51665   0.496   4.333   9.325
13346SOL    HW151666   0.402   4.341   9.339
13346SOL    HW251667   0.523   4.264   9.385
13347SOL     OW51668   1.704   1.504   3.777
13347SOL    HW151669   1.767   1.488   3.706
13347SOL    HW251670   1.736   1.452   3.850
13348SOL     OW51671   0.228   3.941  20.613
13348SOL    HW151672   0.195   3.855  20.587
13348SOL    HW251673   0.315   3.924  20.648
13349SOL     OW51674   1.670   3.993  27.920
13349SOL    HW151675   1.590   3.962  27.963
13349SOL    HW251676   1.653   4.085  27.900
13350SOL     OW51677   1.315   4.553  19.869
13350SOL    HW151678   1.237   4.498  19.859
13350SOL    HW251679   1.335   4.582  19.780
13351SOL     OW51680   2.747   1.625  22.032
13351SOL    HW151681   2.759   1.539  21.992
13351SOL    HW251682   2.828   1.640  22.082
13352SOL     OW51683   1.280   1.301   6.902
13352SOL    HW151684   1.272   1.341   6.988
13352SOL    HW251685   1.347   1.352   6.858
13353SOL     OW51686   1.915   2.503   3.805
13353SOL    HW151687   1.987   2.536   3.752
13353SOL    HW251688   1.954   2.489   3.892
13354SOL     OW51689   3.591   3.609  23.894
13354SOL    HW151690   3.629   3.524  23.915
13354SOL    HW251691   3.496   3.594  23.898
13355SOL     OW51692   3.986   2.272   1.929
13355SOL    HW151693   4.051   2.327   1.973
13355SOL    HW251694   3.923   2.250   1.998
13356SOL     OW51695   2.587   3.614  25.994
13356SOL    HW151696   2.630   3.576  25.917
13356SOL    HW251697   2.494   3.600  25.979
13357SOL     OW51698   1.314   2.244  21.737
13357SOL    HW151699   1.247   2.302  21.773
13357SOL    HW251700   1.377   2.233  21.808
13358SOL     OW51701   3.522   1.233   4.134
13358SOL    HW151702   3.573   1.290   4.193
13358SOL    HW251703   3.498   1.158   4.188
13359SOL     OW51704   1.398   0.726   8.844
13359SOL    HW151705   1.348   0.798   8.884
13359SOL    HW251706   1.379   0.650   8.899
13360SOL     OW51707   3.565   3.028   6.832
13360SOL    HW151708   3.596   2.965   6.767
13360SOL    HW251709   3.643   3.051   6.882
13361SOL     OW51710   2.003   2.002   7.106
13361SOL    HW151711   1.973   2.058   7.034
13361SOL    HW251712   2.031   2.063   7.174
13362SOL     OW51713   4.121   3.147  17.980
13362SOL    HW151714   4.084   3.102  18.056
13362SOL    HW251715   4.049   3.199  17.945
13363SOL     OW51716   1.790   2.674   4.803
13363SOL    HW151717   1.867   2.643   4.754
13363SOL    HW251718   1.823   2.745   4.858
13364SOL     OW51719   3.645   2.505  22.094
13364SOL    HW151720   3.673   2.570  22.030
13364SOL    HW251721   3.580   2.452  22.048
13365SOL     OW51722   3.888   2.188  21.479
13365SOL    HW151723   3.876   2.249  21.552
13365SOL    HW251724   3.804   2.144  21.470
13366SOL     OW51725   2.358   4.285  23.353
13366SOL    HW151726   2.398   4.307  23.269
13366SOL    HW251727   2.431   4.255  23.407
13367SOL     OW51728   2.746   2.423   5.124
13367SOL    HW151729   2.720   2.339   5.163
13367SOL    HW251730   2.712   2.489   5.185
13368SOL     OW51731   0.636   1.786   0.600
13368SOL    HW151732   0.654   1.858   0.540
13368SOL    HW251733   0.690   1.804   0.677
13369SOL     OW51734   1.799   3.316   7.737
13369SOL    HW151735   1.815   3.410   7.727
13369SOL    HW251736   1.778   3.305   7.830
13370SOL     OW51737   4.456   3.797   3.400
13370SOL    HW151738   4.483   3.705   3.406
13370SOL    HW251739   4.483   3.824   3.312
13371SOL     OW51740   0.608   3.282  28.508
13371SOL    HW151741   0.636   3.308  28.420
13371SOL    HW251742   0.516   3.257  28.498
13372SOL     OW51743   0.789   1.698   3.640
13372SOL    HW151744   0.882   1.704   3.660
13372SOL    HW251745   0.760   1.617   3.683
13373SOL     OW51746   0.634   3.559   2.876
13373SOL    HW151747   0.679   3.575   2.793
13373SOL    HW251748   0.698   3.583   2.943
13374SOL     OW51749   1.383   4.520  11.524
13374SOL    HW151750   1.428   4.477  11.451
13374SOL    HW251751   1.419   4.479  11.602
13375SOL     OW51752   0.638   3.025  24.838
13375SOL    HW151753   0.689   3.105  24.849
13375SOL    HW251754   0.703   2.955  24.836
13376SOL     OW51755   1.230   3.190   7.666
13376SOL    HW151756   1.317   3.168   7.699
13376SOL    HW251757   1.209   3.274   7.707
13377SOL     OW51758   3.840   1.259  28.488
13377SOL    HW151759   3.922   1.271   0.017
13377SOL    HW251760   3.798   1.345  28.490
13378SOL     OW51761   3.415   4.242   9.105
13378SOL    HW151762   3.398   4.280   9.019
13378SOL    HW251763   3.490   4.185   9.091
13379SOL     OW51764   2.500   2.998   8.451
13379SOL    HW151765   2.416   2.959   8.429
13379SOL    HW251766   2.537   3.024   8.367
13380SOL     OW51767   3.716   3.499   0.163
13380SOL    HW151768   3.625   3.507   0.133
13380SOL    HW251769   3.755   3.435   0.103
13381SOL     OW51770   2.439   1.490   9.969
13381SOL    HW151771   2.352   1.452   9.979
13381SOL    HW251772   2.464   1.516  10.058
13382SOL     OW51773   4.767   1.649  19.981
13382SOL    HW151774   4.686   1.600  19.996
13382SOL    HW251775   4.738   1.733  19.946
13383SOL     OW51776   1.149   3.092   4.505
13383SOL    HW151777   1.067   3.076   4.552
13383SOL    HW251778   1.129   3.070   4.414
13384SOL     OW51779   2.535   1.681   0.913
13384SOL    HW151780   2.495   1.760   0.949
13384SOL    HW251781   2.617   1.672   0.962
13385SOL     OW51782   4.746   2.777  22.075
13385SOL    HW151783   4.672   2.795  22.132
13385SOL    HW251784   0.035   2.835  22.106
13386SOL     OW51785   4.718   4.336   3.937
13386SOL    HW151786   4.761   4.325   4.022
13386SOL    HW251787   4.769   4.404   3.893
13387SOL     OW51788   2.097   1.106   3.376
13387SOL    HW151789   2.020   1.049   3.375
13387SOL    HW251790   2.171   1.046   3.366
13388SOL     OW51791   4.680   2.310   7.279
13388SOL    HW151792   4.661   2.281   7.368
13388SOL    HW251793   4.728   2.392   7.290
13389SOL     OW51794   4.695   3.598   6.531
13389SOL    HW151795   4.649   3.677   6.502
13389SOL    HW251796   4.770   3.630   6.580
13390SOL     OW51797   3.579   4.686  21.964
13390SOL    HW151798   3.515   4.621  21.935
13390SOL    HW251799   3.654   4.673  21.907
13391SOL     OW51800   2.297   3.304  25.092
13391SOL    HW151801   2.258   3.226  25.053
13391SOL    HW251802   2.390   3.283  25.098
13392SOL     OW51803   2.352   4.547  19.061
13392SOL    HW151804   2.331   4.460  19.095
13392SOL    HW251805   2.314   4.549  18.973
13393SOL     OW51806   4.760   3.685  28.159
13393SOL    HW151807   0.007   3.654  28.073
13393SOL    HW251808   0.038   3.758  28.177
13394SOL     OW51809   0.252   2.040   9.749
13394SOL    HW151810   0.285   2.073   9.833
13394SOL    HW251811   0.256   2.116   9.691
13395SOL     OW51812   4.449   1.938  26.368
13395SOL    HW151813   4.402   1.866  26.410
13395SOL    HW251814   4.461   1.909  26.277
13396SOL     OW51815   2.902   2.862  26.134
13396SOL    HW151816   2.940   2.949  26.149
13396SOL    HW251817   2.870   2.834  26.220
13397SOL     OW51818   4.514   0.009   6.145
13397SOL    HW151819   4.512   4.703   6.105
13397SOL    HW251820   4.604   0.020   6.176
13398SOL     OW51821   4.173   2.699   3.090
13398SOL    HW151822   4.154   2.788   3.120
13398SOL    HW251823   4.241   2.667   3.150
13399SOL     OW51824   2.880   0.172  24.926
13399SOL    HW151825   2.874   0.097  24.867
13399SOL    HW251826   2.959   0.155  24.977
13400SOL     OW51827   1.942   4.282   6.699
13400SOL    HW151828   2.026   4.275   6.653
13400SOL    HW251829   1.911   4.192   6.705
13401SOL     OW51830   3.161   3.968  26.135
13401SOL    HW151831   3.238   3.939  26.185
13401SOL    HW251832   3.095   3.986  26.202
13402SOL     OW51833   3.386   3.428  17.458
13402SOL    HW151834   3.421   3.339  17.461
13402SOL    HW251835   3.352   3.437  17.369
13403SOL     OW51836   2.917   4.593  25.014
13403SOL    HW151837   2.898   4.630  24.928
13403SOL    HW251838   3.003   4.629  25.037
13404SOL     OW51839   1.427   2.978  27.064
13404SOL    HW151840   1.514   3.000  27.032
13404SOL    HW251841   1.443   2.916  27.135
13405SOL     OW51842   4.067   1.986  20.160
13405SOL    HW151843   4.145   1.954  20.204
13405SOL    HW251844   4.078   1.959  20.069
13406SOL     OW51845   3.082   2.760  20.465
13406SOL    HW151846   3.063   2.837  20.411
13406SOL    HW251847   3.107   2.796  20.550
13407SOL     OW51848   2.935   0.555   5.813
13407SOL    HW151849   2.906   0.486   5.872
13407SOL    HW251850   2.891   0.634   5.845
13408SOL     OW51851   4.391   1.767  19.685
13408SOL    HW151852   4.416   1.705  19.617
13408SOL    HW251853   4.301   1.792  19.663
13409SOL     OW51854   1.786   0.400   2.533
13409SOL    HW151855   1.854   0.467   2.525
13409SOL    HW251856   1.705   0.446   2.510
13410SOL     OW51857   3.835   1.448  22.412
13410SOL    HW151858   3.779   1.371  22.424
13410SOL    HW251859   3.785   1.506  22.354
13411SOL     OW51860   4.622   4.757  19.527
13411SOL    HW151861   4.580   4.708  19.456
13411SOL    HW251862   4.609   4.703  19.605
13412SOL     OW51863   4.304   1.191   6.871
13412SOL    HW151864   4.304   1.287   6.866
13412SOL    HW251865   4.340   1.172   6.958
13413SOL     OW51866   3.397   1.383  10.181
13413SOL    HW151867   3.327   1.446  10.165
13413SOL    HW251868   3.410   1.340  10.097
13414SOL     OW51869   2.472   4.219  20.291
13414SOL    HW151870   2.556   4.198  20.249
13414SOL    HW251871   2.418   4.141  20.277
13415SOL     OW51872   3.412   3.818  15.988
13415SOL    HW151873   3.431   3.902  16.031
13415SOL    HW251874   3.440   3.830  15.897
13416SOL     OW51875   0.970   4.704  27.998
13416SOL    HW151876   1.035   4.773  27.987
13416SOL    HW251877   1.014   4.624  27.968
13417SOL     OW51878   2.871   4.746  21.653
13417SOL    HW151879   2.833   0.044  21.613
13417SOL    HW251880   2.941   4.720  21.593
13418SOL     OW51881   3.293   2.346  20.719
13418SOL    HW151882   3.257   2.269  20.674
13418SOL    HW251883   3.241   2.353  20.799
13419SOL     OW51884   3.897   2.709  21.117
13419SOL    HW151885   3.888   2.683  21.025
13419SOL    HW251886   3.991   2.705  21.134
13420SOL     OW51887   2.485   2.397   5.329
13420SOL    HW151888   2.413   2.450   5.364
13420SOL    HW251889   2.558   2.459   5.319
13421SOL     OW51890   3.603   3.660   2.162
13421SOL    HW151891   3.693   3.679   2.136
13421SOL    HW251892   3.577   3.734   2.217
13422SOL     OW51893   2.277   3.349   9.050
13422SOL    HW151894   2.317   3.335   9.136
13422SOL    HW251895   2.296   3.269   9.001
13423SOL     OW51896   2.166   0.877   0.736
13423SOL    HW151897   2.111   0.845   0.664
13423SOL    HW251898   2.198   0.797   0.778
13424SOL     OW51899   1.523   1.138  22.073
13424SOL    HW151900   1.459   1.085  22.026
13424SOL    HW251901   1.473   1.213  22.104
13425SOL     OW51902   3.281   2.273   0.333
13425SOL    HW151903   3.225   2.201   0.303
13425SOL    HW251904   3.350   2.279   0.267
13426SOL     OW51905   4.667   2.430  25.528
13426SOL    HW151906   4.715   2.498  25.481
13426SOL    HW251907   4.733   2.363  25.547
13427SOL     OW51908   2.803   0.280  28.077
13427SOL    HW151909   2.776   0.208  28.134
13427SOL    HW251910   2.725   0.298  28.024
13428SOL     OW51911   4.071   3.782   6.640
13428SOL    HW151912   4.073   3.867   6.596
13428SOL    HW251913   4.160   3.748   6.632
13429SOL     OW51914   1.082   1.332   4.091
13429SOL    HW151915   1.132   1.389   4.149
13429SOL    HW251916   0.992   1.338   4.123
13430SOL     OW51917   3.885   1.625  26.534
13430SOL    HW151918   3.809   1.568  26.522
13430SOL    HW251919   3.852   1.713  26.517
13431SOL     OW51920   3.390   3.218   4.735
13431SOL    HW151921   3.405   3.265   4.817
13431SOL    HW251922   3.303   3.180   4.745
13432SOL     OW51923   0.344   3.751   6.781
13432SOL    HW151924   0.293   3.735   6.701
13432SOL    HW251925   0.386   3.836   6.766
13433SOL     OW51926   1.999   1.975   5.149
13433SOL    HW151927   2.007   1.880   5.143
13433SOL    HW251928   1.970   2.002   5.062
13434SOL     OW51929   1.259   2.695  19.949
13434SOL    HW151930   1.314   2.769  19.923
13434SOL    HW251931   1.313   2.646  20.011
13435SOL     OW51932   0.953   4.434   3.892
13435SOL    HW151933   0.988   4.432   3.981
13435SOL    HW251934   0.921   4.345   3.877
13436SOL     OW51935   1.621   0.200   9.295
13436SOL    HW151936   1.679   0.246   9.235
13436SOL    HW251937   1.667   0.119   9.316
13437SOL     OW51938   3.526   4.673   5.077
13437SOL    HW151939   3.484   4.759   5.076
13437SOL    HW251940   3.477   4.624   5.143
13438SOL     OW51941   1.218   3.835   1.064
13438SOL    HW151942   1.282   3.764   1.071
13438SOL    HW251943   1.145   3.807   1.120
13439SOL     OW51944   3.369   4.767   0.495
13439SOL    HW151945   3.434   4.697   0.485
13439SOL    HW251946   3.378   0.039   0.416
13440SOL     OW51947   3.782   3.484  22.736
13440SOL    HW151948   3.824   3.520  22.814
13440SOL    HW251949   3.853   3.441  22.688
13441SOL     OW51950   4.178   2.062   0.080
13441SOL    HW151951   4.154   2.053  28.507
13441SOL    HW251952   4.114   2.124   0.115
13442SOL     OW51953   1.656   4.003   4.506
13442SOL    HW151954   1.565   3.990   4.532
13442SOL    HW251955   1.678   4.091   4.536
13443SOL     OW51956   0.734   4.492   1.873
13443SOL    HW151957   0.734   4.522   1.964
13443SOL    HW251958   0.786   4.412   1.875
13444SOL     OW51959   2.786   2.016  19.644
13444SOL    HW151960   2.789   1.995  19.737
13444SOL    HW251961   2.740   2.100  19.639
13445SOL     OW51962   1.027   0.815   1.879
13445SOL    HW151963   1.002   0.892   1.829
13445SOL    HW251964   1.006   0.838   1.970
13446SOL     OW51965   3.761   1.863  22.059
13446SOL    HW151966   3.713   1.878  21.978
13446SOL    HW251967   3.848   1.834  22.031
13447SOL     OW51968   3.958   3.244  19.739
13447SOL    HW151969   3.893   3.193  19.788
13447SOL    HW251970   3.955   3.331  19.778
13448SOL     OW51971   3.534   2.700   8.503
13448SOL    HW151972   3.621   2.660   8.503
13448SOL    HW251973   3.545   2.782   8.456
13449SOL     OW51974   3.542   2.476   5.674
13449SOL    HW151975   3.636   2.485   5.690
13449SOL    HW251976   3.501   2.534   5.738
13450SOL     OW51977   2.256   0.404  22.080
13450SOL    HW151978   2.234   0.394  21.987
13450SOL    HW251979   2.213   0.486  22.106
13451SOL     OW51980   2.245   0.782  17.838
13451SOL    HW151981   2.220   0.833  17.761
13451SOL    HW251982   2.194   0.701  17.830
13452SOL     OW51983   4.226   0.977   4.240
13452SOL    HW151984   4.243   0.887   4.213
13452SOL    HW251985   4.144   0.973   4.289
13453SOL     OW51986   0.703   0.399   3.218
13453SOL    HW151987   0.785   0.378   3.263
13453SOL    HW251988   0.708   0.351   3.135
13454SOL     OW51989   1.705   0.848   6.432
13454SOL    HW151990   1.761   0.848   6.509
13454SOL    HW251991   1.661   0.763   6.434
13455SOL     OW51992   1.519   3.920   8.196
13455SOL    HW151993   1.573   3.871   8.258
13455SOL    HW251994   1.578   3.941   8.124
13456SOL     OW51995   0.962   3.923   0.781
13456SOL    HW151996   0.921   3.904   0.696
13456SOL    HW251997   0.958   3.840   0.828
13457SOL     OW51998   2.994   1.010  10.207
13457SOL    HW151999   2.969   1.093  10.247
13457SOL    HW252000   2.951   1.010  10.122
13458SOL     OW52001   1.775   3.167  19.719
13458SOL    HW152002   1.725   3.239  19.681
13458SOL    HW252003   1.782   3.189  19.812
13459SOL     OW52004   0.964   0.891  17.566
13459SOL    HW152005   0.949   0.848  17.482
13459SOL    HW252006   1.032   0.956  17.547
13460SOL     OW52007   0.650   0.136  27.499
13460SOL    HW152008   0.631   0.052  27.541
13460SOL    HW252009   0.565   0.181  27.495
13461SOL     OW52010   3.843   0.918   8.278
13461SOL    HW152011   3.897   0.984   8.235
13461SOL    HW252012   3.777   0.895   8.213
13462SOL     OW52013   4.593   4.261  20.618
13462SOL    HW152014   4.510   4.223  20.648
13462SOL    HW252015   4.657   4.190  20.626
13463SOL     OW52016   2.159   3.177  10.283
13463SOL    HW152017   2.188   3.187  10.374
13463SOL    HW252018   2.112   3.094  10.282
13464SOL     OW52019   0.454   0.184   9.632
13464SOL    HW152020   0.364   0.161   9.657
13464SOL    HW252021   0.453   0.279   9.622
13465SOL     OW52022   1.003   0.001   2.550
13465SOL    HW152023   1.085   0.050   2.541
13465SOL    HW252024   0.940   0.050   2.496
13466SOL     OW52025   1.999   3.537   7.055
13466SOL    HW152026   2.090   3.528   7.027
13466SOL    HW252027   2.000   3.609   7.118
13467SOL     OW52028   4.249   4.413   2.630
13467SOL    HW152029   4.169   4.361   2.622
13467SOL    HW252030   4.288   4.411   2.542
13468SOL     OW52031   0.816   2.376   7.869
13468SOL    HW152032   0.864   2.458   7.865
13468SOL    HW252033   0.840   2.330   7.788
13469SOL     OW52034   1.655   0.663  20.650
13469SOL    HW152035   1.673   0.606  20.575
13469SOL    HW252036   1.568   0.636  20.681
13470SOL     OW52037   1.810   3.089   9.975
13470SOL    HW152038   1.741   3.129  10.028
13470SOL    HW252039   1.782   3.104   9.885
13471SOL     OW52040   1.453   3.352   5.104
13471SOL    HW152041   1.478   3.444   5.093
13471SOL    HW252042   1.534   3.307   5.127
13472SOL     OW52043   3.038   4.235   8.027
13472SOL    HW152044   3.012   4.165   8.087
13472SOL    HW252045   3.046   4.313   8.082
13473SOL     OW52046   3.280   2.472  10.162
13473SOL    HW152047   3.210   2.470  10.097
13473SOL    HW252048   3.236   2.454  10.245
13474SOL     OW52049   4.528   0.034   1.768
13474SOL    HW152050   4.619   0.005   1.774
13474SOL    HW252051   4.508   0.070   1.854
13475SOL     OW52052   1.686   4.336   2.643
13475SOL    HW152053   1.705   4.430   2.642
13475SOL    HW252054   1.594   4.330   2.616
13476SOL     OW52055   0.776   4.693  22.795
13476SOL    HW152056   0.750   0.005  22.795
13476SOL    HW252057   0.815   4.680  22.881
13477SOL     OW52058   2.124   2.310  12.186
13477SOL    HW152059   2.087   2.279  12.269
13477SOL    HW252060   2.062   2.280  12.119
13478SOL     OW52061   2.523   3.482  21.704
13478SOL    HW152062   2.438   3.466  21.745
13478SOL    HW252063   2.545   3.400  21.660
13479SOL     OW52064   1.459   1.850  27.161
13479SOL    HW152065   1.439   1.797  27.084
13479SOL    HW252066   1.452   1.940  27.131
13480SOL     OW52067   1.363   1.107  19.290
13480SOL    HW152068   1.447   1.063  19.304
13480SOL    HW252069   1.344   1.095  19.197
13481SOL     OW52070   2.645   0.373  25.494
13481SOL    HW152071   2.610   0.285  25.506
13481SOL    HW252072   2.635   0.391  25.401
13482SOL     OW52073   2.874   3.941   2.094
13482SOL    HW152074   2.926   3.976   2.021
13482SOL    HW252075   2.895   3.848   2.095
13483SOL     OW52076   0.525   0.600  28.466
13483SOL    HW152077   0.553   0.652   0.022
13483SOL    HW252078   0.601   0.546  28.444
13484SOL     OW52079   4.292   2.503  26.423
13484SOL    HW152080   4.327   2.449  26.352
13484SOL    HW252081   4.200   2.517  26.400
13485SOL     OW52082   0.801   2.163  24.648
13485SOL    HW152083   0.766   2.247  24.678
13485SOL    HW252084   0.841   2.124  24.726
13486SOL     OW52085   1.238   2.692  23.088
13486SOL    HW152086   1.187   2.773  23.096
13486SOL    HW252087   1.172   2.624  23.073
13487SOL     OW52088   1.916   0.808  23.979
13487SOL    HW152089   1.847   0.861  23.938
13487SOL    HW252090   1.955   0.760  23.906
13488SOL     OW52091   1.745   0.301   9.572
13488SOL    HW152092   1.770   0.362   9.502
13488SOL    HW252093   1.703   0.356   9.638
13489SOL     OW52094   2.502   2.187   5.536
13489SOL    HW152095   2.513   2.266   5.483
13489SOL    HW252096   2.589   2.170   5.572
13490SOL     OW52097   2.841   1.680   8.234
13490SOL    HW152098   2.886   1.599   8.256
13490SOL    HW252099   2.844   1.683   8.138
13491SOL     OW52100   1.477   0.652  25.766
13491SOL    HW152101   1.454   0.635  25.857
13491SOL    HW252102   1.393   0.669  25.723
13492SOL     OW52103   2.439   1.423  21.919
13492SOL    HW152104   2.512   1.467  21.876
13492SOL    HW252105   2.361   1.456  21.874
13493SOL     OW52106   4.696   3.793   8.523
13493SOL    HW152107   4.705   3.698   8.534
13493SOL    HW252108   4.641   3.821   8.596
13494SOL     OW52109   2.796   3.459  26.239
13494SOL    HW152110   2.772   3.534  26.294
13494SOL    HW252111   2.763   3.481  26.152
13495SOL     OW52112   0.032   1.100  28.433
13495SOL    HW152113   4.779   1.050  28.508
13495SOL    HW252114   0.050   1.187  28.469
13496SOL     OW52115   0.423   0.454   8.830
13496SOL    HW152116   0.372   0.494   8.759
13496SOL    HW252117   0.392   0.364   8.834
13497SOL     OW52118   1.198   0.282   1.966
13497SOL    HW152119   1.107   0.251   1.967
13497SOL    HW252120   1.194   0.370   2.004
13498SOL     OW52121   3.535   1.257  23.593
13498SOL    HW152122   3.457   1.258  23.538
13498SOL    HW252123   3.577   1.173  23.574
13499SOL     OW52124   2.920   3.428   3.159
13499SOL    HW152125   2.848   3.382   3.203
13499SOL    HW252126   2.992   3.365   3.159
13500SOL     OW52127   1.679   4.360   8.505
13500SOL    HW152128   1.621   4.436   8.513
13500SOL    HW252129   1.647   4.313   8.428
13501SOL     OW52130   3.656   2.258   0.683
13501SOL    HW152131   3.595   2.189   0.710
13501SOL    HW252132   3.616   2.295   0.605
13502SOL     OW52133   3.059   0.043   6.543
13502SOL    HW152134   3.088   0.100   6.614
13502SOL    HW252135   3.139   0.023   6.494
13503SOL     OW52136   0.444   3.619  26.933
13503SOL    HW152137   0.493   3.693  26.969
13503SOL    HW252138   0.500   3.543  26.949
13504SOL     OW52139   1.928   2.551  27.880
13504SOL    HW152140   1.931   2.644  27.901
13504SOL    HW252141   1.840   2.537  27.844
13505SOL     OW52142   2.803   4.488  20.708
13505SOL    HW152143   2.743   4.451  20.643
13505SOL    HW252144   2.887   4.494  20.662
13506SOL     OW52145   0.297   4.701  11.168
13506SOL    HW152146   0.332   0.008  11.184
13506SOL    HW252147   0.287   4.663  11.255
13507SOL     OW52148   0.914   2.062   7.294
13507SOL    HW152149   0.966   2.141   7.309
13507SOL    HW252150   0.863   2.082   7.215
13508SOL     OW52151   1.662   4.564   5.337
13508SOL    HW152152   1.583   4.510   5.328
13508SOL    HW252153   1.659   4.623   5.261
13509SOL     OW52154   4.595   1.595   2.680
13509SOL    HW152155   4.509   1.616   2.717
13509SOL    HW252156   4.646   1.563   2.755
13510SOL     OW52157   2.969   4.029   2.339
13510SOL    HW152158   2.902   4.031   2.408
13510SOL    HW252159   2.929   3.980   2.268
13511SOL     OW52160   2.925   2.878   3.358
13511SOL    HW152161   2.946   2.949   3.298
13511SOL    HW252162   2.919   2.800   3.302
13512SOL     OW52163   4.696   1.477   1.812
13512SOL    HW152164   4.640   1.437   1.879
13512SOL    HW252165   4.695   1.570   1.833
13513SOL     OW52166   2.514   1.458  24.956
13513SOL    HW152167   2.424   1.478  24.982
13513SOL    HW252168   2.540   1.531  24.900
13514SOL     OW52169   1.462   4.440  28.034
13514SOL    HW152170   1.521   4.417  27.963
13514SOL    HW252171   1.384   4.387  28.018
13515SOL     OW52172   3.822   4.578   9.348
13515SOL    HW152173   3.880   4.652   9.366
13515SOL    HW252174   3.793   4.548   9.434
13516SOL     OW52175   1.356   2.584  24.071
13516SOL    HW152176   1.356   2.491  24.048
13516SOL    HW252177   1.321   2.627  23.993
13517SOL     OW52178   0.049   1.738   4.913
13517SOL    HW152179   0.140   1.755   4.937
13517SOL    HW252180   4.778   1.776   4.985
13518SOL     OW52181   0.998   2.604   7.846
13518SOL    HW152182   0.983   2.696   7.825
13518SOL    HW252183   1.073   2.580   7.792
13519SOL     OW52184   3.839   3.993  20.217
13519SOL    HW152185   3.891   3.933  20.164
13519SOL    HW252186   3.878   4.079  20.201
13520SOL     OW52187   1.410   2.647   8.895
13520SOL    HW152188   1.463   2.599   8.958
13520SOL    HW252189   1.417   2.596   8.814
13521SOL     OW52190   0.773   2.602  25.565
13521SOL    HW152191   0.802   2.533  25.505
13521SOL    HW252192   0.804   2.683  25.525
13522SOL     OW52193   2.242   0.487   2.430
13522SOL    HW152194   2.317   0.541   2.455
13522SOL    HW252195   2.271   0.441   2.351
13523SOL     OW52196   1.702   1.035   1.044
13523SOL    HW152197   1.763   1.041   0.970
13523SOL    HW252198   1.675   0.943   1.045
13524SOL     OW52199   3.889   1.525   3.193
13524SOL    HW152200   3.852   1.543   3.279
13524SOL    HW252201   3.832   1.458   3.155
13525SOL     OW52202   3.235   3.913  24.023
13525SOL    HW152203   3.294   3.862  24.078
13525SOL    HW252204   3.190   3.848  23.969
13526SOL     OW52205   0.359   4.549  10.421
13526SOL    HW152206   0.431   4.572  10.362
13526SOL    HW252207   0.402   4.510  10.497
13527SOL     OW52208   3.770   0.836  24.291
13527SOL    HW152209   3.801   0.848  24.381
13527SOL    HW252210   3.732   0.920  24.267
13528SOL     OW52211   0.933   0.975   8.089
13528SOL    HW152212   0.844   0.954   8.118
13528SOL    HW252213   0.948   1.064   8.120
13529SOL     OW52214   3.325   2.456  27.360
13529SOL    HW152215   3.409   2.434  27.319
13529SOL    HW252216   3.349   2.490  27.446
13530SOL     OW52217   2.211   2.828  24.294
13530SOL    HW152218   2.213   2.905  24.351
13530SOL    HW252219   2.294   2.831  24.247
13531SOL     OW52220   1.541   0.453  21.113
13531SOL    HW152221   1.520   0.546  21.102
13531SOL    HW252222   1.620   0.439  21.060
13532SOL     OW52223   3.293   4.143   4.939
13532SOL    HW152224   3.262   4.169   4.852
13532SOL    HW252225   3.334   4.058   4.925
13533SOL     OW52226   1.805   1.484   0.047
13533SOL    HW152227   1.710   1.487   0.033
13533SOL    HW252228   1.815   1.463   0.140
13534SOL     OW52229   2.119   0.395  10.012
13534SOL    HW152230   2.032   0.423   9.983
13534SOL    HW252231   2.102   0.334  10.083
13535SOL     OW52232   4.026   4.094  10.994
13535SOL    HW152233   3.981   4.082  11.078
13535SOL    HW252234   3.957   4.123  10.934
13536SOL     OW52235   4.006   0.550  24.294
13536SOL    HW152236   3.931   0.512  24.339
13536SOL    HW252237   4.047   0.476  24.249
13537SOL     OW52238   3.297   0.667  25.853
13537SOL    HW152239   3.216   0.654  25.803
13537SOL    HW252240   3.287   0.611  25.930
13538SOL     OW52241   3.545   3.290  18.749
13538SOL    HW152242   3.638   3.285  18.771
13538SOL    HW252243   3.531   3.218  18.688
13539SOL     OW52244   0.223   2.276  22.613
13539SOL    HW152245   0.198   2.188  22.640
13539SOL    HW252246   0.190   2.284  22.524
13540SOL     OW52247   3.259   2.630  10.679
13540SOL    HW152248   3.254   2.569  10.753
13540SOL    HW252249   3.293   2.577  10.607
13541SOL     OW52250   3.873   1.212  23.984
13541SOL    HW152251   3.834   1.292  24.019
13541SOL    HW252252   3.877   1.226  23.889
13542SOL     OW52253   2.188   4.053   6.839
13542SOL    HW152254   2.213   4.113   6.768
13542SOL    HW252255   2.248   3.979   6.829
13543SOL     OW52256   2.160   0.809  20.210
13543SOL    HW152257   2.136   0.747  20.141
13543SOL    HW252258   2.200   0.755  20.278
13544SOL     OW52259   0.756   1.199   3.556
13544SOL    HW152260   0.673   1.180   3.600
13544SOL    HW252261   0.753   1.293   3.540
13545SOL     OW52262   2.009   4.458   8.073
13545SOL    HW152263   2.000   4.382   8.130
13545SOL    HW252264   2.044   4.423   7.991
13546SOL     OW52265   2.999   3.408   0.229
13546SOL    HW152266   3.044   3.493   0.234
13546SOL    HW252267   2.929   3.414   0.294
13547SOL     OW52268   4.074   2.948  27.046
13547SOL    HW152269   4.086   2.968  27.139
13547SOL    HW252270   4.086   3.032  27.001
13548SOL     OW52271   3.052   2.848   8.702
13548SOL    HW152272   3.129   2.802   8.669
13548SOL    HW252273   3.071   2.862   8.795
13549SOL     OW52274   3.688   3.618   0.878
13549SOL    HW152275   3.595   3.631   0.860
13549SOL    HW252276   3.733   3.676   0.816
13550SOL     OW52277   3.257   0.878  21.347
13550SOL    HW152278   3.260   0.966  21.384
13550SOL    HW252279   3.227   0.823  21.419
13551SOL     OW52280   4.343   1.972   5.042
13551SOL    HW152281   4.383   1.931   4.965
13551SOL    HW252282   4.261   1.925   5.054
13552SOL     OW52283   3.867   3.832  27.776
13552SOL    HW152284   3.921   3.883  27.716
13552SOL    HW252285   3.895   3.742  27.763
13553SOL     OW52286   2.883   3.287  20.100
13553SOL    HW152287   2.806   3.339  20.078
13553SOL    HW252288   2.907   3.317  20.188
13554SOL     OW52289   3.972   4.209  28.359
13554SOL    HW152290   3.997   4.168  28.276
13554SOL    HW252291   3.965   4.136  28.420
13555SOL     OW52292   4.239   3.453  24.151
13555SOL    HW152293   4.255   3.518  24.083
13555SOL    HW252294   4.312   3.392  24.143
13556SOL     OW52295   3.283   0.223  23.151
13556SOL    HW152296   3.346   0.246  23.220
13556SOL    HW252297   3.331   0.162  23.094
13557SOL     OW52298   4.619   1.594   6.604
13557SOL    HW152299   4.543   1.642   6.572
13557SOL    HW252300   4.660   1.653   6.667
13558SOL     OW52301   2.544   4.661   0.972
13558SOL    HW152302   2.481   4.733   0.976
13558SOL    HW252303   2.578   4.663   0.882
13559SOL     OW52304   1.114   3.305   5.934
13559SOL    HW152305   1.081   3.219   5.960
13559SOL    HW252306   1.090   3.363   6.006
13560SOL     OW52307   3.525   2.886  23.872
13560SOL    HW152308   3.541   2.954  23.938
13560SOL    HW252309   3.581   2.910  23.798
13561SOL     OW52310   4.098   1.784   4.448
13561SOL    HW152311   4.105   1.733   4.367
13561SOL    HW252312   4.164   1.852   4.439
13562SOL     OW52313   0.397   4.679  25.603
13562SOL    HW152314   0.334   4.729  25.552
13562SOL    HW252315   0.345   4.637  25.671
13563SOL     OW52316   2.742   3.395   9.697
13563SOL    HW152317   2.707   3.431   9.779
13563SOL    HW252318   2.809   3.332   9.725
13564SOL     OW52319   0.397   3.160   2.944
13564SOL    HW152320   0.324   3.205   2.987
13564SOL    HW252321   0.372   3.067   2.946
13565SOL     OW52322   0.147   2.857  26.186
13565SOL    HW152323   0.123   2.943  26.152
13565SOL    HW252324   0.173   2.807  26.109
13566SOL     OW52325   0.398   1.957  27.088
13566SOL    HW152326   0.425   1.866  27.081
13566SOL    HW252327   0.427   1.985  27.175
13567SOL     OW52328   0.462   1.707  18.269
13567SOL    HW152329   0.539   1.757  18.297
13567SOL    HW252330   0.391   1.771  18.267
13568SOL     OW52331   2.412   1.934   1.407
13568SOL    HW152332   2.391   2.025   1.429
13568SOL    HW252333   2.328   1.894   1.385
13569SOL     OW52334   1.034   3.203  20.487
13569SOL    HW152335   1.008   3.235  20.400
13569SOL    HW252336   1.130   3.208  20.487
13570SOL     OW52337   0.215   2.133  24.493
13570SOL    HW152338   0.199   2.214  24.445
13570SOL    HW252339   0.209   2.064  24.427
13571SOL     OW52340   1.262   3.949  25.121
13571SOL    HW152341   1.170   3.964  25.101
13571SOL    HW252342   1.266   3.953  25.217
13572SOL     OW52343   2.129   0.892   1.432
13572SOL    HW152344   2.143   0.808   1.476
13572SOL    HW252345   2.117   0.869   1.340
13573SOL     OW52346   4.106   0.456  11.148
13573SOL    HW152347   4.196   0.427  11.136
13573SOL    HW252348   4.111   0.526  11.213
13574SOL     OW52349   2.270   4.055  22.645
13574SOL    HW152350   2.346   4.035  22.590
13574SOL    HW252351   2.210   4.100  22.586
13575SOL     OW52352   2.831   2.865  25.861
13575SOL    HW152353   2.849   2.879  25.954
13575SOL    HW252354   2.843   2.771  25.848
13576SOL     OW52355   2.169   3.476  10.443
13576SOL    HW152356   2.260   3.501  10.430
13576SOL    HW252357   2.132   3.545  10.498
13577SOL     OW52358   2.383   1.953  25.786
13577SOL    HW152359   2.461   1.899  25.797
13577SOL    HW252360   2.311   1.890  25.781
13578SOL     OW52361   2.018   4.679  27.130
13578SOL    HW152362   2.095   4.623  27.129
13578SOL    HW252363   2.053   4.767  27.143
13579SOL     OW52364   3.791   0.761  21.134
13579SOL    HW152365   3.768   0.827  21.069
13579SOL    HW252366   3.857   0.706  21.091
13580SOL     OW52367   1.281   3.634   8.538
13580SOL    HW152368   1.267   3.729   8.537
13580SOL    HW252369   1.243   3.603   8.456
13581SOL     OW52370   1.109   2.054   8.713
13581SOL    HW152371   1.044   2.009   8.767
13581SOL    HW252372   1.161   2.106   8.775
13582SOL     OW52373   1.056   0.133  24.675
13582SOL    HW152374   0.962   0.119  24.686
13582SOL    HW252375   1.078   0.201  24.739
13583SOL     OW52376   0.191   2.395  21.732
13583SOL    HW152377   0.107   2.432  21.706
13583SOL    HW252378   0.236   2.376  21.650
13584SOL     OW52379   1.132   1.469  26.652
13584SOL    HW152380   1.102   1.540  26.709
13584SOL    HW252381   1.063   1.403  26.657
13585SOL     OW52382   0.939   2.171  23.325
13585SOL    HW152383   0.960   2.263  23.339
13585SOL    HW252384   0.844   2.166  23.330
13586SOL     OW52385   2.189   0.416  24.543
13586SOL    HW152386   2.270   0.394  24.497
13586SOL    HW252387   2.136   0.336  24.538
13587SOL     OW52388   1.658   2.510   3.896
13587SOL    HW152389   1.741   2.480   3.860
13587SOL    HW252390   1.682   2.551   3.979
13588SOL     OW52391   0.728   1.677  25.403
13588SOL    HW152392   0.673   1.607  25.439
13588SOL    HW252393   0.794   1.632  25.350
13589SOL     OW52394   0.822   3.184   1.775
13589SOL    HW152395   0.771   3.253   1.818
13589SOL    HW252396   0.852   3.224   1.693
13590SOL     OW52397   0.102   3.360   3.857
13590SOL    HW152398   0.194   3.340   3.838
13590SOL    HW252399   0.101   3.381   3.950
13591SOL     OW52400   1.082   0.619   8.177
13591SOL    HW152401   1.034   0.536   8.172
13591SOL    HW252402   1.161   0.598   8.227
13592SOL     OW52403   1.485   0.965  20.865
13592SOL    HW152404   1.467   1.030  20.797
13592SOL    HW252405   1.567   0.924  20.837
13593SOL     OW52406   4.710   2.402   6.230
13593SOL    HW152407   4.617   2.420   6.217
13593SOL    HW252408   4.735   2.350   6.154
13594SOL     OW52409   0.382   3.997  21.671
13594SOL    HW152410   0.444   4.061  21.706
13594SOL    HW252411   0.310   3.997  21.734
13595SOL     OW52412   3.880   1.588  19.912
13595SOL    HW152413   3.837   1.597  19.827
13595SOL    HW252414   3.833   1.648  19.970
13596SOL     OW52415   1.657   1.073   9.349
13596SOL    HW152416   1.645   0.979   9.339
13596SOL    HW252417   1.737   1.093   9.300
13597SOL     OW52418   4.587   2.511  25.194
13597SOL    HW152419   4.522   2.548  25.254
13597SOL    HW252420   4.540   2.444  25.145
13598SOL     OW52421   1.632   2.505  24.765
13598SOL    HW152422   1.663   2.459  24.843
13598SOL    HW252423   1.699   2.488  24.699
13599SOL     OW52424   4.607   2.014  11.012
13599SOL    HW152425   4.555   1.946  10.970
13599SOL    HW252426   4.671   1.966  11.064
13600SOL     OW52427   3.316   4.231  18.590
13600SOL    HW152428   3.307   4.276  18.674
13600SOL    HW252429   3.407   4.244  18.565
13601SOL     OW52430   0.004   1.821  17.167
13601SOL    HW152431   4.715   1.881  17.193
13601SOL    HW252432   4.745   1.767  17.099
13602SOL     OW52433   1.611   3.408  20.958
13602SOL    HW152434   1.574   3.321  20.970
13602SOL    HW252435   1.672   3.419  21.031
13603SOL     OW52436   2.789   1.735   3.654
13603SOL    HW152437   2.784   1.831   3.656
13603SOL    HW252438   2.836   1.712   3.734
13604SOL     OW52439   2.341   0.502   6.216
13604SOL    HW152440   2.256   0.521   6.177
13604SOL    HW252441   2.404   0.526   6.148
13605SOL     OW52442   4.429   2.069  25.000
13605SOL    HW152443   4.358   2.129  25.024
13605SOL    HW252444   4.453   2.094  24.911
13606SOL     OW52445   3.658   0.165  22.346
13606SOL    HW152446   3.674   0.254  22.377
13606SOL    HW252447   3.624   0.176  22.257
13607SOL     OW52448   4.326   4.545   6.585
13607SOL    HW152449   4.308   4.488   6.660
13607SOL    HW252450   4.332   4.633   6.622
13608SOL     OW52451   2.034   1.478  23.028
13608SOL    HW152452   1.943   1.452  23.043
13608SOL    HW252453   2.059   1.526  23.107
13609SOL     OW52454   0.482   0.449   9.587
13609SOL    HW152455   0.517   0.504   9.657
13609SOL    HW252456   0.407   0.499   9.553
13610SOL     OW52457   1.733   2.883  26.965
13610SOL    HW152458   1.770   2.934  26.893
13610SOL    HW252459   1.808   2.859  27.019
13611SOL     OW52460   2.014   4.226  20.240
13611SOL    HW152461   2.024   4.158  20.307
13611SOL    HW252462   2.098   4.227  20.194
13612SOL     OW52463   2.722   1.946  26.877
13612SOL    HW152464   2.672   2.024  26.899
13612SOL    HW252465   2.727   1.897  26.959
13613SOL     OW52466   3.876   3.540  21.304
13613SOL    HW152467   3.917   3.619  21.268
13613SOL    HW252468   3.796   3.528  21.252
13614SOL     OW52469   3.233   2.688  23.527
13614SOL    HW152470   3.237   2.593  23.536
13614SOL    HW252471   3.220   2.721  23.616
13615SOL     OW52472   0.692   1.741   6.764
13615SOL    HW152473   0.759   1.745   6.695
13615SOL    HW252474   0.724   1.674   6.824
13616SOL     OW52475   4.239   2.152  17.948
13616SOL    HW152476   4.324   2.141  17.906
13616SOL    HW252477   4.178   2.107  17.889
13617SOL     OW52478   2.061   3.055  25.991
13617SOL    HW152479   2.102   2.980  25.948
13617SOL    HW252480   2.000   3.090  25.926
13618SOL     OW52481   1.593   0.750  23.882
13618SOL    HW152482   1.667   0.784  23.932
13618SOL    HW252483   1.593   0.800  23.801
13619SOL     OW52484   1.623   3.002   7.235
13619SOL    HW152485   1.703   2.972   7.192
13619SOL    HW252486   1.653   3.068   7.298
13620SOL     OW52487   4.347   0.309  24.123
13620SOL    HW152488   4.420   0.273  24.073
13620SOL    HW252489   4.358   0.275  24.212
13621SOL     OW52490   1.470   0.021  27.967
13621SOL    HW152491   1.485   0.109  28.002
13621SOL    HW252492   1.393   4.769  28.015
13622SOL     OW52493   4.778   4.556  23.827
13622SOL    HW152494   4.756   4.479  23.774
13622SOL    HW252495   0.017   4.624  23.763
13623SOL     OW52496   4.304   3.330  23.796
13623SOL    HW152497   4.214   3.339  23.765
13623SOL    HW252498   4.316   3.405  23.855
13624SOL     OW52499   0.282   1.836   5.017
13624SOL    HW152500   0.314   1.911   5.067
13624SOL    HW252501   0.298   1.761   5.074
13625SOL     OW52502   2.157   0.876   8.867
13625SOL    HW152503   2.149   0.942   8.798
13625SOL    HW252504   2.224   0.816   8.835
13626SOL     OW52505   0.273   0.916   5.917
13626SOL    HW152506   0.182   0.915   5.947
13626SOL    HW252507   0.321   0.869   5.985
13627SOL     OW52508   3.939   3.538  19.693
13627SOL    HW152509   3.886   3.557  19.616
13627SOL    HW252510   4.026   3.573  19.672
13628SOL     OW52511   3.594   4.458   4.905
13628SOL    HW152512   3.557   4.409   4.978
13628SOL    HW252513   3.559   4.547   4.916
13629SOL     OW52514   2.944   0.306   8.684
13629SOL    HW152515   2.873   0.371   8.685
13629SOL    HW252516   2.962   0.289   8.776
13630SOL     OW52517   3.928   4.166   4.170
13630SOL    HW152518   3.963   4.224   4.237
13630SOL    HW252519   3.834   4.162   4.189
13631SOL     OW52520   0.427   1.420  20.512
13631SOL    HW152521   0.372   1.479  20.461
13631SOL    HW252522   0.516   1.446  20.489
13632SOL     OW52523   0.368   3.539  28.345
13632SOL    HW152524   0.463   3.538  28.336
13632SOL    HW252525   0.344   3.631  28.332
13633SOL     OW52526   3.463   3.847   2.665
13633SOL    HW152527   3.396   3.811   2.607
13633SOL    HW252528   3.414   3.893   2.733
13634SOL     OW52529   3.035   4.342   4.033
13634SOL    HW152530   3.002   4.297   4.110
13634SOL    HW252531   3.007   4.288   3.959
13635SOL     OW52532   2.064   2.351  20.544
13635SOL    HW152533   2.039   2.273  20.495
13635SOL    HW252534   1.983   2.402  20.552
13636SOL     OW52535   0.162   0.545   5.851
13636SOL    HW152536   0.205   0.547   5.936
13636SOL    HW252537   0.102   0.471   5.856
13637SOL     OW52538   2.810   3.414   6.716
13637SOL    HW152539   2.721   3.379   6.714
13637SOL    HW252540   2.865   3.337   6.733
13638SOL     OW52541   1.345   0.360   8.558
13638SOL    HW152542   1.303   0.444   8.576
13638SOL    HW252543   1.307   0.300   8.622
13639SOL     OW52544   1.612   3.503   3.511
13639SOL    HW152545   1.640   3.519   3.601
13639SOL    HW252546   1.620   3.588   3.468
13640SOL     OW52547   0.315   2.272  11.378
13640SOL    HW152548   0.367   2.192  11.366
13640SOL    HW252549   0.304   2.280  11.473
13641SOL     OW52550   3.423   0.518  22.391
13641SOL    HW152551   3.512   0.487  22.405
13641SOL    HW252552   3.412   0.519  22.296
13642SOL     OW52553   3.268   4.756   6.073
13642SOL    HW152554   3.281   0.070   6.077
13642SOL    HW252555   3.184   4.741   6.117
13643SOL     OW52556   4.515   2.401  15.901
13643SOL    HW152557   4.529   2.360  15.816
13643SOL    HW252558   4.489   2.491  15.880
13644SOL     OW52559   2.394   4.293  21.922
13644SOL    HW152560   2.408   4.260  21.833
13644SOL    HW252561   2.472   4.344  21.941
13645SOL     OW52562   2.329   2.635   1.756
13645SOL    HW152563   2.269   2.678   1.694
13645SOL    HW252564   2.290   2.549   1.772
13646SOL     OW52565   0.033   4.272  27.040
13646SOL    HW152566   0.033   4.361  27.005
13646SOL    HW252567   0.002   4.282  27.130
13647SOL     OW52568   0.896   4.336   2.882
13647SOL    HW152569   0.981   4.348   2.925
13647SOL    HW252570   0.835   4.318   2.954
13648SOL     OW52571   1.944   4.159  25.515
13648SOL    HW152572   1.963   4.252  25.531
13648SOL    HW252573   2.018   4.129  25.462
13649SOL     OW52574   2.212   2.923   6.010
13649SOL    HW152575   2.269   2.993   5.979
13649SOL    HW252576   2.126   2.943   5.972
13650SOL     OW52577   2.651   3.307   9.448
13650SOL    HW152578   2.706   3.239   9.410
13650SOL    HW252579   2.707   3.349   9.513
13651SOL     OW52580   0.315   2.321   2.501
13651SOL    HW152581   0.236   2.371   2.524
13651SOL    HW252582   0.379   2.388   2.475
13652SOL     OW52583   4.373   0.553  24.782
13652SOL    HW152584   4.445   0.581  24.725
13652SOL    HW252585   4.416   0.505  24.853
13653SOL     OW52586   0.543   1.141  26.001
13653SOL    HW152587   0.479   1.074  26.026
13653SOL    HW252588   0.605   1.143  26.074
13654SOL     OW52589   1.077   0.296   7.781
13654SOL    HW152590   1.078   0.378   7.732
13654SOL    HW252591   1.160   0.254   7.759
13655SOL     OW52592   2.785   1.865  23.338
13655SOL    HW152593   2.748   1.938  23.388
13655SOL    HW252594   2.748   1.875  23.251
13656SOL     OW52595   1.234   1.667   2.954
13656SOL    HW152596   1.281   1.630   3.028
13656SOL    HW252597   1.290   1.648   2.878
13657SOL     OW52598   4.689   3.301   4.393
13657SOL    HW152599   4.696   3.206   4.383
13657SOL    HW252600   4.713   3.317   4.484
13658SOL     OW52601   3.457   0.191  20.273
13658SOL    HW152602   3.426   0.200  20.363
13658SOL    HW252603   3.424   0.106  20.244
13659SOL     OW52604   4.194   1.909  27.651
13659SOL    HW152605   4.208   2.003  27.640
13659SOL    HW252606   4.243   1.886  27.730
13660SOL     OW52607   3.319   1.246  22.549
13660SOL    HW152608   3.369   1.320  22.584
13660SOL    HW252609   3.368   1.219  22.472
13661SOL     OW52610   3.473   1.632  21.075
13661SOL    HW152611   3.475   1.581  20.994
13661SOL    HW252612   3.501   1.571  21.143
13662SOL     OW52613   4.419   0.104   0.534
13662SOL    HW152614   4.480   0.042   0.495
13662SOL    HW252615   4.334   0.059   0.530
13663SOL     OW52616   1.858   4.091   3.786
13663SOL    HW152617   1.763   4.082   3.797
13663SOL    HW252618   1.891   4.113   3.873
13664SOL     OW52619   3.181   4.607  19.601
13664SOL    HW152620   3.238   4.533  19.624
13664SOL    HW252621   3.240   4.683  19.598
13665SOL     OW52622   1.135   4.698  17.180
13665SOL    HW152623   1.043   4.716  17.199
13665SOL    HW252624   1.142   4.603  17.183
13666SOL     OW52625   3.440   3.652   4.047
13666SOL    HW152626   3.472   3.740   4.066
13666SOL    HW252627   3.463   3.638   3.955
13667SOL     OW52628   3.723   0.262   4.083
13667SOL    HW152629   3.711   0.206   4.159
13667SOL    HW252630   3.661   0.228   4.018
13668SOL     OW52631   2.019   0.205  10.191
13668SOL    HW152632   1.946   0.152  10.223
13668SOL    HW252633   2.076   0.216  10.267
13669SOL     OW52634   1.492   4.110   2.482
13669SOL    HW152635   1.457   4.198   2.494
13669SOL    HW252636   1.557   4.119   2.412
13670SOL     OW52637   3.432   1.208  19.599
13670SOL    HW152638   3.495   1.265  19.643
13670SOL    HW252639   3.354   1.211  19.654
13671SOL     OW52640   0.371   0.992  26.528
13671SOL    HW152641   0.447   0.938  26.547
13671SOL    HW252642   0.405   1.064  26.475
13672SOL     OW52643   0.021   4.364  26.599
13672SOL    HW152644   0.044   4.457  26.592
13672SOL    HW252645   0.080   4.329  26.665
13673SOL     OW52646   1.080   0.111  25.721
13673SOL    HW152647   1.128   0.032  25.696
13673SOL    HW252648   0.995   0.079  25.750
13674SOL     OW52649   4.585   0.779   6.508
13674SOL    HW152650   4.588   0.817   6.596
13674SOL    HW252651   4.538   0.697   6.519
13675SOL     OW52652   0.695   2.991  26.253
13675SOL    HW152653   0.620   2.986  26.312
13675SOL    HW252654   0.678   3.067  26.198
13676SOL     OW52655   0.801   4.497  26.086
13676SOL    HW152656   0.851   4.499  26.167
13676SOL    HW252657   0.784   4.589  26.066
13677SOL     OW52658   4.290   4.654  26.941
13677SOL    HW152659   4.305   4.746  26.964
13677SOL    HW252660   4.378   4.617  26.929
13678SOL     OW52661   4.016   2.213  23.864
13678SOL    HW152662   4.069   2.221  23.785
13678SOL    HW252663   3.926   2.221  23.834
13679SOL     OW52664   0.520   3.679  24.809
13679SOL    HW152665   0.517   3.706  24.901
13679SOL    HW252666   0.457   3.607  24.803
13680SOL     OW52667   0.947   2.843   0.692
13680SOL    HW152668   0.881   2.774   0.683
13680SOL    HW252669   1.016   2.804   0.746
13681SOL     OW52670   1.079   0.764   5.992
13681SOL    HW152671   1.150   0.722   5.943
13681SOL    HW252672   1.109   0.854   6.007
13682SOL     OW52673   3.311   1.073  25.665
13682SOL    HW152674   3.401   1.096  25.642
13682SOL    HW252675   3.257   1.110  25.595
13683SOL     OW52676   0.927   3.950  26.396
13683SOL    HW152677   0.997   3.884  26.395
13683SOL    HW252678   0.886   3.942  26.310
13684SOL     OW52679   4.429   3.927  23.816
13684SOL    HW152680   4.488   3.871  23.867
13684SOL    HW252681   4.481   3.953  23.740
13685SOL     OW52682   1.150   0.407  10.093
13685SOL    HW152683   1.235   0.401  10.137
13685SOL    HW252684   1.137   0.321  10.054
13686SOL     OW52685   1.853   4.501  21.427
13686SOL    HW152686   1.793   4.575  21.416
13686SOL    HW252687   1.940   4.541  21.427
13687SOL     OW52688   2.321   2.233   6.829
13687SOL    HW152689   2.415   2.249   6.838
13687SOL    HW252690   2.280   2.308   6.871
13688SOL     OW52691   1.356   0.249  13.347
13688SOL    HW152692   1.368   0.202  13.429
13688SOL    HW252693   1.442   0.286  13.328
13689SOL     OW52694   2.862   1.301   1.742
13689SOL    HW152695   2.927   1.370   1.756
13689SOL    HW252696   2.902   1.243   1.678
13690SOL     OW52697   0.609   2.308  20.489
13690SOL    HW152698   0.571   2.380  20.540
13690SOL    HW252699   0.699   2.302  20.521
13691SOL     OW52700   1.749   3.948  26.856
13691SOL    HW152701   1.786   4.033  26.881
13691SOL    HW252702   1.803   3.884  26.902
13692SOL     OW52703   1.121   0.337  10.897
13692SOL    HW152704   1.208   0.302  10.917
13692SOL    HW252705   1.065   0.260  10.891
13693SOL     OW52706   0.519   0.593   9.198
13693SOL    HW152707   0.522   0.680   9.159
13693SOL    HW252708   0.604   0.584   9.242
13694SOL     OW52709   3.165   1.738  11.727
13694SOL    HW152710   3.166   1.804  11.658
13694SOL    HW252711   3.105   1.670  11.696
13695SOL     OW52712   2.742   0.649  19.812
13695SOL    HW152713   2.647   0.647  19.803
13695SOL    HW252714   2.774   0.589  19.745
13696SOL     OW52715   2.005   4.581  17.543
13696SOL    HW152716   2.008   4.613  17.453
13696SOL    HW252717   1.931   4.626  17.583
13697SOL     OW52718   2.064   2.314  24.501
13697SOL    HW152719   2.102   2.340  24.417
13697SOL    HW252720   2.092   2.224  24.514
13698SOL     OW52721   1.541   2.623   2.696
13698SOL    HW152722   1.608   2.590   2.756
13698SOL    HW252723   1.590   2.672   2.630
13699SOL     OW52724   2.262   2.058  26.292
13699SOL    HW152725   2.173   2.037  26.265
13699SOL    HW252726   2.254   2.142  26.338
13700SOL     OW52727   3.454   3.488  20.679
13700SOL    HW152728   3.491   3.532  20.602
13700SOL    HW252729   3.361   3.511  20.678
13701SOL     OW52730   4.095   0.973  25.622
13701SOL    HW152731   4.110   1.027  25.544
13701SOL    HW252732   4.183   0.948  25.652
13702SOL     OW52733   4.137   0.892  17.779
13702SOL    HW152734   4.098   0.905  17.692
13702SOL    HW252735   4.227   0.922  17.770
13703SOL     OW52736   1.788   0.010  21.059
13703SOL    HW152737   1.754   4.731  20.992
13703SOL    HW252738   1.751   4.757  21.141
13704SOL     OW52739   0.220   4.415  25.751
13704SOL    HW152740   0.170   4.468  25.689
13704SOL    HW252741   0.161   4.344  25.775
13705SOL     OW52742   1.839   2.225  26.163
13705SOL    HW152743   1.855   2.252  26.254
13705SOL    HW252744   1.780   2.292  26.128
13706SOL     OW52745   1.587   3.236   8.009
13706SOL    HW152746   1.638   3.156   8.021
13706SOL    HW252747   1.520   3.233   8.077
13707SOL     OW52748   1.293   3.815  21.470
13707SOL    HW152749   1.332   3.795  21.385
13707SOL    HW252750   1.199   3.803  21.457
13708SOL     OW52751   3.173   2.693  19.777
13708SOL    HW152752   3.182   2.693  19.872
13708SOL    HW252753   3.253   2.735  19.745
13709SOL     OW52754   0.862   4.411  20.849
13709SOL    HW152755   0.855   4.329  20.800
13709SOL    HW252756   0.946   4.404  20.894
13710SOL     OW52757   3.117   3.190  27.855
13710SOL    HW152758   3.100   3.192  27.761
13710SOL    HW252759   3.074   3.269  27.888
13711SOL     OW52760   3.382   2.971   8.085
13711SOL    HW152761   3.334   2.915   8.147
13711SOL    HW252762   3.344   3.058   8.097
13712SOL     OW52763   4.609   1.951  27.713
13712SOL    HW152764   4.622   2.043  27.737
13712SOL    HW252765   4.587   1.953  27.620
13713SOL     OW52766   2.443   0.888   4.518
13713SOL    HW152767   2.409   0.860   4.603
13713SOL    HW252768   2.518   0.944   4.540
13714SOL     OW52769   4.771   0.199   7.417
13714SOL    HW152770   0.066   0.140   7.424
13714SOL    HW252771   0.010   0.270   7.478
13715SOL     OW52772   2.189   4.464  11.298
13715SOL    HW152773   2.271   4.486  11.341
13715SOL    HW252774   2.132   4.434  11.369
13716SOL     OW52775   1.677   1.442   4.234
13716SOL    HW152776   1.723   1.519   4.268
13716SOL    HW252777   1.635   1.473   4.154
13717SOL     OW52778   0.265   1.566   4.609
13717SOL    HW152779   0.247   1.659   4.624
13717SOL    HW252780   0.354   1.553   4.641
13718SOL     OW52781   1.995   0.730  23.208
13718SOL    HW152782   1.994   0.736  23.113
13718SOL    HW252783   1.911   0.690  23.231
13719SOL     OW52784   1.498   4.630   0.009
13719SOL    HW152785   1.472   4.617   0.100
13719SOL    HW252786   1.587   4.664   0.014
13720SOL     OW52787   4.199   2.208  25.780
13720SOL    HW152788   4.291   2.205  25.753
13720SOL    HW252789   4.176   2.117  25.798
13721SOL     OW52790   2.456   4.519  10.765
13721SOL    HW152791   2.370   4.560  10.773
13721SOL    HW252792   2.478   4.491  10.854
13722SOL     OW52793   3.969   4.366  27.657
13722SOL    HW152794   3.883   4.327  27.644
13722SOL    HW252795   3.951   4.452  27.694
13723SOL     OW52796   4.582   4.666  24.065
13723SOL    HW152797   4.594   4.634  23.976
13723SOL    HW252798   4.633   4.606  24.119
13724SOL     OW52799   1.768   1.095  23.603
13724SOL    HW152800   1.843   1.122  23.550
13724SOL    HW252801   1.703   1.163  23.588
13725SOL     OW52802   3.060   3.101   7.352
13725SOL    HW152803   3.018   3.046   7.286
13725SOL    HW252804   3.154   3.085   7.340
13726SOL     OW52805   4.630   2.794   8.873
13726SOL    HW152806   4.598   2.704   8.876
13726SOL    HW252807   4.597   2.829   8.790
13727SOL     OW52808   3.951   0.909  24.976
13727SOL    HW152809   3.973   0.897  25.068
13727SOL    HW252810   3.887   0.980  24.975
13728SOL     OW52811   1.799   3.072  21.205
13728SOL    HW152812   1.741   3.132  21.252
13728SOL    HW252813   1.750   2.990  21.201
13729SOL     OW52814   1.914   2.040  21.332
13729SOL    HW152815   1.843   2.061  21.393
13729SOL    HW252816   1.994   2.057  21.381
13730SOL     OW52817   3.409   4.449   4.066
13730SOL    HW152818   3.395   4.507   3.991
13730SOL    HW252819   3.344   4.379   4.054
13731SOL     OW52820   4.238   1.464  22.141
13731SOL    HW152821   4.180   1.483  22.215
13731SOL    HW252822   4.270   1.550  22.113
13732SOL     OW52823   1.335   4.474   9.026
13732SOL    HW152824   1.407   4.460   9.088
13732SOL    HW252825   1.314   4.567   9.034
13733SOL     OW52826   4.594   3.058  21.520
13733SOL    HW152827   4.528   3.107  21.569
13733SOL    HW252828   4.545   2.986  21.480
13734SOL     OW52829   1.730   2.992   8.139
13734SOL    HW152830   1.780   3.039   8.205
13734SOL    HW252831   1.791   2.980   8.067
13735SOL     OW52832   0.402   2.206   5.689
13735SOL    HW152833   0.406   2.135   5.625
13735SOL    HW252834   0.424   2.285   5.639
13736SOL     OW52835   2.659   1.871   7.501
13736SOL    HW152836   2.729   1.927   7.534
13736SOL    HW252837   2.582   1.898   7.551
13737SOL     OW52838   4.253   2.217   4.940
13737SOL    HW152839   4.161   2.200   4.919
13737SOL    HW252840   4.281   2.141   4.991
13738SOL     OW52841   1.677   3.581  24.002
13738SOL    HW152842   1.707   3.522  24.071
13738SOL    HW252843   1.720   3.664  24.022
13739SOL     OW52844   1.583   1.179   8.715
13739SOL    HW152845   1.660   1.236   8.709
13739SOL    HW252846   1.575   1.159   8.808
13740SOL     OW52847   3.003   0.876  10.526
13740SOL    HW152848   2.946   0.832  10.463
13740SOL    HW252849   2.943   0.920  10.586
13741SOL     OW52850   2.694   3.863  25.881
13741SOL    HW152851   2.769   3.909  25.844
13741SOL    HW252852   2.729   3.779  25.910
13742SOL     OW52853   2.656   3.943  21.923
13742SOL    HW152854   2.637   3.855  21.956
13742SOL    HW252855   2.627   4.002  21.993
13743SOL     OW52856   1.693   1.746   5.859
13743SOL    HW152857   1.678   1.837   5.884
13743SOL    HW252858   1.788   1.737   5.858
13744SOL     OW52859   1.944   1.534  20.738
13744SOL    HW152860   2.014   1.573  20.686
13744SOL    HW252861   1.867   1.587  20.717
13745SOL     OW52862   3.540   1.414  19.728
13745SOL    HW152863   3.594   1.490  19.706
13745SOL    HW252864   3.450   1.445  19.720
13746SOL     OW52865   3.324   0.365  27.823
13746SOL    HW152866   3.332   0.434  27.889
13746SOL    HW252867   3.271   0.404  27.754
13747SOL     OW52868   0.794   4.251   3.112
13747SOL    HW152869   0.865   4.275   3.171
13747SOL    HW252870   0.720   4.232   3.170
13748SOL     OW52871   4.529   0.492   0.645
13748SOL    HW152872   4.448   0.473   0.693
13748SOL    HW252873   4.514   0.458   0.557
13749SOL     OW52874   1.201   1.681  18.130
13749SOL    HW152875   1.260   1.755  18.117
13749SOL    HW252876   1.150   1.677  18.049
13750SOL     OW52877   4.348   2.558   3.504
13750SOL    HW152878   4.378   2.643   3.536
13750SOL    HW252879   4.365   2.560   3.410
13751SOL     OW52880   3.649   0.065   1.234
13751SOL    HW152881   3.656   0.150   1.278
13751SOL    HW252882   3.617   0.005   1.301
13752SOL     OW52883   2.055   3.937  10.984
13752SOL    HW152884   2.060   4.031  11.001
13752SOL    HW252885   2.088   3.896  11.064
13753SOL     OW52886   0.622   1.490  12.748
13753SOL    HW152887   0.594   1.399  12.739
13753SOL    HW252888   0.564   1.526  12.815
13754SOL     OW52889   3.156   2.012  20.313
13754SOL    HW152890   3.171   2.062  20.393
13754SOL    HW252891   3.190   1.925  20.333
13755SOL     OW52892   0.078   0.878  11.565
13755SOL    HW152893   0.149   0.916  11.617
13755SOL    HW252894   0.122   0.825  11.499
13756SOL     OW52895   3.124   1.696   8.683
13756SOL    HW152896   3.039   1.736   8.701
13756SOL    HW252897   3.167   1.692   8.768
13757SOL     OW52898   4.545   4.652  25.815
13757SOL    HW152899   4.601   4.599  25.759
13757SOL    HW252900   4.596   4.666  25.894
13758SOL     OW52901   2.042   3.452  23.625
13758SOL    HW152902   1.979   3.443  23.554
13758SOL    HW252903   2.126   3.429  23.585
13759SOL     OW52904   4.428   2.451  16.154
13759SOL    HW152905   4.481   2.434  16.076
13759SOL    HW252906   4.340   2.424  16.129
13760SOL     OW52907   0.390   4.005   5.442
13760SOL    HW152908   0.311   3.966   5.404
13760SOL    HW252909   0.357   4.070   5.504
13761SOL     OW52910   0.610   0.449  10.496
13761SOL    HW152911   0.587   0.463  10.404
13761SOL    HW252912   0.606   0.354  10.507
13762SOL     OW52913   3.941   2.848  19.893
13762SOL    HW152914   3.887   2.913  19.937
13762SOL    HW252915   4.021   2.895  19.870
13763SOL     OW52916   2.487   4.095  19.955
13763SOL    HW152917   2.542   4.084  20.033
13763SOL    HW252918   2.418   4.029  19.965
13764SOL     OW52919   2.974   0.520   7.463
13764SOL    HW152920   3.019   0.604   7.464
13764SOL    HW252921   3.031   0.462   7.513
13765SOL     OW52922   3.887   3.896  19.451
13765SOL    HW152923   3.857   3.923  19.538
13765SOL    HW252924   3.869   3.802  19.447
13766SOL     OW52925   3.112   2.799  21.086
13766SOL    HW152926   3.086   2.778  20.996
13766SOL    HW252927   3.056   2.873  21.110
13767SOL     OW52928   1.815   1.383   8.745
13767SOL    HW152929   1.781   1.468   8.773
13767SOL    HW252930   1.866   1.403   8.666
13768SOL     OW52931   0.480   2.450   9.661
13768SOL    HW152932   0.453   2.529   9.708
13768SOL    HW252933   0.576   2.451   9.665
13769SOL     OW52934   1.985   4.217   5.295
13769SOL    HW152935   2.014   4.226   5.386
13769SOL    HW252936   2.036   4.281   5.246
13770SOL     OW52937   3.722   0.562   3.831
13770SOL    HW152938   3.745   0.599   3.746
13770SOL    HW252939   3.797   0.583   3.887
13771SOL     OW52940   4.734   4.675  19.175
13771SOL    HW152941   4.660   4.665  19.236
13771SOL    HW252942   0.027   4.702  19.230
13772SOL     OW52943   3.737   0.356  24.815
13772SOL    HW152944   3.818   0.305  24.826
13772SOL    HW252945   3.767   0.446  24.801
13773SOL     OW52946   2.691   4.668   8.013
13773SOL    HW152947   2.757   4.737   8.025
13773SOL    HW252948   2.620   4.692   8.072
13774SOL     OW52949   4.279   4.106  24.080
13774SOL    HW152950   4.335   4.096  24.157
13774SOL    HW252951   4.271   4.017  24.045
13775SOL     OW52952   3.045   1.123   3.955
13775SOL    HW152953   3.130   1.084   3.974
13775SOL    HW252954   3.058   1.217   3.968
13776SOL     OW52955   1.377   4.431  21.328
13776SOL    HW152956   1.295   4.407  21.285
13776SOL    HW252957   1.441   4.433  21.257
13777SOL     OW52958   1.664   4.062  25.994
13777SOL    HW152959   1.593   3.997  25.991
13777SOL    HW252960   1.723   4.029  26.061
13778SOL     OW52961   1.734   3.265   5.661
13778SOL    HW152962   1.799   3.335   5.656
13778SOL    HW252963   1.693   3.264   5.575
13779SOL     OW52964   1.891   1.707  26.172
13779SOL    HW152965   1.844   1.790  26.175
13779SOL    HW252966   1.865   1.667  26.089
13780SOL     OW52967   1.703   2.133   1.119
13780SOL    HW152968   1.737   2.219   1.145
13780SOL    HW252969   1.610   2.137   1.142
13781SOL     OW52970   0.083   3.939   3.995
13781SOL    HW152971   0.153   4.002   4.011
13781SOL    HW252972   0.128   3.859   3.970
13782SOL     OW52973   4.006   2.190  27.465
13782SOL    HW152974   4.028   2.121  27.402
13782SOL    HW252975   3.950   2.147  27.529
13783SOL     OW52976   3.262   4.457  19.168
13783SOL    HW152977   3.352   4.465  19.198
13783SOL    HW252978   3.260   4.503  19.084
13784SOL     OW52979   4.389   3.441  10.253
13784SOL    HW152980   4.467   3.415  10.302
13784SOL    HW252981   4.382   3.535  10.268
13785SOL     OW52982   0.530   2.699   1.923
13785SOL    HW152983   0.562   2.765   1.984
13785SOL    HW252984   0.516   2.621   1.977
13786SOL     OW52985   3.016   1.633  18.798
13786SOL    HW152986   3.094   1.580  18.818
13786SOL    HW252987   2.943   1.581  18.831
13787SOL     OW52988   2.093   3.635   8.789
13787SOL    HW152989   2.183   3.657   8.812
13787SOL    HW252990   2.039   3.682   8.853
13788SOL     OW52991   0.261   1.917  20.140
13788SOL    HW152992   0.291   2.006  20.122
13788SOL    HW252993   0.176   1.929  20.183
13789SOL     OW52994   2.679   4.114  17.661
13789SOL    HW152995   2.745   4.044  17.656
13789SOL    HW252996   2.642   4.118  17.573
13790SOL     OW52997   4.415   1.914   1.955
13790SOL    HW152998   4.495   1.959   1.982
13790SOL    HW252999   4.428   1.823   1.983
13791SOL     OW53000   2.118   1.585   0.607
13791SOL    HW153001   2.176   1.614   0.677
13791SOL    HW253002   2.064   1.661   0.588
13792SOL     OW53003   4.016   1.327   9.249
13792SOL    HW153004   4.022   1.238   9.215
13792SOL    HW253005   3.923   1.337   9.271
13793SOL     OW53006   2.810   2.926   1.682
13793SOL    HW153007   2.862   2.852   1.713
13793SOL    HW253008   2.874   2.984   1.641
13794SOL     OW53009   1.597   4.563  23.784
13794SOL    HW153010   1.521   4.599  23.829
13794SOL    HW253011   1.667   4.626  23.800
13795SOL     OW53012   3.007   1.116   0.164
13795SOL    HW153013   3.100   1.099   0.177
13795SOL    HW253014   2.988   1.192   0.219
13796SOL     OW53015   0.654   0.199   1.484
13796SOL    HW153016   0.699   0.233   1.561
13796SOL    HW253017   0.591   0.136   1.518
13797SOL     OW53018   2.956   1.409  22.662
13797SOL    HW153019   3.033   1.438  22.712
13797SOL    HW253020   2.926   1.488  22.617
13798SOL     OW53021   3.221   4.215   0.356
13798SOL    HW153022   3.176   4.131   0.367
13798SOL    HW253023   3.240   4.220   0.262
13799SOL     OW53024   1.755   1.463   6.807
13799SOL    HW153025   1.793   1.514   6.736
13799SOL    HW253026   1.764   1.519   6.884
13800SOL     OW53027   0.698   0.203  22.433
13800SOL    HW153028   0.721   0.115  22.404
13800SOL    HW253029   0.780   0.252  22.430
13801SOL     OW53030   1.812   4.021   6.037
13801SOL    HW153031   1.792   4.061   6.122
13801SOL    HW253032   1.734   3.971   6.016
13802SOL     OW53033   4.552   2.798  22.521
13802SOL    HW153034   4.569   2.721  22.575
13802SOL    HW253035   4.586   2.871  22.572
13803SOL     OW53036   2.371   0.380  26.475
13803SOL    HW153037   2.357   0.287  26.491
13803SOL    HW253038   2.285   0.412  26.448
13804SOL     OW53039   4.205   4.464  10.520
13804SOL    HW153040   4.169   4.379  10.494
13804SOL    HW253041   4.254   4.445  10.600
13805SOL     OW53042   1.283   2.201   3.966
13805SOL    HW153043   1.261   2.250   3.887
13805SOL    HW253044   1.334   2.127   3.935
13806SOL     OW53045   3.479   2.699   6.711
13806SOL    HW153046   3.405   2.756   6.689
13806SOL    HW253047   3.445   2.641   6.780
13807SOL     OW53048   0.319   3.928   7.607
13807SOL    HW153049   0.304   3.971   7.691
13807SOL    HW253050   0.284   3.840   7.619
13808SOL     OW53051   4.468   3.303   7.288
13808SOL    HW153052   4.544   3.256   7.324
13808SOL    HW253053   4.477   3.294   7.193
13809SOL     OW53054   4.409   2.255  24.252
13809SOL    HW153055   4.436   2.346  24.261
13809SOL    HW253056   4.420   2.236  24.159
13810SOL     OW53057   1.874   4.439  25.079
13810SOL    HW153058   1.785   4.408  25.064
13810SOL    HW253059   1.919   4.365  25.120
13811SOL     OW53060   3.842   3.945  24.103
13811SOL    HW153061   3.840   3.852  24.126
13811SOL    HW253062   3.751   3.973  24.110
13812SOL     OW53063   1.395   2.895  27.561
13812SOL    HW153064   1.336   2.832  27.604
13812SOL    HW253065   1.406   2.861  27.472
13813SOL     OW53066   3.966   4.770  20.346
13813SOL    HW153067   3.979   4.753  20.253
13813SOL    HW253068   3.908   4.700  20.375
13814SOL     OW53069   3.383   3.526  26.190
13814SOL    HW153070   3.299   3.551  26.229
13814SOL    HW253071   3.424   3.468  26.255
13815SOL     OW53072   3.529   0.993  26.136
13815SOL    HW153073   3.446   0.979  26.182
13815SOL    HW253074   3.536   0.918  26.077
13816SOL     OW53075   1.212   1.237  16.359
13816SOL    HW153076   1.218   1.257  16.265
13816SOL    HW253077   1.218   1.142  16.364
13817SOL     OW53078   0.477   4.380  26.718
13817SOL    HW153079   0.388   4.366  26.750
13817SOL    HW253080   0.497   4.301  26.668
13818SOL     OW53081   4.736   0.098   2.931
13818SOL    HW153082   4.752   0.099   2.837
13818SOL    HW253083   4.674   0.027   2.945
13819SOL     OW53084   0.117   1.815   0.859
13819SOL    HW153085   0.130   1.729   0.899
13819SOL    HW253086   0.166   1.811   0.777
13820SOL     OW53087   4.258   1.373   0.537
13820SOL    HW153088   4.252   1.351   0.630
13820SOL    HW253089   4.224   1.296   0.492
13821SOL     OW53090   1.453   2.541  19.633
13821SOL    HW153091   1.516   2.475  19.662
13821SOL    HW253092   1.370   2.513  19.673
13822SOL     OW53093   4.366   1.558  10.157
13822SOL    HW153094   4.360   1.539  10.063
13822SOL    HW253095   4.347   1.474  10.199
13823SOL     OW53096   0.182   1.886   6.773
13823SOL    HW153097   0.203   1.915   6.684
13823SOL    HW253098   0.250   1.823   6.795
13824SOL     OW53099   1.491   2.056  25.162
13824SOL    HW153100   1.418   2.058  25.100
13824SOL    HW253101   1.480   1.974  25.210
13825SOL     OW53102   3.102   2.055  22.292
13825SOL    HW153103   3.084   1.990  22.360
13825SOL    HW253104   3.073   2.138  22.330
13826SOL     OW53105   1.894   4.506  26.587
13826SOL    HW153106   1.929   4.435  26.641
13826SOL    HW253107   1.944   4.500  26.505
13827SOL     OW53108   4.017   3.091  22.660
13827SOL    HW153109   3.935   3.044  22.648
13827SOL    HW253110   4.061   3.045  22.732
13828SOL     OW53111   3.137   2.285  25.551
13828SOL    HW153112   3.213   2.313  25.602
13828SOL    HW253113   3.136   2.190  25.560
13829SOL     OW53114   0.440   0.268  25.707
13829SOL    HW153115   0.400   0.351  25.679
13829SOL    HW253116   0.532   0.290  25.724
13830SOL     OW53117   0.578   3.298  23.858
13830SOL    HW153118   0.493   3.342  23.855
13830SOL    HW253119   0.580   3.257  23.945
13831SOL     OW53120   4.363   0.337   9.961
13831SOL    HW153121   4.394   0.278  10.030
13831SOL    HW253122   4.374   0.425   9.997
13832SOL     OW53123   1.083   0.562  12.476
13832SOL    HW153124   0.989   0.555  12.490
13832SOL    HW253125   1.117   0.476  12.500
13833SOL     OW53126   0.169   4.746  21.398
13833SOL    HW153127   0.165   4.650  21.398
13833SOL    HW253128   0.142   4.771  21.310
13834SOL     OW53129   4.307   0.328   4.380
13834SOL    HW153130   4.264   0.413   4.391
13834SOL    HW253131   4.278   0.276   4.455
13835SOL     OW53132   3.943   2.931   2.272
13835SOL    HW153133   3.910   2.995   2.335
13835SOL    HW253134   3.904   2.958   2.189
13836SOL     OW53135   1.897   0.895  27.390
13836SOL    HW153136   1.976   0.857  27.351
13836SOL    HW253137   1.907   0.879  27.484
13837SOL     OW53138   0.226   0.672  25.051
13837SOL    HW153139   0.283   0.697  24.979
13837SOL    HW253140   0.138   0.671  25.013
13838SOL     OW53141   1.113   1.951   9.870
13838SOL    HW153142   1.112   2.024   9.808
13838SOL    HW253143   1.077   1.878   9.820
13839SOL     OW53144   1.168   2.478  25.863
13839SOL    HW153145   1.163   2.438  25.776
13839SOL    HW253146   1.228   2.422  25.912
13840SOL     OW53147   4.335   0.107  27.081
13840SOL    HW153148   4.336   0.187  27.133
13840SOL    HW253149   4.415   0.111  27.028
13841SOL     OW53150   1.624   3.464   9.913
13841SOL    HW153151   1.699   3.461   9.854
13841SOL    HW253152   1.633   3.385   9.967
13842SOL     OW53153   2.937   1.362   4.833
13842SOL    HW153154   2.923   1.275   4.797
13842SOL    HW253155   2.904   1.422   4.766
13843SOL     OW53156   0.370   3.358  24.529
13843SOL    HW153157   0.353   3.323  24.442
13843SOL    HW253158   0.457   3.327  24.552
13844SOL     OW53159   4.294   2.432   3.750
13844SOL    HW153160   4.283   2.501   3.685
13844SOL    HW253161   4.385   2.441   3.779
13845SOL     OW53162   4.702   3.786   2.812
13845SOL    HW153163   4.770   3.725   2.785
13845SOL    HW253164   4.748   3.868   2.828
13846SOL     OW53165   0.861   1.649  24.033
13846SOL    HW153166   0.880   1.623  24.123
13846SOL    HW253167   0.766   1.655  24.029
13847SOL     OW53168   2.812   2.978   6.292
13847SOL    HW153169   2.837   3.045   6.228
13847SOL    HW253170   2.798   2.899   6.239
13848SOL     OW53171   0.686   2.411  26.697
13848SOL    HW153172   0.664   2.366  26.778
13848SOL    HW253173   0.639   2.362  26.629
13849SOL     OW53174   0.557   3.649   7.826
13849SOL    HW153175   0.604   3.617   7.903
13849SOL    HW253176   0.526   3.736   7.851
13850SOL     OW53177   3.513   3.871  20.714
13850SOL    HW153178   3.504   3.962  20.686
13850SOL    HW253179   3.432   3.853  20.761
13851SOL     OW53180   1.272   1.309  28.035
13851SOL    HW153181   1.338   1.328  28.102
13851SOL    HW253182   1.240   1.222  28.057
13852SOL     OW53183   0.786   1.351   2.680
13852SOL    HW153184   0.731   1.298   2.738
13852SOL    HW253185   0.795   1.298   2.601
13853SOL     OW53186   1.648   4.507  19.683
13853SOL    HW153187   1.598   4.563  19.742
13853SOL    HW253188   1.585   4.442  19.652
13854SOL     OW53189   1.282   3.178  21.131
13854SOL    HW153190   1.285   3.259  21.080
13854SOL    HW253191   1.272   3.109  21.065
13855SOL     OW53192   1.669   1.646   7.752
13855SOL    HW153193   1.655   1.667   7.844
13855SOL    HW253194   1.652   1.728   7.706
13856SOL     OW53195   2.692   0.779   7.532
13856SOL    HW153196   2.706   0.842   7.462
13856SOL    HW253197   2.634   0.824   7.594
13857SOL     OW53198   1.061   3.144   2.920
13857SOL    HW153199   0.988   3.203   2.904
13857SOL    HW253200   1.020   3.064   2.953
13858SOL     OW53201   3.859   4.055  26.142
13858SOL    HW153202   3.787   4.075  26.082
13858SOL    HW253203   3.866   3.960  26.140
13859SOL     OW53204   4.686   0.129   3.320
13859SOL    HW153205   4.754   0.184   3.359
13859SOL    HW253206   4.652   0.181   3.247
13860SOL     OW53207   0.823   2.527   2.156
13860SOL    HW153208   0.880   2.603   2.168
13860SOL    HW253209   0.829   2.507   2.063
13861SOL     OW53210   3.436   2.710   0.982
13861SOL    HW153211   3.344   2.683   0.984
13861SOL    HW253212   3.457   2.719   0.889
13862SOL     OW53213   2.673   3.493   7.910
13862SOL    HW153214   2.750   3.480   7.965
13862SOL    HW253215   2.684   3.431   7.838
13863SOL     OW53216   3.044   2.169  19.084
13863SOL    HW153217   3.018   2.261  19.085
13863SOL    HW253218   3.068   2.152  18.993
13864SOL     OW53219   4.306   3.112  25.714
13864SOL    HW153220   4.300   3.019  25.694
13864SOL    HW253221   4.240   3.153  25.657
13865SOL     OW53222   1.360   3.881   2.630
13865SOL    HW153223   1.390   3.961   2.587
13865SOL    HW253224   1.412   3.811   2.590
13866SOL     OW53225   2.677   0.902  26.282
13866SOL    HW153226   2.716   0.963  26.219
13866SOL    HW253227   2.617   0.956  26.333
13867SOL     OW53228   2.816   0.718   5.595
13867SOL    HW153229   2.814   0.791   5.656
13867SOL    HW253230   2.893   0.667   5.620
13868SOL     OW53231   1.215   2.608  24.529
13868SOL    HW153232   1.237   2.570  24.614
13868SOL    HW253233   1.158   2.543  24.488
13869SOL     OW53234   0.402   1.821  15.341
13869SOL    HW153235   0.352   1.819  15.259
13869SOL    HW253236   0.481   1.770  15.323
13870SOL     OW53237   0.221   3.342   5.165
13870SOL    HW153238   0.194   3.264   5.117
13870SOL    HW253239   0.180   3.415   5.119
13871SOL     OW53240   0.304   4.312  20.643
13871SOL    HW153241   0.323   4.403  20.667
13871SOL    HW253242   0.230   4.287  20.699
13872SOL     OW53243   1.905   1.391   5.039
13872SOL    HW153244   1.882   1.425   4.952
13872SOL    HW253245   1.966   1.320   5.022
13873SOL     OW53246   4.597   0.816  24.330
13873SOL    HW153247   4.563   0.852  24.248
13873SOL    HW253248   4.598   0.721  24.316
13874SOL     OW53249   0.447   0.834  18.077
13874SOL    HW153250   0.365   0.882  18.087
13874SOL    HW253251   0.455   0.818  17.983
13875SOL     OW53252   4.752   2.513   5.284
13875SOL    HW153253   4.697   2.591   5.288
13875SOL    HW253254   0.028   2.527   5.208
13876SOL     OW53255   4.545   2.753  23.566
13876SOL    HW153256   4.630   2.785  23.597
13876SOL    HW253257   4.532   2.798  23.482
13877SOL     OW53258   1.241   1.259   9.615
13877SOL    HW153259   1.249   1.309   9.696
13877SOL    HW253260   1.204   1.175   9.642
13878SOL     OW53261   3.076   1.404  25.900
13878SOL    HW153262   3.004   1.372  25.954
13878SOL    HW253263   3.040   1.482  25.857
13879SOL     OW53264   4.021   2.323  23.415
13879SOL    HW153265   3.932   2.344  23.445
13879SOL    HW253266   4.036   2.381  23.340
13880SOL     OW53267   4.025   1.187   6.873
13880SOL    HW153268   4.120   1.174   6.870
13880SOL    HW253269   4.008   1.214   6.963
13881SOL     OW53270   0.588   1.586   0.395
13881SOL    HW153271   0.590   1.646   0.320
13881SOL    HW253272   0.606   1.642   0.471
13882SOL     OW53273   0.351   2.384  18.499
13882SOL    HW153274   0.347   2.451  18.567
13882SOL    HW253275   0.347   2.433  18.417
13883SOL     OW53276   1.098   3.202   3.309
13883SOL    HW153277   1.134   3.248   3.233
13883SOL    HW253278   1.127   3.253   3.384
13884SOL     OW53279   4.245   4.758   2.479
13884SOL    HW153280   4.339   4.739   2.475
13884SOL    HW253281   4.235   0.038   2.553
13885SOL     OW53282   0.705   1.718  26.731
13885SOL    HW153283   0.693   1.813  26.727
13885SOL    HW253284   0.650   1.684  26.661
13886SOL     OW53285   3.118   3.430   5.293
13886SOL    HW153286   3.197   3.435   5.347
13886SOL    HW253287   3.086   3.520   5.289
13887SOL     OW53288   0.789   2.880  25.519
13887SOL    HW153289   0.702   2.900  25.554
13887SOL    HW253290   0.781   2.892  25.424
13888SOL     OW53291   0.687   1.941  21.216
13888SOL    HW153292   0.613   1.998  21.236
13888SOL    HW253293   0.667   1.859  21.261
13889SOL     OW53294   0.402   0.229  19.270
13889SOL    HW153295   0.390   0.263  19.358
13889SOL    HW253296   0.466   0.288  19.230
13890SOL     OW53297   1.502   3.108   1.342
13890SOL    HW153298   1.496   3.069   1.429
13890SOL    HW253299   1.569   3.056   1.298
13891SOL     OW53300   2.488   0.159  27.185
13891SOL    HW153301   2.530   0.095  27.127
13891SOL    HW253302   2.434   0.213  27.127
13892SOL     OW53303   0.499   0.289  16.874
13892SOL    HW153304   0.406   0.266  16.875
13892SOL    HW253305   0.507   0.354  16.805
13893SOL     OW53306   3.810   2.507   5.728
13893SOL    HW153307   3.824   2.590   5.773
13893SOL    HW253308   3.785   2.446   5.797
13894SOL     OW53309   0.692   0.820  21.797
13894SOL    HW153310   0.644   0.776  21.868
13894SOL    HW253311   0.724   0.749  21.742
13895SOL     OW53312   0.603   4.062   8.955
13895SOL    HW153313   0.633   3.972   8.943
13895SOL    HW253314   0.547   4.059   9.033
13896SOL     OW53315   2.337   0.875   3.057
13896SOL    HW153316   2.248   0.878   3.091
13896SOL    HW253317   2.348   0.958   3.010
13897SOL     OW53318   3.517   3.014  21.945
13897SOL    HW153319   3.537   2.937  21.891
13897SOL    HW253320   3.498   2.978  22.032
13898SOL     OW53321   4.584   0.696   2.520
13898SOL    HW153322   4.603   0.782   2.482
13898SOL    HW253323   4.570   0.639   2.444
13899SOL     OW53324   2.527   0.616  20.484
13899SOL    HW153325   2.601   0.632  20.426
13899SOL    HW253326   2.544   0.670  20.561
13900SOL     OW53327   2.211   3.172  28.194
13900SOL    HW153328   2.301   3.198  28.173
13900SOL    HW253329   2.156   3.235  28.148
13901SOL     OW53330   2.412   0.924  23.125
13901SOL    HW153331   2.361   0.878  23.192
13901SOL    HW253332   2.501   0.926  23.160
13902SOL     OW53333   0.477   3.924  27.863
13902SOL    HW153334   0.387   3.890  27.862
13902SOL    HW253335   0.480   3.985  27.789
13903SOL     OW53336   0.437   1.848  21.654
13903SOL    HW153337   0.510   1.798  21.690
13903SOL    HW253338   0.431   1.925  21.711
13904SOL     OW53339   0.936   3.000   4.243
13904SOL    HW153340   0.866   2.980   4.305
13904SOL    HW253341   0.966   2.914   4.212
13905SOL     OW53342   2.220   2.368   8.861
13905SOL    HW153343   2.165   2.446   8.858
13905SOL    HW253344   2.287   2.388   8.927
13906SOL     OW53345   3.312   0.099   4.335
13906SOL    HW153346   3.266   0.025   4.295
13906SOL    HW253347   3.276   0.176   4.291
13907SOL     OW53348   0.039   1.865  18.036
13907SOL    HW153349   0.050   1.883  17.943
13907SOL    HW253350   0.058   1.948  18.079
13908SOL     OW53351   0.461   2.856   5.925
13908SOL    HW153352   0.419   2.792   5.983
13908SOL    HW253353   0.474   2.933   5.980
13909SOL     OW53354   2.183   2.123  21.752
13909SOL    HW153355   2.169   2.177  21.674
13909SOL    HW253356   2.278   2.120  21.762
13910SOL     OW53357   1.925   1.687   1.342
13910SOL    HW153358   1.944   1.595   1.326
13910SOL    HW253359   1.832   1.696   1.320
13911SOL     OW53360   2.559   3.422   3.738
13911SOL    HW153361   2.493   3.490   3.725
13911SOL    HW253362   2.606   3.418   3.655
13912SOL     OW53363   3.829   3.177   4.678
13912SOL    HW153364   3.780   3.256   4.655
13912SOL    HW253365   3.763   3.108   4.681
13913SOL     OW53366   1.349   3.484  28.148
13913SOL    HW153367   1.314   3.401  28.115
13913SOL    HW253368   1.279   3.547  28.134
13914SOL     OW53369   0.625   2.978  28.452
13914SOL    HW153370   0.656   3.069  28.451
13914SOL    HW253371   0.661   2.940  28.372
13915SOL     OW53372   2.437   4.178  20.823
13915SOL    HW153373   2.472   4.127  20.750
13915SOL    HW253374   2.387   4.248  20.782
13916SOL     OW53375   3.144   1.766   8.414
13916SOL    HW153376   3.130   1.729   8.501
13916SOL    HW253377   3.117   1.857   8.422
13917SOL     OW53378   4.079   1.880  23.938
13917SOL    HW153379   4.013   1.847  23.999
13917SOL    HW253380   4.036   1.878  23.852
13918SOL     OW53381   2.570   3.653   6.551
13918SOL    HW153382   2.534   3.731   6.508
13918SOL    HW253383   2.586   3.680   6.641
13919SOL     OW53384   4.751   4.162   0.563
13919SOL    HW153385   4.776   4.142   0.473
13919SOL    HW253386   4.700   4.243   0.557
13920SOL     OW53387   0.184   2.157   7.424
13920SOL    HW153388   0.146   2.073   7.398
13920SOL    HW253389   0.266   2.162   7.375
13921SOL     OW53390   3.448   4.402  24.448
13921SOL    HW153391   3.445   4.465  24.520
13921SOL    HW253392   3.505   4.442  24.383
13922SOL     OW53393   4.709   1.835  26.439
13922SOL    HW153394   4.699   1.757  26.384
13922SOL    HW253395   4.622   1.875  26.441
13923SOL     OW53396   4.228   1.359   6.437
13923SOL    HW153397   4.248   1.442   6.480
13923SOL    HW253398   4.149   1.327   6.481
13924SOL     OW53399   1.689   3.015  11.095
13924SOL    HW153400   1.737   2.966  11.161
13924SOL    HW253401   1.607   3.040  11.139
13925SOL     OW53402   2.192   0.352  27.635
13925SOL    HW153403   2.206   0.259  27.650
13925SOL    HW253404   2.279   0.391  27.646
13926SOL     OW53405   2.425   3.682   4.803
13926SOL    HW153406   2.474   3.624   4.745
13926SOL    HW253407   2.346   3.633   4.825
13927SOL     OW53408   4.523   4.335   0.539
13927SOL    HW153409   4.557   4.408   0.590
13927SOL    HW253410   4.478   4.377   0.465
13928SOL     OW53411   1.927   3.000  24.095
13928SOL    HW153412   1.912   3.081  24.144
13928SOL    HW253413   2.022   2.988  24.099
13929SOL     OW53414   4.024   3.142  20.479
13929SOL    HW153415   4.037   3.065  20.534
13929SOL    HW253416   3.952   3.189  20.521
13930SOL     OW53417   0.374   0.573  27.003
13930SOL    HW153418   0.401   0.482  27.014
13930SOL    HW253419   0.279   0.569  26.989
13931SOL     OW53420   1.906   3.083   2.908
13931SOL    HW153421   1.985   3.120   2.946
13931SOL    HW253422   1.840   3.152   2.916
13932SOL     OW53423   1.640   2.644   7.508
13932SOL    HW153424   1.632   2.633   7.413
13932SOL    HW253425   1.734   2.656   7.523
13933SOL     OW53426   3.537   2.607   4.790
13933SOL    HW153427   3.466   2.543   4.785
13933SOL    HW253428   3.495   2.692   4.777
13934SOL     OW53429   3.452   0.940   2.173
13934SOL    HW153430   3.459   1.029   2.207
13934SOL    HW253431   3.513   0.937   2.100
13935SOL     OW53432   0.222   0.238   3.768
13935SOL    HW153433   0.281   0.313   3.756
13935SOL    HW253434   0.255   0.171   3.708
13936SOL     OW53435   2.012   3.046   6.438
13936SOL    HW153436   2.023   3.049   6.533
13936SOL    HW253437   1.918   3.032   6.425
13937SOL     OW53438   0.947   4.154  20.177
13937SOL    HW153439   0.857   4.143  20.207
13937SOL    HW253440   0.989   4.070  20.196
13938SOL     OW53441   1.700   4.341   5.575
13938SOL    HW153442   1.625   4.283   5.564
13938SOL    HW253443   1.662   4.429   5.578
13939SOL     OW53444   1.867   4.761  27.793
13939SOL    HW153445   1.773   4.749  27.802
13939SOL    HW253446   1.903   4.726  27.874
13940SOL     OW53447   1.638   2.386  19.764
13940SOL    HW153448   1.675   2.402  19.851
13940SOL    HW253449   1.713   2.392  19.705
13941SOL     OW53450   3.182   3.221   0.322
13941SOL    HW153451   3.270   3.236   0.288
13941SOL    HW253452   3.127   3.280   0.271
13942SOL     OW53453   2.826   4.542  25.728
13942SOL    HW153454   2.777   4.624  25.730
13942SOL    HW253455   2.764   4.477  25.761
13943SOL     OW53456   3.160   1.940  23.160
13943SOL    HW153457   3.066   1.955  23.162
13943SOL    HW253458   3.195   1.996  23.230
13944SOL     OW53459   3.872   1.292  23.719
13944SOL    HW153460   3.879   1.378  23.760
13944SOL    HW253461   3.799   1.300  23.658
13945SOL     OW53462   3.859   2.549  26.667
13945SOL    HW153463   3.946   2.584  26.687
13945SOL    HW253464   3.830   2.599  26.591
13946SOL     OW53465   1.833   3.830  23.116
13946SOL    HW153466   1.813   3.850  23.208
13946SOL    HW253467   1.926   3.851  23.106
13947SOL     OW53468   3.977   0.508  17.666
13947SOL    HW153469   3.937   0.528  17.751
13947SOL    HW253470   4.056   0.458  17.688
13948SOL     OW53471   4.368   0.856  24.660
13948SOL    HW153472   4.312   0.922  24.700
13948SOL    HW253473   4.344   0.857  24.567
13949SOL     OW53474   1.072   1.411   5.797
13949SOL    HW153475   1.005   1.412   5.729
13949SOL    HW253476   1.059   1.328   5.843
13950SOL     OW53477   2.178   0.427   0.720
13950SOL    HW153478   2.148   0.481   0.647
13950SOL    HW253479   2.098   0.398   0.763
13951SOL     OW53480   1.819   1.451   7.824
13951SOL    HW153481   1.776   1.426   7.906
13951SOL    HW253482   1.773   1.531   7.797
13952SOL     OW53483   0.098   1.197   3.696
13952SOL    HW153484   0.041   1.248   3.754
13952SOL    HW253485   0.109   1.252   3.618
13953SOL     OW53486   2.442   1.071  27.801
13953SOL    HW153487   2.427   1.129  27.876
13953SOL    HW253488   2.377   1.098  27.736
13954SOL     OW53489   2.012   0.956  23.378
13954SOL    HW153490   1.996   0.878  23.325
13954SOL    HW253491   2.044   1.021  23.315
13955SOL     OW53492   1.505   4.250   1.141
13955SOL    HW153493   1.422   4.281   1.176
13955SOL    HW253494   1.482   4.174   1.087
13956SOL     OW53495   2.372   0.776   8.685
13956SOL    HW153496   2.307   0.717   8.647
13956SOL    HW253497   2.428   0.801   8.612
13957SOL     OW53498   3.664   3.950  20.958
13957SOL    HW153499   3.594   4.014  20.970
13957SOL    HW253500   3.636   3.896  20.884
13958SOL     OW53501   2.979   2.023  26.776
13958SOL    HW153502   2.982   2.021  26.680
13958SOL    HW253503   2.892   1.990  26.797
13959SOL     OW53504   1.376   3.583   2.666
13959SOL    HW153505   1.338   3.556   2.582
13959SOL    HW253506   1.470   3.592   2.649
13960SOL     OW53507   2.104   2.301   9.218
13960SOL    HW153508   2.132   2.388   9.190
13960SOL    HW253509   2.017   2.315   9.256
13961SOL     OW53510   1.016   2.162   8.455
13961SOL    HW153511   0.937   2.111   8.439
13961SOL    HW253512   1.051   2.127   8.537
13962SOL     OW53513   4.365   2.696  16.620
13962SOL    HW153514   4.378   2.611  16.663
13962SOL    HW253515   4.367   2.676  16.526
13963SOL     OW53516   0.947   3.909   6.276
13963SOL    HW153517   1.040   3.889   6.263
13963SOL    HW253518   0.901   3.849   6.218
13964SOL     OW53519   0.305   0.576  14.541
13964SOL    HW153520   0.399   0.558  14.539
13964SOL    HW253521   0.265   0.490  14.551
13965SOL     OW53522   2.777   0.364  27.270
13965SOL    HW153523   2.808   0.454  27.274
13965SOL    HW253524   2.722   0.361  27.191
13966SOL     OW53525   0.136   1.417   7.932
13966SOL    HW153526   0.227   1.437   7.955
13966SOL    HW253527   0.100   1.501   7.904
13967SOL     OW53528   0.556   2.635   4.411
13967SOL    HW153529   0.555   2.548   4.371
13967SOL    HW253530   0.648   2.653   4.428
13968SOL     OW53531   1.376   0.876  22.371
13968SOL    HW153532   1.303   0.864  22.432
13968SOL    HW253533   1.342   0.936  22.305
13969SOL     OW53534   4.547   3.294  25.529
13969SOL    HW153535   4.558   3.351  25.605
13969SOL    HW253536   4.595   3.338  25.459
13970SOL     OW53537   1.649   3.622   7.407
13970SOL    HW153538   1.581   3.615   7.474
13970SOL    HW253539   1.610   3.676   7.339
13971SOL     OW53540   2.388   2.452   8.355
13971SOL    HW153541   2.426   2.518   8.297
13971SOL    HW253542   2.438   2.372   8.338
13972SOL     OW53543   2.648   4.267  10.830
13972SOL    HW153544   2.694   4.194  10.788
13972SOL    HW253545   2.563   4.270  10.785
13973SOL     OW53546   1.272   2.088  22.406
13973SOL    HW153547   1.346   2.149  22.400
13973SOL    HW253548   1.261   2.055  22.317
13974SOL     OW53549   2.410   4.317   7.588
13974SOL    HW153550   2.396   4.231   7.628
13974SOL    HW253551   2.385   4.305   7.496
13975SOL     OW53552   1.897   3.642  26.641
13975SOL    HW153553   1.824   3.607  26.692
13975SOL    HW253554   1.858   3.665  26.556
13976SOL     OW53555   3.177   1.796   1.544
13976SOL    HW153556   3.258   1.764   1.583
13976SOL    HW253557   3.113   1.726   1.560
13977SOL     OW53558   2.337   3.853   2.761
13977SOL    HW153559   2.262   3.884   2.711
13977SOL    HW253560   2.298   3.808   2.836
13978SOL     OW53561   2.701   3.105  25.412
13978SOL    HW153562   2.736   3.194  25.421
13978SOL    HW253563   2.779   3.050  25.402
13979SOL     OW53564   2.068   4.085   8.975
13979SOL    HW153565   2.061   4.056   8.884
13979SOL    HW253566   2.066   4.180   8.970
13980SOL     OW53567   0.683   0.590   0.516
13980SOL    HW153568   0.741   0.656   0.555
13980SOL    HW253569   0.698   0.512   0.569
13981SOL     OW53570   1.330   3.163  10.471
13981SOL    HW153571   1.360   3.072  10.465
13981SOL    HW253572   1.402   3.209  10.513
13982SOL     OW53573   2.453   4.569   4.406
13982SOL    HW153574   2.416   4.558   4.494
13982SOL    HW253575   2.433   4.487   4.361
13983SOL     OW53576   3.286   3.524  27.870
13983SOL    HW153577   3.326   3.508  27.785
13983SOL    HW253578   3.192   3.530  27.852
13984SOL     OW53579   3.110   1.581  24.152
13984SOL    HW153580   3.177   1.518  24.180
13984SOL    HW253581   3.061   1.535  24.084
13985SOL     OW53582   2.899   0.533   2.264
13985SOL    HW153583   2.867   0.591   2.195
13985SOL    HW253584   2.859   0.448   2.245
13986SOL     OW53585   0.812   1.250   2.413
13986SOL    HW153586   0.880   1.281   2.353
13986SOL    HW253587   0.730   1.264   2.366
13987SOL     OW53588   4.053   1.473  11.170
13987SOL    HW153589   4.029   1.530  11.243
13987SOL    HW253590   3.970   1.435  11.141
13988SOL     OW53591   1.260   2.280   2.069
13988SOL    HW153592   1.292   2.307   2.155
13988SOL    HW253593   1.170   2.250   2.085
13989SOL     OW53594   1.428   3.585  10.465
13989SOL    HW153595   1.376   3.545  10.535
13989SOL    HW253596   1.472   3.659  10.507
13990SOL     OW53597   4.138   2.235  25.025
13990SOL    HW153598   4.110   2.232  25.116
13990SOL    HW253599   4.102   2.155  24.986
13991SOL     OW53600   3.923   1.174   2.443
13991SOL    HW153601   3.983   1.161   2.370
13991SOL    HW253602   3.842   1.132   2.415
13992SOL     OW53603   1.293   0.216  21.571
13992SOL    HW153604   1.276   0.245  21.481
13992SOL    HW253605   1.386   0.195  21.572
13993SOL     OW53606   1.619   3.421  28.082
13993SOL    HW153607   1.538   3.461  28.114
13993SOL    HW253608   1.653   3.484  28.018
13994SOL     OW53609   2.012   3.424   0.014
13994SOL    HW153610   2.022   3.432   0.109
13994SOL    HW253611   2.090   3.466  28.497
13995SOL     OW53612   2.856   0.570   9.988
13995SOL    HW153613   2.907   0.516   9.928
13995SOL    HW253614   2.818   0.638   9.933
13996SOL     OW53615   2.124   4.036   7.534
13996SOL    HW153616   2.177   4.043   7.614
13996SOL    HW253617   2.153   4.109   7.479
13997SOL     OW53618   2.453   1.183  24.848
13997SOL    HW153619   2.417   1.269  24.869
13997SOL    HW253620   2.391   1.145  24.785
13998SOL     OW53621   1.552   1.284   7.627
13998SOL    HW153622   1.607   1.333   7.565
13998SOL    HW253623   1.493   1.233   7.571
13999SOL     OW53624   3.209   2.415   7.006
13999SOL    HW153625   3.117   2.427   7.031
13999SOL    HW253626   3.211   2.328   6.966
14000SOL     OW53627   0.631   3.903   8.189
14000SOL    HW153628   0.710   3.865   8.227
14000SOL    HW253629   0.595   3.959   8.258
14001SOL     OW53630   0.406   4.378   8.221
14001SOL    HW153631   0.346   4.304   8.216
14001SOL    HW253632   0.419   4.405   8.130
14002SOL     OW53633   1.472   2.492  21.152
14002SOL    HW153634   1.441   2.431  21.085
14002SOL    HW253635   1.567   2.493  21.142
14003SOL     OW53636   4.127   3.054  25.279
14003SOL    HW153637   4.189   3.092  25.217
14003SOL    HW253638   4.098   3.128  25.332
14004SOL     OW53639   0.754   2.891  21.597
14004SOL    HW153640   0.764   2.815  21.539
14004SOL    HW253641   0.664   2.920  21.582
14005SOL     OW53642   1.080   2.062   6.795
14005SOL    HW153643   1.083   2.061   6.699
14005SOL    HW253644   1.170   2.042   6.822
14006SOL     OW53645   3.283   4.419   3.612
14006SOL    HW153646   3.351   4.422   3.544
14006SOL    HW253647   3.204   4.452   3.568
14007SOL     OW53648   4.411   0.535  21.595
14007SOL    HW153649   4.476   0.514  21.528
14007SOL    HW253650   4.383   0.624  21.575
14008SOL     OW53651   0.841   1.563   6.374
14008SOL    HW153652   0.794   1.635   6.332
14008SOL    HW253653   0.899   1.529   6.306
14009SOL     OW53654   0.104   0.029  25.509
14009SOL    HW153655   0.076   0.087  25.580
14009SOL    HW253656   0.193   0.058  25.489
14010SOL     OW53657   3.085   1.616  21.527
14010SOL    HW153658   2.994   1.610  21.498
14010SOL    HW253659   3.126   1.535  21.496
14011SOL     OW53660   3.231   3.941   4.274
14011SOL    HW153661   3.326   3.952   4.271
14011SOL    HW253662   3.200   4.008   4.335
14012SOL     OW53663   1.243   4.644  19.333
14012SOL    HW153664   1.162   4.688  19.359
14012SOL    HW253665   1.215   4.559  19.298
14013SOL     OW53666   3.395   2.053  25.893
14013SOL    HW153667   3.400   1.957  25.895
14013SOL    HW253668   3.477   2.081  25.852
14014SOL     OW53669   4.363   2.012  20.310
14014SOL    HW153670   4.375   1.950  20.382
14014SOL    HW253671   4.346   2.096  20.353
14015SOL     OW53672   4.661   2.387  24.177
14015SOL    HW153673   4.672   2.447  24.103
14015SOL    HW253674   4.656   2.444  24.254
14016SOL     OW53675   1.859   1.075   9.178
14016SOL    HW153676   1.921   1.146   9.197
14016SOL    HW253677   1.910   1.010   9.130
14017SOL     OW53678   2.485   0.398  24.931
14017SOL    HW153679   2.491   0.494  24.931
14017SOL    HW253680   2.557   0.369  24.874
14018SOL     OW53681   0.741   2.758  27.721
14018SOL    HW153682   0.699   2.722  27.799
14018SOL    HW253683   0.709   2.848  27.716
14019SOL     OW53684   2.264   2.113  27.231
14019SOL    HW153685   2.265   2.108  27.135
14019SOL    HW253686   2.171   2.105  27.254
14020SOL     OW53687   0.776   2.859   8.615
14020SOL    HW153688   0.795   2.775   8.658
14020SOL    HW253689   0.707   2.839   8.552
14021SOL     OW53690   3.376   2.049  17.435
14021SOL    HW153691   3.384   2.082  17.346
14021SOL    HW253692   3.433   2.106  17.487
14022SOL     OW53693   1.058   0.051  26.948
14022SOL    HW153694   1.013   0.083  26.870
14022SOL    HW253695   0.998   4.767  26.986
14023SOL     OW53696   0.821   2.887   2.432
14023SOL    HW153697   0.864   2.926   2.508
14023SOL    HW253698   0.892   2.846   2.383
14024SOL     OW53699   1.178   0.301  25.891
14024SOL    HW153700   1.097   0.351  25.901
14024SOL    HW253701   1.160   0.241  25.819
14025SOL     OW53702   0.306   1.857   0.093
14025SOL    HW153703   0.366   1.785   0.073
14025SOL    HW253704   0.353   1.911   0.157
14026SOL     OW53705   3.050   2.203   6.841
14026SOL    HW153706   3.080   2.119   6.807
14026SOL    HW253707   2.999   2.181   6.919
14027SOL     OW53708   2.635   4.348   3.899
14027SOL    HW153709   2.702   4.287   3.867
14027SOL    HW253710   2.647   4.427   3.847
14028SOL     OW53711   1.410   2.470  18.043
14028SOL    HW153712   1.315   2.476  18.039
14028SOL    HW253713   1.429   2.378  18.024
14029SOL     OW53714   3.466   1.631   4.371
14029SOL    HW153715   3.540   1.683   4.339
14029SOL    HW253716   3.413   1.615   4.293
14030SOL     OW53717   1.462   0.453   4.370
14030SOL    HW153718   1.394   0.517   4.390
14030SOL    HW253719   1.524   0.460   4.442
14031SOL     OW53720   2.352   4.270  21.087
14031SOL    HW153721   2.370   4.262  20.993
14031SOL    HW253722   2.432   4.239  21.130
14032SOL     OW53723   3.268   4.571   9.117
14032SOL    HW153724   3.184   4.600   9.153
14032SOL    HW253725   3.267   4.476   9.128
14033SOL     OW53726   0.084   1.232   6.505
14033SOL    HW153727   0.119   1.144   6.492
14033SOL    HW253728   0.013   1.221   6.569
14034SOL     OW53729   3.537   4.385  28.373
14034SOL    HW153730   3.604   4.320  28.391
14034SOL    HW253731   3.561   4.421  28.288
14035SOL     OW53732   2.618   0.415   4.514
14035SOL    HW153733   2.655   0.394   4.428
14035SOL    HW253734   2.676   0.373   4.577
14036SOL     OW53735   1.041   0.996   2.487
14036SOL    HW153736   1.021   1.086   2.514
14036SOL    HW253737   0.958   0.949   2.495
14037SOL     OW53738   2.911   4.736   4.339
14037SOL    HW153739   2.825   4.745   4.381
14037SOL    HW253740   2.894   4.687   4.259
14038SOL     OW53741   0.743   2.469   0.390
14038SOL    HW153742   0.689   2.531   0.341
14038SOL    HW253743   0.690   2.390   0.396
14039SOL     OW53744   2.967   3.267  27.005
14039SOL    HW153745   2.910   3.344  27.009
14039SOL    HW253746   2.915   3.202  26.958
14040SOL     OW53747   4.359   1.761  25.317
14040SOL    HW153748   4.283   1.812  25.290
14040SOL    HW253749   4.425   1.779  25.250
14041SOL     OW53750   4.223   1.636  21.462
14041SOL    HW153751   4.147   1.643  21.404
14041SOL    HW253752   4.243   1.542  21.463
14042SOL     OW53753   1.647   0.586   2.911
14042SOL    HW153754   1.592   0.626   2.843
14042SOL    HW253755   1.735   0.585   2.873
14043SOL     OW53756   4.148   4.418  22.674
14043SOL    HW153757   4.152   4.493  22.733
14043SOL    HW253758   4.102   4.450  22.597
14044SOL     OW53759   3.109   3.149   3.711
14044SOL    HW153760   3.170   3.123   3.780
14044SOL    HW253761   3.022   3.136   3.750
14045SOL     OW53762   3.368   4.517  20.715
14045SOL    HW153763   3.441   4.477  20.762
14045SOL    HW253764   3.369   4.476  20.629
14046SOL     OW53765   1.119   2.210  24.622
14046SOL    HW153766   1.094   2.292  24.580
14046SOL    HW253767   1.211   2.222  24.646
14047SOL     OW53768   1.270   4.140   1.603
14047SOL    HW153769   1.284   4.068   1.542
14047SOL    HW253770   1.280   4.101   1.690
14048SOL     OW53771   0.588   4.691  23.172
14048SOL    HW153772   0.635   4.686  23.089
14048SOL    HW253773   0.526   4.763  23.160
14049SOL     OW53774   1.559   2.177   4.305
14049SOL    HW153775   1.465   2.166   4.319
14049SOL    HW253776   1.565   2.219   4.219
14050SOL     OW53777   1.701   4.416  23.995
14050SOL    HW153778   1.631   4.457  23.944
14050SOL    HW253779   1.777   4.472  23.981
14051SOL     OW53780   2.291   1.090   0.522
14051SOL    HW153781   2.263   1.000   0.540
14051SOL    HW253782   2.316   1.125   0.608
14052SOL     OW53783   1.847   0.628   7.543
14052SOL    HW153784   1.880   0.613   7.454
14052SOL    HW253785   1.779   0.694   7.532
14053SOL     OW53786   1.133   0.012  18.413
14053SOL    HW153787   1.043   0.034  18.390
14053SOL    HW253788   1.186   0.053  18.344
14054SOL     OW53789   2.799   4.046  27.545
14054SOL    HW153790   2.711   4.014  27.565
14054SOL    HW253791   2.802   4.133  27.584
14055SOL     OW53792   4.107   4.363   1.079
14055SOL    HW153793   4.047   4.431   1.110
14055SOL    HW253794   4.085   4.352   0.987
14056SOL     OW53795   1.645   3.512  21.306
14056SOL    HW153796   1.608   3.425  21.321
14056SOL    HW253797   1.733   3.495  21.272
14057SOL     OW53798   0.463   4.365  20.309
14057SOL    HW153799   0.424   4.278  20.315
14057SOL    HW253800   0.389   4.425  20.309
14058SOL     OW53801   1.621   1.677   2.806
14058SOL    HW153802   1.691   1.742   2.805
14058SOL    HW253803   1.540   1.728   2.807
14059SOL     OW53804   0.006   4.061  26.153
14059SOL    HW153805   0.009   4.089  26.245
14059SOL    HW253806   4.742   4.133  26.108
14060SOL     OW53807   3.736   4.264   2.488
14060SOL    HW153808   3.655   4.232   2.528
14060SOL    HW253809   3.707   4.320   2.416
14061SOL     OW53810   3.869   1.403  11.971
14061SOL    HW153811   3.941   1.464  11.990
14061SOL    HW253812   3.790   1.454  11.987
14062SOL     OW53813   0.541   1.279   4.218
14062SOL    HW153814   0.487   1.350   4.253
14062SOL    HW253815   0.620   1.280   4.273
14063SOL     OW53816   4.684   1.879  27.172
14063SOL    HW153817   4.636   1.960  27.191
14063SOL    HW253818   4.648   1.848  27.089
14064SOL     OW53819   0.372   1.589   2.046
14064SOL    HW153820   0.407   1.676   2.066
14064SOL    HW253821   0.317   1.602   1.969
14065SOL     OW53822   1.040   1.637   5.559
14065SOL    HW153823   1.129   1.620   5.529
14065SOL    HW253824   1.001   1.550   5.568
14066SOL     OW53825   0.097   2.791  27.899
14066SOL    HW153826   0.192   2.794  27.913
14066SOL    HW253827   0.060   2.833  27.977
14067SOL     OW53828   3.717   3.917  22.216
14067SOL    HW153829   3.679   3.829  22.217
14067SOL    HW253830   3.793   3.911  22.274
14068SOL     OW53831   4.070   2.004   6.468
14068SOL    HW153832   4.104   1.950   6.397
14068SOL    HW253833   4.131   2.078   6.474
14069SOL     OW53834   0.698   0.669  26.848
14069SOL    HW153835   0.611   0.708  26.837
14069SOL    HW253836   0.750   0.738  26.889
14070SOL     OW53837   1.490   2.159  24.462
14070SOL    HW153838   1.456   2.176  24.550
14070SOL    HW253839   1.416   2.174  24.404
14071SOL     OW53840   4.764   3.506   0.396
14071SOL    HW153841   4.675   3.481   0.419
14071SOL    HW253842   4.756   3.595   0.362
14072SOL     OW53843   2.416   0.450  11.032
14072SOL    HW153844   2.478   0.387  11.069
14072SOL    HW253845   2.331   0.425  11.068
14073SOL     OW53846   1.313   0.518   3.480
14073SOL    HW153847   1.402   0.551   3.491
14073SOL    HW253848   1.287   0.488   3.567
14074SOL     OW53849   4.061   3.548  20.837
14074SOL    HW153850   4.109   3.629  20.855
14074SOL    HW253851   4.124   3.478  20.853
14075SOL     OW53852   1.444   3.192  21.606
14075SOL    HW153853   1.362   3.146  21.624
14075SOL    HW253854   1.426   3.283  21.628
14076SOL     OW53855   2.934   1.867  24.782
14076SOL    HW153856   2.950   1.776  24.755
14076SOL    HW253857   2.919   1.862  24.876
14077SOL     OW53858   1.914   3.117  21.812
14077SOL    HW153859   1.896   3.062  21.736
14077SOL    HW253860   1.832   3.163  21.828
14078SOL     OW53861   1.558   0.139   2.892
14078SOL    HW153862   1.559   0.190   2.973
14078SOL    HW253863   1.532   0.202   2.824
14079SOL     OW53864   4.246   1.555   0.231
14079SOL    HW153865   4.197   1.544   0.313
14079SOL    HW253866   4.316   1.617   0.253
14080SOL     OW53867   3.637   1.475   8.855
14080SOL    HW153868   3.569   1.534   8.824
14080SOL    HW253869   3.597   1.388   8.851
14081SOL     OW53870   3.772   0.736  20.322
14081SOL    HW153871   3.831   0.757  20.250
14081SOL    HW253872   3.785   0.806  20.386
14082SOL     OW53873   2.716   1.870  21.868
14082SOL    HW153874   2.631   1.862  21.825
14082SOL    HW253875   2.713   1.807  21.940
14083SOL     OW53876   1.295   4.582   5.047
14083SOL    HW153877   1.211   4.627   5.054
14083SOL    HW253878   1.339   4.602   5.130
14084SOL     OW53879   0.775   3.705   3.315
14084SOL    HW153880   0.740   3.734   3.399
14084SOL    HW253881   0.865   3.679   3.334
14085SOL     OW53882   4.056   4.758  22.437
14085SOL    HW153883   3.988   0.024  22.486
14085SOL    HW253884   4.010   4.719  22.363
14086SOL     OW53885   0.714   0.087   9.628
14086SOL    HW153886   0.618   0.092   9.630
14086SOL    HW253887   0.740   0.094   9.720
14087SOL     OW53888   2.635   0.009  20.933
14087SOL    HW153889   2.689   4.742  20.996
14087SOL    HW253890   2.598   4.721  20.877
14088SOL     OW53891   4.394   4.305  23.612
14088SOL    HW153892   4.345   4.235  23.655
14088SOL    HW253893   4.436   4.262  23.537
14089SOL     OW53894   0.817   0.762  27.472
14089SOL    HW153895   0.766   0.688  27.504
14089SOL    HW253896   0.824   0.820  27.548
14090SOL     OW53897   1.333   3.957   3.903
14090SOL    HW153898   1.273   3.892   3.940
14090SOL    HW253899   1.314   4.037   3.951
14091SOL     OW53900   0.364   1.481   5.500
14091SOL    HW153901   0.391   1.390   5.488
14091SOL    HW253902   0.418   1.512   5.573
14092SOL     OW53903   1.069   4.636   8.778
14092SOL    HW153904   1.020   4.565   8.820
14092SOL    HW253905   1.115   4.679   8.850
14093SOL     OW53906   1.499   2.102  20.285
14093SOL    HW153907   1.488   2.132  20.375
14093SOL    HW253908   1.576   2.045  20.288
14094SOL     OW53909   4.567   1.434  21.086
14094SOL    HW153910   4.550   1.344  21.114
14094SOL    HW253911   4.484   1.463  21.047
14095SOL     OW53912   1.719   2.884  28.018
14095SOL    HW153913   1.658   2.935  27.964
14095SOL    HW253914   1.786   2.947  28.044
14096SOL     OW53915   3.602   3.387   1.734
14096SOL    HW153916   3.599   3.294   1.711
14096SOL    HW253917   3.514   3.420   1.715
14097SOL     OW53918   3.337   1.274  23.367
14097SOL    HW153919   3.418   1.292  23.320
14097SOL    HW253920   3.283   1.227  23.304
14098SOL     OW53921   1.512   2.441  11.659
14098SOL    HW153922   1.505   2.462  11.752
14098SOL    HW253923   1.422   2.442  11.627
14099SOL     OW53924   4.274   4.181  25.693
14099SOL    HW153925   4.349   4.144  25.740
14099SOL    HW253926   4.230   4.236  25.758
14100SOL     OW53927   0.329   0.440  22.118
14100SOL    HW153928   0.407   0.491  22.097
14100SOL    HW253929   0.292   0.483  22.195
14101SOL     OW53930   1.680   3.222  25.580
14101SOL    HW153931   1.630   3.238  25.500
14101SOL    HW253932   1.614   3.196  25.645
14102SOL     OW53933   3.649   3.170   6.375
14102SOL    HW153934   3.648   3.084   6.333
14102SOL    HW253935   3.716   3.162   6.443
14103SOL     OW53936   4.347   2.381   1.740
14103SOL    HW153937   4.304   2.465   1.757
14103SOL    HW253938   4.303   2.319   1.799
14104SOL     OW53939   3.668   2.476  20.987
14104SOL    HW153940   3.738   2.523  20.942
14104SOL    HW253941   3.692   2.478  21.080
14105SOL     OW53942   2.067   2.713   9.725
14105SOL    HW153943   2.113   2.796   9.716
14105SOL    HW253944   2.048   2.686   9.635
14106SOL     OW53945   1.252   3.248   9.427
14106SOL    HW153946   1.314   3.311   9.391
14106SOL    HW253947   1.215   3.291   9.504
14107SOL     OW53948   0.733   4.260  27.635
14107SOL    HW153949   0.737   4.318  27.711
14107SOL    HW253950   0.820   4.220  27.630
14108SOL     OW53951   3.677   0.396   2.330
14108SOL    HW153952   3.598   0.420   2.379
14108SOL    HW253953   3.651   0.402   2.238
14109SOL     OW53954   2.890   3.931   7.210
14109SOL    HW153955   2.909   3.986   7.286
14109SOL    HW253956   2.916   3.984   7.135
14110SOL     OW53957   2.024   2.264  26.687
14110SOL    HW153958   1.940   2.251  26.732
14110SOL    HW253959   2.069   2.180  26.696
14111SOL     OW53960   3.598   3.002   4.618
14111SOL    HW153961   3.621   3.029   4.529
14111SOL    HW253962   3.559   3.080   4.657
14112SOL     OW53963   4.105   2.305   5.696
14112SOL    HW153964   4.070   2.340   5.614
14112SOL    HW253965   4.046   2.233   5.718
14113SOL     OW53966   3.934   1.146   3.187
14113SOL    HW153967   3.875   1.205   3.140
14113SOL    HW253968   4.015   1.148   3.136
14114SOL     OW53969   2.354   1.977   5.538
14114SOL    HW153970   2.387   1.934   5.459
14114SOL    HW253971   2.419   2.045   5.557
14115SOL     OW53972   1.166   4.000  26.576
14115SOL    HW153973   1.128   3.915  26.555
14115SOL    HW253974   1.133   4.058  26.508
14116SOL     OW53975   2.446   4.199  23.011
14116SOL    HW153976   2.396   4.141  23.068
14116SOL    HW253977   2.480   4.142  22.942
14117SOL     OW53978   3.229   4.144   9.662
14117SOL    HW153979   3.243   4.052   9.640
14117SOL    HW253980   3.164   4.142   9.733
14118SOL     OW53981   0.550   3.305  23.400
14118SOL    HW153982   0.461   3.320  23.431
14118SOL    HW253983   0.584   3.237  23.458
14119SOL     OW53984   4.416   0.175   2.844
14119SOL    HW153985   4.361   0.105   2.809
14119SOL    HW253986   4.441   0.226   2.767
14120SOL     OW53987   4.441   3.521   7.454
14120SOL    HW153988   4.387   3.581   7.403
14120SOL    HW253989   4.445   3.441   7.402
14121SOL     OW53990   3.660   4.105  28.441
14121SOL    HW153991   3.674   4.122  28.348
14121SOL    HW253992   3.678   4.012  28.452
14122SOL     OW53993   3.752   0.544   7.781
14122SOL    HW153994   3.718   0.505   7.862
14122SOL    HW253995   3.845   0.522   7.782
14123SOL     OW53996   3.449   2.221  22.337
14123SOL    HW153997   3.536   2.256  22.321
14123SOL    HW253998   3.395   2.298  22.356
14124SOL     OW53999   4.574   4.551  27.678
14124SOL    HW154000   4.488   4.552  27.720
14124SOL    HW254001   4.624   4.618  27.725
14125SOL     OW54002   4.312   4.507  25.781
14125SOL    HW154003   4.384   4.568  25.798
14125SOL    HW254004   4.305   4.503  25.686
14126SOL     OW54005   4.058   0.588  20.275
14126SOL    HW154006   3.984   0.528  20.265
14126SOL    HW254007   4.105   0.582  20.192
14127SOL     OW54008   4.675   3.908  22.725
14127SOL    HW154009   4.771   3.904  22.728
14127SOL    HW254010   4.655   3.997  22.695
14128SOL     OW54011   2.453   3.158  26.633
14128SOL    HW154012   2.476   3.251  26.629
14128SOL    HW254013   2.367   3.156  26.675
14129SOL     OW54014   4.778   0.921  26.838
14129SOL    HW154015   4.723   0.970  26.899
14129SOL    HW254016   0.066   0.883  26.893
14130SOL     OW54017   1.443   3.375   4.649
14130SOL    HW154018   1.534   3.389   4.674
14130SOL    HW254019   1.405   3.463   4.646
14131SOL     OW54020   0.621   3.177   0.739
14131SOL    HW154021   0.594   3.208   0.825
14131SOL    HW254022   0.694   3.118   0.757
14132SOL     OW54023   0.935   0.067   7.208
14132SOL    HW154024   0.955   0.025   7.291
14132SOL    HW254025   0.985   0.017   7.143
14133SOL     OW54026   2.112   2.631   6.505
14133SOL    HW154027   2.126   2.679   6.423
14133SOL    HW254028   2.191   2.579   6.516
14134SOL     OW54029   2.520   1.360  22.814
14134SOL    HW154030   2.482   1.276  22.839
14134SOL    HW254031   2.603   1.337  22.772
14135SOL     OW54032   4.505   1.574  18.933
14135SOL    HW154033   4.486   1.537  19.019
14135SOL    HW254034   4.482   1.666  18.940
14136SOL     OW54035   0.473   2.114  21.289
14136SOL    HW154036   0.440   2.174  21.356
14136SOL    HW254037   0.449   2.155  21.206
14137SOL     OW54038   0.071   0.073  22.117
14137SOL    HW154039   0.074   0.157  22.163
14137SOL    HW254040   0.137   0.080  22.048
14138SOL     OW54041   2.845   2.089  26.205
14138SOL    HW154042   2.879   2.037  26.133
14138SOL    HW254043   2.872   2.179  26.185
14139SOL     OW54044   1.389   0.518  23.452
14139SOL    HW154045   1.471   0.470  23.463
14139SOL    HW254046   1.414   0.600  23.410
14140SOL     OW54047   2.955   0.025   3.531
14140SOL    HW154048   3.001   4.752   3.466
14140SOL    HW254049   2.957   4.753   3.611
14141SOL     OW54050   4.589   1.594  27.001
14141SOL    HW154051   4.595   1.684  26.969
14141SOL    HW254052   4.635   1.542  26.935
14142SOL     OW54053   1.122   4.599  18.195
14142SOL    HW154054   1.062   4.581  18.268
14142SOL    HW254055   1.208   4.608  18.236
14143SOL     OW54056   2.323   4.619   8.587
14143SOL    HW154057   2.324   4.529   8.621
14143SOL    HW254058   2.412   4.633   8.554
14144SOL     OW54059   3.472   1.354  27.394
14144SOL    HW154060   3.512   1.299  27.327
14144SOL    HW254061   3.406   1.405  27.347
14145SOL     OW54062   2.204   3.769   1.969
14145SOL    HW154063   2.120   3.782   1.924
14145SOL    HW254064   2.226   3.855   2.005
14146SOL     OW54065   2.861   2.096  20.583
14146SOL    HW154066   2.796   2.157  20.548
14146SOL    HW254067   2.820   2.010  20.575
14147SOL     OW54068   3.853   1.598   1.886
14147SOL    HW154069   3.846   1.662   1.956
14147SOL    HW254070   3.766   1.557   1.882
14148SOL     OW54071   4.549   4.286   6.962
14148SOL    HW154072   4.634   4.308   7.001
14148SOL    HW254073   4.546   4.190   6.963
14149SOL     OW54074   3.380   2.482  27.851
14149SOL    HW154075   3.292   2.470  27.888
14149SOL    HW254076   3.422   2.545  27.909
14150SOL     OW54077   3.779   2.203  24.694
14150SOL    HW154078   3.805   2.264  24.626
14150SOL    HW254079   3.697   2.165  24.662
14151SOL     OW54080   2.788   3.575   8.932
14151SOL    HW154081   2.831   3.552   9.014
14151SOL    HW254082   2.697   3.591   8.956
14152SOL     OW54083   0.829   3.393  21.445
14152SOL    HW154084   0.867   3.361  21.527
14152SOL    HW254085   0.739   3.416  21.467
14153SOL     OW54086   0.952   3.240   3.859
14153SOL    HW154087   0.878   3.257   3.801
14153SOL    HW254088   0.972   3.325   3.899
14154SOL     OW54089   3.018   4.067   1.897
14154SOL    HW154090   3.032   4.090   1.805
14154SOL    HW254091   3.102   4.032   1.926
14155SOL     OW54092   0.904   0.076   4.566
14155SOL    HW154093   0.866   0.023   4.496
14155SOL    HW254094   0.930   0.158   4.524
14156SOL     OW54095   4.022   0.089   7.444
14156SOL    HW154096   4.032   4.774   7.439
14156SOL    HW254097   3.954   0.103   7.509
14157SOL     OW54098   3.912   0.613  25.860
14157SOL    HW154099   3.845   0.548  25.839
14157SOL    HW254100   3.902   0.680  25.792
14158SOL     OW54101   1.667   3.578  25.007
14158SOL    HW154102   1.589   3.619  24.970
14158SOL    HW254103   1.728   3.570  24.933
14159SOL     OW54104   0.467   1.134   1.791
14159SOL    HW154105   0.549   1.174   1.819
14159SOL    HW254106   0.415   1.207   1.758
14160SOL     OW54107   3.635   2.325   1.421
14160SOL    HW154108   3.695   2.317   1.347
14160SOL    HW254109   3.659   2.407   1.463
14161SOL     OW54110   0.873   0.765  28.453
14161SOL    HW154111   0.906   0.823   0.002
14161SOL    HW254112   0.950   0.744  28.400
14162SOL     OW54113   2.961   2.440   0.829
14162SOL    HW154114   2.947   2.447   0.735
14162SOL    HW254115   3.029   2.504   0.848
14163SOL     OW54116   3.384   2.635  26.955
14163SOL    HW154117   3.473   2.643  26.989
14163SOL    HW254118   3.339   2.578  27.018
14164SOL     OW54119   3.622   1.299   2.710
14164SOL    HW154120   3.662   1.214   2.726
14164SOL    HW254121   3.690   1.362   2.734
14165SOL     OW54122   1.249   0.482   0.270
14165SOL    HW154123   1.157   0.508   0.264
14165SOL    HW254124   1.249   0.410   0.333
14166SOL     OW54125   4.037   2.070  17.802
14166SOL    HW154126   3.975   2.007  17.766
14166SOL    HW254127   3.984   2.126  17.859
14167SOL     OW54128   1.580   4.586  22.641
14167SOL    HW154129   1.496   4.583  22.686
14167SOL    HW254130   1.569   4.530  22.565
14168SOL     OW54131   1.253   2.284   1.323
14168SOL    HW154132   1.224   2.293   1.414
14168SOL    HW254133   1.181   2.239   1.279
14169SOL     OW54134   3.321   4.256   0.071
14169SOL    HW154135   3.272   4.293  28.517
14169SOL    HW254136   3.375   4.328   0.104
14170SOL     OW54137   3.178   0.156   5.575
14170SOL    HW154138   3.087   0.129   5.565
14170SOL    HW254139   3.208   0.110   5.654
14171SOL     OW54140   2.370   4.137   1.971
14171SOL    HW154141   2.398   4.124   1.880
14171SOL    HW254142   2.452   4.148   2.020
14172SOL     OW54143   3.971   1.935   0.549
14172SOL    HW154144   3.911   1.868   0.583
14172SOL    HW254145   4.033   1.886   0.495
14173SOL     OW54146   2.080   3.308   6.394
14173SOL    HW154147   2.064   3.214   6.384
14173SOL    HW254148   2.042   3.330   6.479
14174SOL     OW54149   0.941   4.655   4.333
14174SOL    HW154150   0.904   4.730   4.286
14174SOL    HW254151   0.876   4.633   4.399
14175SOL     OW54152   4.243   1.123  25.086
14175SOL    HW154153   4.329   1.087  25.110
14175SOL    HW254154   4.249   1.216  25.107
14176SOL     OW54155   3.299   0.106  22.030
14176SOL    HW154156   3.346   0.056  22.096
14176SOL    HW254157   3.267   0.183  22.076
14177SOL     OW54158   0.583   4.159  26.599
14177SOL    HW154159   0.526   4.116  26.535
14177SOL    HW254160   0.665   4.173  26.552
14178SOL     OW54161   2.940   1.018  23.769
14178SOL    HW154162   2.850   0.994  23.748
14178SOL    HW254163   2.982   0.935  23.791
14179SOL     OW54164   1.521   2.436   0.556
14179SOL    HW154165   1.430   2.450   0.531
14179SOL    HW254166   1.545   2.516   0.602
14180SOL     OW54167   4.596   0.582  21.101
14180SOL    HW154168   4.691   0.591  21.097
14180SOL    HW254169   4.576   0.516  21.034
14181SOL     OW54170   1.537   1.292   0.014
14181SOL    HW154171   1.558   1.376   0.056
14181SOL    HW254172   1.469   1.254   0.070
14182SOL     OW54173   1.494   4.569   6.034
14182SOL    HW154174   1.470   4.571   5.941
14182SOL    HW254175   1.412   4.550   6.080
14183SOL     OW54176   1.969   3.255  27.523
14183SOL    HW154177   2.013   3.306  27.591
14183SOL    HW254178   2.040   3.226  27.465
14184SOL     OW54179   3.136   4.698  22.770
14184SOL    HW154180   3.075   4.692  22.696
14184SOL    HW254181   3.133   0.010  22.795
14185SOL     OW54182   3.350   0.927  19.896
14185SOL    HW154183   3.363   0.833  19.909
14185SOL    HW254184   3.438   0.962  19.886
14186SOL     OW54185   2.009   1.702  10.442
14186SOL    HW154186   1.944   1.692  10.372
14186SOL    HW254187   1.960   1.686  10.523
14187SOL     OW54188   3.814   0.024  21.090
14187SOL    HW154189   3.805   0.057  21.180
14187SOL    HW254190   3.853   0.097  21.042
14188SOL     OW54191   1.835   1.415  26.632
14188SOL    HW154192   1.863   1.478  26.699
14188SOL    HW254193   1.869   1.451  26.550
14189SOL     OW54194   4.159   1.426  24.438
14189SOL    HW154195   4.102   1.397  24.367
14189SOL    HW254196   4.231   1.363  24.439
14190SOL     OW54197   4.465   3.314   8.965
14190SOL    HW154198   4.540   3.264   8.998
14190SOL    HW254199   4.411   3.330   9.042
14191SOL     OW54200   0.596   1.073   0.165
14191SOL    HW154201   0.532   1.082   0.094
14191SOL    HW254202   0.668   1.130   0.140
14192SOL     OW54203   0.815   3.730   8.396
14192SOL    HW154204   0.833   3.765   8.483
14192SOL    HW254205   0.726   3.695   8.402
14193SOL     OW54206   3.109   1.007   8.469
14193SOL    HW154207   3.098   0.958   8.550
14193SOL    HW254208   3.198   0.988   8.440
14194SOL     OW54209   1.589   1.040   4.348
14194SOL    HW154210   1.506   1.042   4.300
14194SOL    HW254211   1.611   0.947   4.354
14195SOL     OW54212   0.224   1.348  17.638
14195SOL    HW154213   0.231   1.281  17.570
14195SOL    HW254214   0.140   1.390  17.621
14196SOL     OW54215   4.464   1.631   0.373
14196SOL    HW154216   4.514   1.607   0.451
14196SOL    HW254217   4.527   1.675   0.316
14197SOL     OW54218   4.125   2.825   5.943
14197SOL    HW154219   4.132   2.880   6.021
14197SOL    HW254220   4.215   2.796   5.926
14198SOL     OW54221   3.318   3.119  26.906
14198SOL    HW154222   3.388   3.067  26.946
14198SOL    HW254223   3.284   3.173  26.978
14199SOL     OW54224   0.935   4.311   6.490
14199SOL    HW154225   0.968   4.349   6.409
14199SOL    HW254226   1.005   4.327   6.554
14200SOL     OW54227   2.179   0.599   4.057
14200SOL    HW154228   2.268   0.618   4.087
14200SOL    HW254229   2.148   0.529   4.114
14201SOL     OW54230   0.038   0.894   4.626
14201SOL    HW154231   0.127   0.897   4.590
14201SOL    HW254232   4.770   0.838   4.565
14202SOL     OW54233   3.003   1.990   2.363
14202SOL    HW154234   3.000   2.072   2.412
14202SOL    HW254235   2.914   1.978   2.331
14203SOL     OW54236   3.889   3.125   6.510
14203SOL    HW154237   3.903   3.040   6.553
14203SOL    HW254238   3.898   3.189   6.581
14204SOL     OW54239   1.985   4.336   0.550
14204SOL    HW154240   1.933   4.314   0.627
14204SOL    HW254241   2.075   4.336   0.581
14205SOL     OW54242   2.494   2.377   6.282
14205SOL    HW154243   2.560   2.371   6.351
14205SOL    HW254244   2.493   2.469   6.257
14206SOL     OW54245   2.232   4.659   7.964
14206SOL    HW154246   2.291   4.618   7.901
14206SOL    HW254247   2.226   4.595   8.035
14207SOL     OW54248   4.766   0.369   8.816
14207SOL    HW154249   0.040   0.329   8.749
14207SOL    HW254250   4.684   0.390   8.771
14208SOL     OW54251   2.363   3.518  24.083
14208SOL    HW154252   2.351   3.531  24.177
14208SOL    HW254253   2.275   3.498  24.050
14209SOL     OW54254   2.455   1.705  24.155
14209SOL    HW154255   2.500   1.635  24.107
14209SOL    HW254256   2.392   1.741  24.092
14210SOL     OW54257   1.992   3.789  10.347
14210SOL    HW154258   2.059   3.758  10.408
14210SOL    HW254259   1.944   3.710  10.322
14211SOL     OW54260   2.433   4.380  16.622
14211SOL    HW154261   2.483   4.410  16.698
14211SOL    HW254262   2.491   4.317  16.578
14212SOL     OW54263   2.102   3.960   7.229
14212SOL    HW154264   2.119   3.876   7.186
14212SOL    HW254265   2.144   3.952   7.315
14213SOL     OW54266   3.232   3.099  28.086
14213SOL    HW154267   3.286   3.173  28.113
14213SOL    HW254268   3.194   3.125  28.002
14214SOL     OW54269   0.032   4.125  23.787
14214SOL    HW154270   0.044   4.176  23.867
14214SOL    HW254271   0.089   4.168  23.723
14215SOL     OW54272   4.643   1.002  21.954
14215SOL    HW154273   4.674   1.085  21.990
14215SOL    HW254274   4.601   1.025  21.871
14216SOL     OW54275   0.795   3.457  23.951
14216SOL    HW154276   0.706   3.492  23.950
14216SOL    HW254277   0.800   3.408  24.033
14217SOL     OW54278   1.442   3.304   7.454
14217SOL    HW154279   1.510   3.249   7.493
14217SOL    HW254280   1.363   3.249   7.455
14218SOL     OW54281   0.797   1.448   7.656
14218SOL    HW154282   0.860   1.378   7.638
14218SOL    HW254283   0.809   1.510   7.584
14219SOL     OW54284   3.463   3.424  23.650
14219SOL    HW154285   3.495   3.369  23.722
14219SOL    HW254286   3.471   3.369  23.572
14220SOL     OW54287   0.521   2.119  23.934
14220SOL    HW154288   0.559   2.204  23.911
14220SOL    HW254289   0.521   2.119  24.030
14221SOL     OW54290   3.226   2.402  23.090
14221SOL    HW154291   3.138   2.401  23.127
14221SOL    HW254292   3.216   2.446  23.006
14222SOL     OW54293   0.294   4.379  28.096
14222SOL    HW154294   0.291   4.334  28.180
14222SOL    HW254295   0.212   4.355  28.053
14223SOL     OW54296   3.452   2.992   4.982
14223SOL    HW154297   3.434   2.944   4.902
14223SOL    HW254298   3.506   2.932   5.034
14224SOL     OW54299   4.208   0.169   6.120
14224SOL    HW154300   4.137   0.232   6.111
14224SOL    HW254301   4.244   0.185   6.207
14225SOL     OW54302   2.178   1.050   9.590
14225SOL    HW154303   2.176   1.071   9.497
14225SOL    HW254304   2.086   1.049   9.616
14226SOL     OW54305   2.778   1.296  27.220
14226SOL    HW154306   2.762   1.246  27.300
14226SOL    HW254307   2.721   1.255  27.155
14227SOL     OW54308   0.673   0.079   7.301
14227SOL    HW154309   0.762   0.106   7.277
14227SOL    HW254310   0.649   0.136   7.374
14228SOL     OW54311   1.386   0.109  10.036
14228SOL    HW154312   1.291   0.097  10.030
14228SOL    HW254313   1.397   0.202  10.054
14229SOL     OW54314   0.969   4.532   9.663
14229SOL    HW154315   0.933   4.600   9.606
14229SOL    HW254316   1.052   4.568   9.693
14230SOL     OW54317   4.082   2.030  10.143
14230SOL    HW154318   4.135   2.000  10.217
14230SOL    HW254319   4.053   1.949  10.100
14231SOL     OW54320   1.800   2.197   5.286
14231SOL    HW154321   1.818   2.237   5.201
14231SOL    HW254322   1.855   2.119   5.287
14232SOL     OW54323   2.344   1.650   1.257
14232SOL    HW154324   2.382   1.704   1.187
14232SOL    HW254325   2.299   1.712   1.314
14233SOL     OW54326   4.416   0.089  20.787
14233SOL    HW154327   4.441   0.155  20.852
14233SOL    HW254328   4.415   0.137  20.704
14234SOL     OW54329   2.418   0.657   7.761
14234SOL    HW154330   2.410   0.663   7.856
14234SOL    HW254331   2.433   0.564   7.743
14235SOL     OW54332   3.802   4.346  25.398
14235SOL    HW154333   3.745   4.280  25.358
14235SOL    HW254334   3.786   4.426  25.347
14236SOL     OW54335   3.360   0.805  27.874
14236SOL    HW154336   3.430   0.798  27.939
14236SOL    HW254337   3.281   0.778  27.920
14237SOL     OW54338   0.262   2.711  23.903
14237SOL    HW154339   0.319   2.675  23.971
14237SOL    HW254340   0.320   2.765  23.850
14238SOL     OW54341   0.422   0.792  24.023
14238SOL    HW154342   0.500   0.775  24.075
14238SOL    HW254343   0.357   0.729  24.055
14239SOL     OW54344   1.424   4.511   7.504
14239SOL    HW154345   1.445   4.496   7.412
14239SOL    HW254346   1.501   4.554   7.540
14240SOL     OW54347   0.525   2.990   8.892
14240SOL    HW154348   0.620   2.986   8.905
14240SOL    HW254349   0.490   2.921   8.948
14241SOL     OW54350   3.896   3.388   7.886
14241SOL    HW154351   3.909   3.431   7.801
14241SOL    HW254352   3.914   3.456   7.950
14242SOL     OW54353   0.900   1.769   7.303
14242SOL    HW154354   0.893   1.864   7.300
14242SOL    HW254355   0.983   1.753   7.349
14243SOL     OW54356   3.987   2.457  20.642
14243SOL    HW154357   4.034   2.403  20.706
14243SOL    HW254358   3.903   2.413  20.630
14244SOL     OW54359   0.134   0.359  27.606
14244SOL    HW154360   0.136   0.285  27.545
14244SOL    HW254361   0.091   0.429  27.557
14245SOL     OW54362   2.489   3.417  26.671
14245SOL    HW154363   2.577   3.436  26.637
14245SOL    HW254364   2.443   3.501  26.665
14246SOL     OW54365   2.638   2.613   0.118
14246SOL    HW154366   2.695   2.554   0.167
14246SOL    HW254367   2.658   2.595   0.026
14247SOL     OW54368   1.769   1.642   2.564
14247SOL    HW154369   1.683   1.683   2.576
14247SOL    HW254370   1.756   1.552   2.593
14248SOL     OW54371   4.449   0.240   6.695
14248SOL    HW154372   4.375   0.181   6.711
14248SOL    HW254373   4.497   0.241   6.778
14249SOL     OW54374   0.363   1.353   3.162
14249SOL    HW154375   0.379   1.431   3.215
14249SOL    HW254376   0.376   1.383   3.072
14250SOL     OW54377   3.441   2.485  20.556
14250SOL    HW154378   3.364   2.429  20.559
14250SOL    HW254379   3.425   2.551  20.623
14251SOL     OW54380   3.416   1.769   5.690
14251SOL    HW154381   3.382   1.723   5.614
14251SOL    HW254382   3.484   1.711   5.725
14252SOL     OW54383   3.563   2.306   0.221
14252SOL    HW154384   3.571   2.312   0.316
14252SOL    HW254385   3.619   2.233   0.197
14253SOL     OW54386   4.205   4.415  23.058
14253SOL    HW154387   4.208   4.337  23.003
14253SOL    HW254388   4.287   4.414  23.107
14254SOL     OW54389   3.146   1.803   5.064
14254SOL    HW154390   3.083   1.735   5.087
14254SOL    HW254391   3.162   1.790   4.971
14255SOL     OW54392   0.240   2.541   7.138
14255SOL    HW154393   0.248   2.458   7.091
14255SOL    HW254394   0.255   2.608   7.071
14256SOL     OW54395   2.200   2.148  27.824
14256SOL    HW154396   2.280   2.201  27.821
14256SOL    HW254397   2.132   2.205  27.787
14257SOL     OW54398   2.701   2.439   1.787
14257SOL    HW154399   2.664   2.525   1.808
14257SOL    HW254400   2.730   2.447   1.696
14258SOL     OW54401   3.830   3.546  20.704
14258SOL    HW154402   3.915   3.568  20.743
14258SOL    HW254403   3.812   3.618  20.643
14259SOL     OW54404   4.334   3.094  23.492
14259SOL    HW154405   4.369   3.022  23.439
14259SOL    HW254406   4.361   3.072  23.581
14260SOL     OW54407   2.076   4.027  22.875
14260SOL    HW154408   2.152   4.028  22.816
14260SOL    HW254409   2.084   3.945  22.923
14261SOL     OW54410   1.220   4.327   1.267
14261SOL    HW154411   1.169   4.401   1.233
14261SOL    HW254412   1.166   4.291   1.337
14262SOL     OW54413   0.953   4.608   3.667
14262SOL    HW154414   0.934   4.518   3.695
14262SOL    HW254415   0.868   4.652   3.669
14263SOL     OW54416   1.834   3.181  23.203
14263SOL    HW154417   1.760   3.236  23.229
14263SOL    HW254418   1.853   3.208  23.113
14264SOL     OW54419   0.761   4.121  19.709
14264SOL    HW154420   0.775   4.037  19.666
14264SOL    HW254421   0.712   4.100  19.788
14265SOL     OW54422   2.843   0.255   2.229
14265SOL    HW154423   2.862   0.188   2.163
14265SOL    HW254424   2.838   0.206   2.311
14266SOL     OW54425   2.787   4.737   9.418
14266SOL    HW154426   2.734   4.747   9.497
14266SOL    HW254427   2.729   4.763   9.347
14267SOL     OW54428   0.820   0.896  26.171
14267SOL    HW154429   0.856   0.826  26.225
14267SOL    HW254430   0.756   0.852  26.115
14268SOL     OW54431   0.804   0.342  13.508
14268SOL    HW154432   0.831   0.402  13.578
14268SOL    HW254433   0.875   0.278  13.502
14269SOL     OW54434   0.564   0.388   0.304
14269SOL    HW154435   0.531   0.475   0.326
14269SOL    HW254436   0.630   0.370   0.371
14270SOL     OW54437   1.981   2.004  11.823
14270SOL    HW154438   1.901   2.013  11.771
14270SOL    HW254439   2.032   1.936  11.778
14271SOL     OW54440   4.747   0.586  23.105
14271SOL    HW154441   4.771   0.604  23.196
14271SOL    HW254442   4.752   0.671  23.062
14272SOL     OW54443   0.265   2.166  20.395
14272SOL    HW154444   0.329   2.233  20.371
14272SOL    HW254445   0.181   2.212  20.395
14273SOL     OW54446   1.678   0.663   5.170
14273SOL    HW154447   1.663   0.699   5.082
14273SOL    HW254448   1.732   0.585   5.155
14274SOL     OW54449   3.098   2.762  21.958
14274SOL    HW154450   3.142   2.840  21.925
14274SOL    HW254451   3.007   2.773  21.930
14275SOL     OW54452   2.377   3.876   2.243
14275SOL    HW154453   2.380   3.797   2.297
14275SOL    HW254454   2.467   3.908   2.243
14276SOL     OW54455   0.610   1.433  10.343
14276SOL    HW154456   0.665   1.498  10.386
14276SOL    HW254457   0.663   1.402  10.269
14277SOL     OW54458   2.564   2.044  22.488
14277SOL    HW154459   2.553   1.994  22.569
14277SOL    HW254460   2.479   2.085  22.474
14278SOL     OW54461   1.293   2.202   3.062
14278SOL    HW154462   1.306   2.163   3.148
14278SOL    HW254463   1.217   2.259   3.072
14279SOL     OW54464   1.297   4.091  20.915
14279SOL    HW154465   1.336   4.110  20.830
14279SOL    HW254466   1.370   4.096  20.977
14280SOL     OW54467   1.659   3.470  22.940
14280SOL    HW154468   1.624   3.555  22.966
14280SOL    HW254469   1.597   3.406  22.975
14281SOL     OW54470   3.400   2.837   4.724
14281SOL    HW154471   3.468   2.881   4.673
14281SOL    HW254472   3.319   2.853   4.675
14282SOL     OW54473   2.985   1.636  24.384
14282SOL    HW154474   2.909   1.650  24.327
14282SOL    HW254475   3.052   1.600  24.326
14283SOL     OW54476   2.856   1.774  27.380
14283SOL    HW154477   2.943   1.773  27.341
14283SOL    HW254478   2.867   1.822  27.462
14284SOL     OW54479   1.775   4.035  20.208
14284SOL    HW154480   1.836   4.091  20.256
14284SOL    HW254481   1.791   3.947  20.244
14285SOL     OW54482   2.461   1.875  26.220
14285SOL    HW154483   2.409   1.945  26.260
14285SOL    HW254484   2.401   1.801  26.215
14286SOL     OW54485   4.364   4.607  28.343
14286SOL    HW154486   4.421   4.627  28.268
14286SOL    HW254487   4.353   4.691  28.388
14287SOL     OW54488   0.640   4.602   8.904
14287SOL    HW154489   0.620   4.510   8.923
14287SOL    HW254490   0.567   4.651   8.942
14288SOL     OW54491   1.948   3.990   6.324
14288SOL    HW154492   1.972   3.913   6.376
14288SOL    HW254493   1.879   3.958   6.265
14289SOL     OW54494   2.826   3.125  10.692
14289SOL    HW154495   2.917   3.095  10.696
14289SOL    HW254496   2.831   3.212  10.653
14290SOL     OW54497   0.167   0.281  22.775
14290SOL    HW154498   0.198   0.345  22.840
14290SOL    HW254499   0.160   0.199  22.824
14291SOL     OW54500   1.073   2.525  10.664
14291SOL    HW154501   1.060   2.529  10.759
14291SOL    HW254502   1.164   2.497  10.653
14292SOL     OW54503   3.882   1.375   2.598
14292SOL    HW154504   3.890   1.316   2.523
14292SOL    HW254505   3.844   1.455   2.562
14293SOL     OW54506   2.389   0.114  13.239
14293SOL    HW154507   2.393   0.193  13.185
14293SOL    HW254508   2.401   0.145  13.329
14294SOL     OW54509   0.474   3.405  25.837
14294SOL    HW154510   0.535   3.331  25.838
14294SOL    HW254511   0.450   3.414  25.745
14295SOL     OW54512   3.521   1.660  21.603
14295SOL    HW154513   3.446   1.718  21.616
14295SOL    HW254514   3.494   1.577  21.643
14296SOL     OW54515   0.377   2.918   2.581
14296SOL    HW154516   0.366   2.903   2.675
14296SOL    HW254517   0.303   2.873   2.540
14297SOL     OW54518   3.539   0.065   6.160
14297SOL    HW154519   3.596   0.095   6.089
14297SOL    HW254520   3.478   0.005   6.117
14298SOL     OW54521   1.651   1.656  21.703
14298SOL    HW154522   1.728   1.700  21.740
14298SOL    HW254523   1.615   1.605  21.776
14299SOL     OW54524   0.914   1.655  10.834
14299SOL    HW154525   0.886   1.688  10.749
14299SOL    HW254526   0.988   1.711  10.859
14300SOL     OW54527   3.540   0.900  28.121
14300SOL    HW154528   3.595   0.976  28.102
14300SOL    HW254529   3.477   0.932  28.185
14301SOL     OW54530   0.130   2.997   6.112
14301SOL    HW154531   0.112   2.905   6.129
14301SOL    HW254532   0.123   3.039   6.198
14302SOL     OW54533   3.858   4.361   0.317
14302SOL    HW154534   3.846   4.446   0.358
14302SOL    HW254535   3.895   4.381   0.231
14303SOL     OW54536   2.816   3.163   3.516
14303SOL    HW154537   2.883   3.222   3.550
14303SOL    HW254538   2.750   3.159   3.585
14304SOL     OW54539   2.724   3.210   6.069
14304SOL    HW154540   2.784   3.221   6.143
14304SOL    HW254541   2.644   3.256   6.095
14305SOL     OW54542   4.681   0.608  24.043
14305SOL    HW154543   4.669   0.588  24.136
14305SOL    HW254544   4.599   0.580  24.002
14306SOL     OW54545   0.025   4.693   8.537
14306SOL    HW154546   0.107   4.646   8.550
14306SOL    HW254547   0.045   4.759   8.470
14307SOL     OW54548   3.874   4.724   3.992
14307SOL    HW154549   3.892   4.652   3.931
14307SOL    HW254550   3.845   4.680   4.072
14308SOL     OW54551   3.129   3.889  20.891
14308SOL    HW154552   3.205   3.839  20.861
14308SOL    HW254553   3.140   3.895  20.986
14309SOL     OW54554   2.948   1.781  18.307
14309SOL    HW154555   2.903   1.759  18.225
14309SOL    HW254556   3.027   1.726  18.306
14310SOL     OW54557   1.417   1.123   2.503
14310SOL    HW154558   1.455   1.203   2.540
14310SOL    HW254559   1.384   1.150   2.417
14311SOL     OW54560   2.963   3.884   6.860
14311SOL    HW154561   2.941   3.976   6.872
14311SOL    HW254562   3.058   3.880   6.867
14312SOL     OW54563   3.108   0.573  26.410
14312SOL    HW154564   3.173   0.503  26.419
14312SOL    HW254565   3.054   0.546  26.336
14313SOL     OW54566   1.600   3.307   8.854
14313SOL    HW154567   1.626   3.399   8.864
14313SOL    HW254568   1.549   3.288   8.933
14314SOL     OW54569   2.958   0.524   9.023
14314SOL    HW154570   3.048   0.556   9.018
14314SOL    HW254571   2.963   0.432   8.997
14315SOL     OW54572   2.080   4.247   6.345
14315SOL    HW154573   2.003   4.295   6.375
14315SOL    HW254574   2.044   4.171   6.299
14316SOL     OW54575   3.984   3.630   1.311
14316SOL    HW154576   3.889   3.630   1.305
14316SOL    HW254577   4.005   3.553   1.364
14317SOL     OW54578   1.589   3.955  22.826
14317SOL    HW154579   1.636   4.015  22.884
14317SOL    HW254580   1.513   4.005  22.796
14318SOL     OW54581   1.545   4.699   0.788
14318SOL    HW154582   1.548   4.690   0.883
14318SOL    HW254583   1.562   0.011   0.773
14319SOL     OW54584   2.269   2.109  26.976
14319SOL    HW154585   2.228   2.195  26.986
14319SOL    HW254586   2.318   2.115  26.894
14320SOL     OW54587   3.359   1.192  26.380
14320SOL    HW154588   3.327   1.253  26.314
14320SOL    HW254589   3.333   1.231  26.463
14321SOL     OW54590   1.089   4.053   4.846
14321SOL    HW154591   1.102   4.018   4.758
14321SOL    HW254592   1.036   3.987   4.891
14322SOL     OW54593   2.165   1.843   2.356
14322SOL    HW154594   2.173   1.748   2.354
14322SOL    HW254595   2.077   1.858   2.391
14323SOL     OW54596   3.411   1.706  12.095
14323SOL    HW154597   3.366   1.679  12.175
14323SOL    HW254598   3.500   1.728  12.123
14324SOL     OW54599   0.861   4.248   1.075
14324SOL    HW154600   0.937   4.193   1.056
14324SOL    HW254601   0.842   4.231   1.167
14325SOL     OW54602   2.051   3.110   4.666
14325SOL    HW154603   2.103   3.167   4.609
14325SOL    HW254604   2.115   3.055   4.710
14326SOL     OW54605   1.508   0.769   2.750
14326SOL    HW154606   1.525   0.838   2.814
14326SOL    HW254607   1.426   0.795   2.708
14327SOL     OW54608   2.334   2.158   5.951
14327SOL    HW154609   2.364   2.092   5.889
14327SOL    HW254610   2.380   2.138   6.032
14328SOL     OW54611   3.635   1.360  21.949
14328SOL    HW154612   3.663   1.450  21.935
14328SOL    HW254613   3.546   1.368  21.982
14329SOL     OW54614   4.422   0.613  23.911
14329SOL    HW154615   4.405   0.521  23.929
14329SOL    HW254616   4.362   0.660  23.969
14330SOL     OW54617   0.099   0.714  22.752
14330SOL    HW154618   0.076   0.621  22.746
14330SOL    HW254619   0.187   0.720  22.714
14331SOL     OW54620   3.171   0.937  24.134
14331SOL    HW154621   3.210   0.915  24.049
14331SOL    HW254622   3.223   1.011  24.166
14332SOL     OW54623   4.627   1.013  27.383
14332SOL    HW154624   4.713   1.048  27.405
14332SOL    HW254625   4.643   0.920  27.364
14333SOL     OW54626   2.575   4.367  23.180
14333SOL    HW154627   2.634   4.436  23.150
14333SOL    HW254628   2.566   4.309  23.105
14334SOL     OW54629   3.053   3.310  25.267
14334SOL    HW154630   3.079   3.224  25.234
14334SOL    HW254631   3.030   3.360  25.189
14335SOL     OW54632   4.471   0.383  18.550
14335SOL    HW154633   4.464   0.384  18.455
14335SOL    HW254634   4.560   0.413  18.567
14336SOL     OW54635   0.065   3.264  17.978
14336SOL    HW154636   0.142   3.307  18.014
14336SOL    HW254637   0.052   3.187  18.034
14337SOL     OW54638   3.817   1.391   7.760
14337SOL    HW154639   3.825   1.486   7.768
14337SOL    HW254640   3.739   1.378   7.705
14338SOL     OW54641   3.168   2.071  10.368
14338SOL    HW154642   3.096   2.009  10.376
14338SOL    HW254643   3.173   2.113  10.454
14339SOL     OW54644   1.425   0.378   4.881
14339SOL    HW154645   1.373   0.343   4.808
14339SOL    HW254646   1.449   0.301   4.932
14340SOL     OW54647   2.107   0.857   1.149
14340SOL    HW154648   2.174   0.897   1.094
14340SOL    HW254649   2.052   0.807   1.088
14341SOL     OW54650   0.863   1.469  19.127
14341SOL    HW154651   0.861   1.531  19.200
14341SOL    HW254652   0.943   1.418  19.141
14342SOL     OW54653   1.877   1.815  20.538
14342SOL    HW154654   1.885   1.885  20.603
14342SOL    HW254655   1.842   1.741  20.587
14343SOL     OW54656   4.766   3.746  26.195
14343SOL    HW154657   0.058   3.708  26.146
14343SOL    HW254658   0.002   3.840  26.194
14344SOL     OW54659   2.916   4.748   2.142
14344SOL    HW154660   2.880   4.663   2.117
14344SOL    HW254661   2.966   4.731   2.222
14345SOL     OW54662   1.370   2.164  27.662
14345SOL    HW154663   1.274   2.158  27.663
14345SOL    HW254664   1.397   2.118  27.741
14346SOL     OW54665   0.060   3.387  21.221
14346SOL    HW154666   0.013   3.390  21.304
14346SOL    HW254667   0.148   3.416  21.243
14347SOL     OW54668   3.595   3.518   8.407
14347SOL    HW154669   3.537   3.589   8.379
14347SOL    HW254670   3.683   3.551   8.389
14348SOL     OW54671   3.472   1.892  25.454
14348SOL    HW154672   3.482   1.970  25.399
14348SOL    HW254673   3.555   1.886  25.502
14349SOL     OW54674   2.344   4.600  23.806
14349SOL    HW154675   2.330   4.604  23.711
14349SOL    HW254676   2.431   4.562  23.816
14350SOL     OW54677   2.691   2.172   1.583
14350SOL    HW154678   2.699   2.106   1.514
14350SOL    HW254679   2.736   2.249   1.547
14351SOL     OW54680   1.070   3.089  10.424
14351SOL    HW154681   0.994   3.144  10.442
14351SOL    HW254682   1.144   3.140  10.456
14352SOL     OW54683   3.378   1.856  12.427
14352SOL    HW154684   3.337   1.788  12.374
14352SOL    HW254685   3.345   1.841  12.515
14353SOL     OW54686   4.302   4.740  20.313
14353SOL    HW154687   4.263   0.041  20.280
14353SOL    HW254688   4.272   4.672  20.252
14354SOL     OW54689   1.576   4.569   3.848
14354SOL    HW154690   1.593   4.484   3.807
14354SOL    HW254691   1.525   4.617   3.783
14355SOL     OW54692   4.045   3.712   8.022
14355SOL    HW154693   4.078   3.762   7.947
14355SOL    HW254694   4.117   3.653   8.044
14356SOL     OW54695   4.750   3.389  21.790
14356SOL    HW154696   0.038   3.391  21.857
14356SOL    HW254697   4.674   3.429  21.832
14357SOL     OW54698   3.376   0.889   4.193
14357SOL    HW154699   3.368   0.850   4.106
14357SOL    HW254700   3.410   0.818   4.248
14358SOL     OW54701   4.656   3.804   9.016
14358SOL    HW154702   4.727   3.740   9.018
14358SOL    HW254703   4.694   3.880   8.972
14359SOL     OW54704   0.590   1.352  18.628
14359SOL    HW154705   0.673   1.394  18.652
14359SOL    HW254706   0.575   1.378  18.537
14360SOL     OW54707   4.427   3.908   5.540
14360SOL    HW154708   4.440   3.985   5.595
14360SOL    HW254709   4.458   3.835   5.593
14361SOL     OW54710   1.634   0.499   1.870
14361SOL    HW154711   1.719   0.455   1.860
14361SOL    HW254712   1.574   0.430   1.899
14362SOL     OW54713   0.822   3.735   6.132
14362SOL    HW154714   0.794   3.649   6.164
14362SOL    HW254715   0.743   3.773   6.094
14363SOL     OW54716   4.314   1.338  17.462
14363SOL    HW154717   4.329   1.275  17.391
14363SOL    HW254718   4.320   1.424  17.420
14364SOL     OW54719   2.219   4.676   0.723
14364SOL    HW154720   2.141   4.621   0.730
14364SOL    HW254721   2.249   4.686   0.813
14365SOL     OW54722   0.643   3.505   1.895
14365SOL    HW154723   0.553   3.507   1.927
14365SOL    HW254724   0.688   3.447   1.957
14366SOL     OW54725   2.237   0.186   0.453
14366SOL    HW154726   2.230   0.281   0.449
14366SOL    HW254727   2.148   0.157   0.475
14367SOL     OW54728   2.427   4.242  10.315
14367SOL    HW154729   2.434   4.302  10.389
14367SOL    HW254730   2.407   4.299  10.241
14368SOL     OW54731   1.343   2.220   2.599
14368SOL    HW154732   1.393   2.225   2.681
14368SOL    HW254733   1.327   2.311   2.576
14369SOL     OW54734   2.020   3.264  23.922
14369SOL    HW154735   1.931   3.228  23.926
14369SOL    HW254736   2.055   3.233  23.839
14370SOL     OW54737   4.587   0.292   0.176
14370SOL    HW154738   4.542   0.326   0.099
14370SOL    HW254739   4.674   0.269   0.144
14371SOL     OW54740   2.595   3.507   6.106
14371SOL    HW154741   2.604   3.555   6.188
14371SOL    HW254742   2.501   3.507   6.088
14372SOL     OW54743   1.680   2.070   2.035
14372SOL    HW154744   1.695   1.999   1.972
14372SOL    HW254745   1.585   2.070   2.050
14373SOL     OW54746   2.536   2.845   4.925
14373SOL    HW154747   2.605   2.816   4.985
14373SOL    HW254748   2.528   2.939   4.941
14374SOL     OW54749   2.044   3.462   5.908
14374SOL    HW154750   2.031   3.429   5.997
14374SOL    HW254751   1.963   3.508   5.887
14375SOL     OW54752   3.002   3.249  23.144
14375SOL    HW154753   3.049   3.311  23.199
14375SOL    HW254754   3.029   3.163  23.176
14376SOL     OW54755   2.582   0.663  26.185
14376SOL    HW154756   2.645   0.718  26.231
14376SOL    HW254757   2.634   0.592  26.148
14377SOL     OW54758   1.195   1.607  21.982
14377SOL    HW154759   1.220   1.564  21.900
14377SOL    HW254760   1.178   1.698  21.957
14378SOL     OW54761   0.938   3.568  20.325
14378SOL    HW154762   0.857   3.552  20.277
14378SOL    HW254763   0.993   3.492  20.306
14379SOL     OW54764   1.385   3.891   1.801
14379SOL    HW154765   1.388   3.822   1.867
14379SOL    HW254766   1.297   3.884   1.763
14380SOL     OW54767   0.357   0.032   3.296
14380SOL    HW154768   0.345   0.099   3.228
14380SOL    HW254769   0.277   4.760   3.293
14381SOL     OW54770   4.540   3.776   4.953
14381SOL    HW154771   4.492   3.855   4.980
14381SOL    HW254772   4.605   3.763   5.022
14382SOL     OW54773   4.446   2.067  21.764
14382SOL    HW154774   4.503   2.018  21.823
14382SOL    HW254775   4.486   2.056  21.678
14383SOL     OW54776   1.079   4.113   0.953
14383SOL    HW154777   1.141   4.073   1.014
14383SOL    HW254778   1.044   4.039   0.903
14384SOL     OW54779   1.455   0.312   3.611
14384SOL    HW154780   1.407   0.287   3.532
14384SOL    HW254781   1.544   0.281   3.596
14385SOL     OW54782   2.611   1.611  25.313
14385SOL    HW154783   2.530   1.615  25.261
14385SOL    HW254784   2.665   1.546  25.268
14386SOL     OW54785   0.715   1.434   3.764
14386SOL    HW154786   0.683   1.419   3.853
14386SOL    HW254787   0.806   1.403   3.766
14387SOL     OW54788   1.387   3.905   0.729
14387SOL    HW154789   1.382   3.977   0.792
14387SOL    HW254790   1.316   3.922   0.667
14388SOL     OW54791   3.509   2.639  22.719
14388SOL    HW154792   3.460   2.712  22.756
14388SOL    HW254793   3.508   2.654  22.625
14389SOL     OW54794   3.727   4.374  25.962
14389SOL    HW154795   3.682   4.435  26.021
14389SOL    HW254796   3.819   4.400  25.965
14390SOL     OW54797   3.332   4.501   1.344
14390SOL    HW154798   3.427   4.494   1.354
14390SOL    HW254799   3.304   4.412   1.322
14391SOL     OW54800   3.265   1.489   8.570
14391SOL    HW154801   3.206   1.553   8.611
14391SOL    HW254802   3.273   1.518   8.479
14392SOL     OW54803   4.317   1.848  27.296
14392SOL    HW154804   4.318   1.819  27.387
14392SOL    HW254805   4.338   1.769  27.245
14393SOL     OW54806   4.778   0.612  26.454
14393SOL    HW154807   0.039   0.693  26.425
14393SOL    HW254808   4.701   0.641  26.504
14394SOL     OW54809   1.770   4.373  18.557
14394SOL    HW154810   1.796   4.465  18.562
14394SOL    HW254811   1.726   4.365  18.472
14395SOL     OW54812   3.067   2.312  19.514
14395SOL    HW154813   2.972   2.322  19.513
14395SOL    HW254814   3.091   2.320  19.606
14396SOL     OW54815   0.638   3.316  10.589
14396SOL    HW154816   0.724   3.306  10.548
14396SOL    HW254817   0.576   3.312  10.516
14397SOL     OW54818   1.295   4.536   2.858
14397SOL    HW154819   1.210   4.579   2.852
14397SOL    HW254820   1.351   4.584   2.797
14398SOL     OW54821   3.107   4.572  25.643
14398SOL    HW154822   3.186   4.536  25.684
14398SOL    HW254823   3.035   4.534  25.693
14399SOL     OW54824   1.380   4.156  22.985
14399SOL    HW154825   1.441   4.086  23.007
14399SOL    HW254826   1.294   4.115  22.986
14400SOL     OW54827   4.735   1.387   6.312
14400SOL    HW154828   0.002   1.370   6.393
14400SOL    HW254829   4.644   1.367   6.332
14401SOL     OW54830   2.501   3.181   2.880
14401SOL    HW154831   2.533   3.222   2.960
14401SOL    HW254832   2.562   3.209   2.812
14402SOL     OW54833   3.406   2.230  20.162
14402SOL    HW154834   3.329   2.258  20.212
14402SOL    HW254835   3.406   2.286  20.084
14403SOL     OW54836   1.750   4.222   3.008
14403SOL    HW154837   1.804   4.146   3.031
14403SOL    HW254838   1.687   4.189   2.944
14404SOL     OW54839   3.380   4.488  24.157
14404SOL    HW154840   3.458   4.475  24.211
14404SOL    HW254841   3.349   4.399  24.138
14405SOL     OW54842   1.443   3.483  22.604
14405SOL    HW154843   1.447   3.402  22.655
14405SOL    HW254844   1.533   3.516  22.604
14406SOL     OW54845   0.889   4.265  28.161
14406SOL    HW154846   0.813   4.314  28.129
14406SOL    HW254847   0.871   4.174  28.135
14407SOL     OW54848   2.233   3.758   5.690
14407SOL    HW154849   2.216   3.706   5.612
14407SOL    HW254850   2.309   3.812   5.667
14408SOL     OW54851   2.939   2.998  24.921
14408SOL    HW154852   3.008   3.065  24.922
14408SOL    HW254853   2.958   2.945  24.843
14409SOL     OW54854   2.268   0.623   2.782
14409SOL    HW154855   2.310   0.645   2.699
14409SOL    HW254856   2.184   0.669   2.780
14410SOL     OW54857   2.115   3.435   7.560
14410SOL    HW154858   2.032   3.482   7.562
14410SOL    HW254859   2.090   3.343   7.560
14411SOL     OW54860   0.898   2.096  26.054
14411SOL    HW154861   0.804   2.110  26.045
14411SOL    HW254862   0.937   2.177  26.021
14412SOL     OW54863   1.086   1.660   7.695
14412SOL    HW154864   1.133   1.609   7.761
14412SOL    HW254865   1.014   1.701   7.743
14413SOL     OW54866   3.665   2.079  21.126
14413SOL    HW154867   3.732   2.144  21.146
14413SOL    HW254868   3.584   2.129  21.116
14414SOL     OW54869   1.247   1.910   1.083
14414SOL    HW154870   1.261   1.965   1.160
14414SOL    HW254871   1.158   1.931   1.055
14415SOL     OW54872   0.566   2.393   2.200
14415SOL    HW154873   0.598   2.313   2.241
14415SOL    HW254874   0.642   2.428   2.153
14416SOL     OW54875   3.896   3.380  20.988
14416SOL    HW154876   3.955   3.365  21.062
14416SOL    HW254877   3.948   3.430  20.925
14417SOL     OW54878   1.380   2.637  10.085
14417SOL    HW154879   1.307   2.695  10.066
14417SOL    HW254880   1.396   2.590  10.003
14418SOL     OW54881   2.708   3.292  19.375
14418SOL    HW154882   2.644   3.333  19.433
14418SOL    HW254883   2.747   3.365  19.326
14419SOL     OW54884   2.301   3.201   6.657
14419SOL    HW154885   2.310   3.126   6.598
14419SOL    HW254886   2.334   3.276   6.607
14420SOL     OW54887   1.573   4.329  21.757
14420SOL    HW154888   1.597   4.292  21.842
14420SOL    HW254889   1.639   4.295  21.697
14421SOL     OW54890   2.629   1.303   3.050
14421SOL    HW154891   2.544   1.265   3.073
14421SOL    HW254892   2.618   1.336   2.961
14422SOL     OW54893   3.819   4.621   1.337
14422SOL    HW154894   3.872   4.637   1.259
14422SOL    HW254895   3.881   4.592   1.404
14423SOL     OW54896   0.946   3.685   9.835
14423SOL    HW154897   0.945   3.767   9.786
14423SOL    HW254898   1.021   3.693   9.895
14424SOL     OW54899   1.628   1.170   0.749
14424SOL    HW154900   1.640   1.201   0.659
14424SOL    HW254901   1.714   1.138   0.775
14425SOL     OW54902   2.324   3.986  10.325
14425SOL    HW154903   2.358   3.974  10.414
14425SOL    HW254904   2.343   4.077  10.304
14426SOL     OW54905   1.322   4.111   4.442
14426SOL    HW154906   1.297   4.033   4.492
14426SOL    HW254907   1.314   4.085   4.350
14427SOL     OW54908   3.456   4.034  26.577
14427SOL    HW154909   3.548   4.006  26.576
14427SOL    HW254910   3.433   4.039  26.670
14428SOL     OW54911   2.586   3.215  26.327
14428SOL    HW154912   2.636   3.286  26.286
14428SOL    HW254913   2.500   3.253  26.346
14429SOL     OW54914   1.265   3.569   1.539
14429SOL    HW154915   1.232   3.559   1.450
14429SOL    HW254916   1.200   3.524   1.593
14430SOL     OW54917   0.899   1.328  23.593
14430SOL    HW154918   0.849   1.294  23.667
14430SOL    HW254919   0.833   1.369  23.537
14431SOL     OW54920   0.332   3.290   7.366
14431SOL    HW154921   0.257   3.248   7.324
14431SOL    HW254922   0.370   3.346   7.298
14432SOL     OW54923   0.749   2.921   7.083
14432SOL    HW154924   0.787   3.001   7.046
14432SOL    HW254925   0.701   2.951   7.160
14433SOL     OW54926   0.089   4.010  21.790
14433SOL    HW154927   0.015   4.021  21.850
14433SOL    HW254928   0.049   4.011  21.703
14434SOL     OW54929   1.064   1.082  21.445
14434SOL    HW154930   1.040   0.991  21.461
14434SOL    HW254931   0.999   1.133  21.493
14435SOL     OW54932   0.678   0.593   8.784
14435SOL    HW154933   0.707   0.536   8.713
14435SOL    HW254934   0.601   0.549   8.820
14436SOL     OW54935   4.380   0.503  12.664
14436SOL    HW154936   4.348   0.413  12.660
14436SOL    HW254937   4.323   0.546  12.728
14437SOL     OW54938   0.448   2.338   3.907
14437SOL    HW154939   0.411   2.398   3.843
14437SOL    HW254940   0.398   2.354   3.987
14438SOL     OW54941   2.456   1.482   2.273
14438SOL    HW154942   2.537   1.513   2.233
14438SOL    HW254943   2.480   1.465   2.364
14439SOL     OW54944   2.625   0.469  22.711
14439SOL    HW154945   2.577   0.484  22.792
14439SOL    HW254946   2.558   0.447  22.647
14440SOL     OW54947   3.659   2.555   2.604
14440SOL    HW154948   3.648   2.480   2.662
14440SOL    HW254949   3.720   2.612   2.650
14441SOL     OW54950   2.288   1.586  12.135
14441SOL    HW154951   2.207   1.578  12.186
14441SOL    HW254952   2.305   1.680  12.131
14442SOL     OW54953   1.411   0.975   1.922
14442SOL    HW154954   1.411   1.015   1.835
14442SOL    HW254955   1.424   0.882   1.905
14443SOL     OW54956   0.612   4.648  11.869
14443SOL    HW154957   0.674   4.586  11.831
14443SOL    HW254958   0.584   4.703  11.796
14444SOL     OW54959   2.446   3.604   7.958
14444SOL    HW154960   2.368   3.560   7.924
14444SOL    HW254961   2.518   3.545   7.935
14445SOL     OW54962   3.316   3.875   8.632
14445SOL    HW154963   3.310   3.921   8.548
14445SOL    HW254964   3.358   3.937   8.691
14446SOL     OW54965   2.823   3.572  24.711
14446SOL    HW154966   2.872   3.654  24.702
14446SOL    HW254967   2.741   3.597  24.752
14447SOL     OW54968   3.099   3.975  13.935
14447SOL    HW154969   3.047   3.970  14.015
14447SOL    HW254970   3.073   4.058  13.895
14448SOL     OW54971   2.710   2.785  11.981
14448SOL    HW154972   2.695   2.714  12.044
14448SOL    HW254973   2.660   2.859  12.015
14449SOL     OW54974   0.881   0.841  12.195
14449SOL    HW154975   0.926   0.757  12.190
14449SOL    HW254976   0.838   0.841  12.280
14450SOL     OW54977   0.668   3.468   3.695
14450SOL    HW154978   0.724   3.400   3.657
14450SOL    HW254979   0.687   3.465   3.789
14451SOL     OW54980   1.732   0.150   6.461
14451SOL    HW154981   1.728   0.206   6.383
14451SOL    HW254982   1.824   0.125   6.467
14452SOL     OW54983   3.303   2.228  26.460
14452SOL    HW154984   3.254   2.299  26.502
14452SOL    HW254985   3.356   2.191  26.530
14453SOL     OW54986   2.804   4.408  12.848
14453SOL    HW154987   2.885   4.375  12.888
14453SOL    HW254988   2.759   4.454  12.919
14454SOL     OW54989   0.257   4.163   3.745
14454SOL    HW154990   0.225   4.120   3.665
14454SOL    HW254991   0.219   4.251   3.742
14455SOL     OW54992   4.285   3.882  19.294
14455SOL    HW154993   4.353   3.825  19.259
14455SOL    HW254994   4.218   3.883  19.226
14456SOL     OW54995   3.410   3.266   9.239
14456SOL    HW154996   3.466   3.290   9.165
14456SOL    HW254997   3.468   3.267   9.315
14457SOL     OW54998   2.912   1.878  27.612
14457SOL    HW154999   2.955   1.815  27.669
14457SOL    HW255000   2.842   1.915  27.666
14458SOL     OW55001   1.086   4.741  12.824
14458SOL    HW155002   1.002   4.695  12.815
14458SOL    HW255003   1.096   4.754  12.918
14459SOL     OW55004   2.347   1.110   7.468
14459SOL    HW155005   2.401   1.084   7.542
14459SOL    HW255006   2.257   1.095   7.498
14460SOL     OW55007   2.283   0.978  23.840
14460SOL    HW155008   2.297   1.015  23.927
14460SOL    HW255009   2.201   0.929  23.847
14461SOL     OW55010   2.819   2.768  21.910
14461SOL    HW155011   2.800   2.762  21.816
14461SOL    HW255012   2.813   2.678  21.941
14462SOL     OW55013   2.321   1.670   5.164
14462SOL    HW155014   2.317   1.576   5.181
14462SOL    HW255015   2.248   1.687   5.104
14463SOL     OW55016   2.007   0.398  13.633
14463SOL    HW155017   1.998   0.466  13.700
14463SOL    HW255018   1.990   0.316  13.679
14464SOL     OW55019   2.666   4.035   3.624
14464SOL    HW155020   2.628   4.102   3.568
14464SOL    HW255021   2.740   4.001   3.574
14465SOL     OW55022   0.876   4.469  21.586
14465SOL    HW155023   0.811   4.412  21.546
14465SOL    HW255024   0.923   4.508  21.512
14466SOL     OW55025   2.509   0.128  14.047
14466SOL    HW155026   2.514   0.204  13.989
14466SOL    HW255027   2.420   0.095  14.036
14467SOL     OW55028   1.220   1.830  27.877
14467SOL    HW155029   1.159   1.841  27.804
14467SOL    HW255030   1.264   1.747  27.860
14468SOL     OW55031   0.696   0.949  12.446
14468SOL    HW155032   0.753   1.015  12.484
14468SOL    HW255033   0.645   0.996  12.381
14469SOL     OW55034   2.127   1.471   5.484
14469SOL    HW155035   2.157   1.517   5.563
14469SOL    HW255036   2.108   1.541   5.421
14470SOL     OW55037   0.083   0.666   3.492
14470SOL    HW155038   0.160   0.648   3.546
14470SOL    HW255039   0.013   0.682   3.555
14471SOL     OW55040   3.489   2.629   8.100
14471SOL    HW155041   3.518   2.545   8.063
14471SOL    HW255042   3.551   2.647   8.171
14472SOL     OW55043   1.819   1.144  26.711
14472SOL    HW155044   1.750   1.092  26.669
14472SOL    HW255045   1.818   1.227  26.664
14473SOL     OW55046   1.813   2.244   8.722
14473SOL    HW155047   1.867   2.195   8.784
14473SOL    HW255048   1.842   2.215   8.636
14474SOL     OW55049   1.197   0.643  10.528
14474SOL    HW155050   1.180   0.671  10.438
14474SOL    HW255051   1.112   0.652  10.572
14475SOL     OW55052   3.565   1.201  27.730
14475SOL    HW155053   3.478   1.213  27.692
14475SOL    HW255054   3.605   1.288  27.725
14476SOL     OW55055   4.141   0.494   3.732
14476SOL    HW155056   4.172   0.505   3.822
14476SOL    HW255057   4.076   0.564   3.721
14477SOL     OW55058   1.753   4.263  21.575
14477SOL    HW155059   1.824   4.233  21.632
14477SOL    HW255060   1.788   4.341  21.532
14478SOL     OW55061   1.033   4.425  22.281
14478SOL    HW155062   1.034   4.450  22.189
14478SOL    HW255063   1.113   4.373  22.292
14479SOL     OW55064   4.669   2.848  26.036
14479SOL    HW155065   4.629   2.762  26.050
14479SOL    HW255066   4.655   2.895  26.118
14480SOL     OW55067   2.108   1.082   4.691
14480SOL    HW155068   2.133   1.111   4.603
14480SOL    HW255069   2.043   1.013   4.676
14481SOL     OW55070   0.867   3.744  12.357
14481SOL    HW155071   0.791   3.714  12.406
14481SOL    HW255072   0.942   3.711  12.406
14482SOL     OW55073   0.717   2.577   0.850
14482SOL    HW155074   0.732   2.599   0.758
14482SOL    HW255075   0.649   2.638   0.879
14483SOL     OW55076   1.728   1.583   9.504
14483SOL    HW155077   1.719   1.544   9.591
14483SOL    HW255078   1.736   1.508   9.445
14484SOL     OW55079   1.821   2.679  27.366
14484SOL    HW155080   1.764   2.748  27.332
14484SOL    HW255081   1.877   2.655  27.292
14485SOL     OW55082   3.894   1.669   3.828
14485SOL    HW155083   3.959   1.732   3.859
14485SOL    HW255084   3.813   1.720   3.819
14486SOL     OW55085   3.283   4.460  12.843
14486SOL    HW155086   3.256   4.549  12.867
14486SOL    HW255087   3.297   4.463  12.748
14487SOL     OW55088   1.239   1.998  23.550
14487SOL    HW155089   1.296   2.074  23.540
14487SOL    HW255090   1.163   2.018  23.496
14488SOL     OW55091   4.403   2.711  26.570
14488SOL    HW155092   4.446   2.678  26.649
14488SOL    HW255093   4.392   2.634  26.514
14489SOL     OW55094   2.035   2.340   2.383
14489SOL    HW155095   1.946   2.323   2.352
14489SOL    HW255096   2.062   2.258   2.425
14490SOL     OW55097   4.018   0.774   7.550
14490SOL    HW155098   3.952   0.707   7.534
14490SOL    HW255099   3.974   0.838   7.606
14491SOL     OW55100   3.417   3.227  28.392
14491SOL    HW155101   3.379   3.288  28.329
14491SOL    HW255102   3.343   3.175  28.424
14492SOL     OW55103   0.073   2.137   7.890
14492SOL    HW155104   4.769   2.114   7.852
14492SOL    HW255105   0.136   2.080   7.847
14493SOL     OW55106   0.129   3.310  26.993
14493SOL    HW155107   0.160   3.221  26.974
14493SOL    HW255108   0.034   3.301  27.002
14494SOL     OW55109   3.827   1.263   7.455
14494SOL    HW155110   3.882   1.322   7.507
14494SOL    HW255111   3.749   1.315   7.435
14495SOL     OW55112   2.017   1.104  28.497
14495SOL    HW155113   1.932   1.127   0.015
14495SOL    HW255114   2.033   1.173  28.432
14496SOL     OW55115   3.294   1.793  11.300
14496SOL    HW155116   3.268   1.885  11.298
14496SOL    HW255117   3.367   1.791  11.362
14497SOL     OW55118   1.281   2.735   6.164
14497SOL    HW155119   1.289   2.775   6.077
14497SOL    HW255120   1.368   2.701   6.183
14498SOL     OW55121   2.541   0.122  19.851
14498SOL    HW155122   2.545   0.040  19.802
14498SOL    HW255123   2.467   0.169  19.813
14499SOL     OW55124   3.835   0.391  25.215
14499SOL    HW155125   3.845   0.307  25.170
14499SOL    HW255126   3.921   0.433  25.208
14500SOL     OW55127   4.539   1.805  23.674
14500SOL    HW155128   4.534   1.743  23.747
14500SOL    HW255129   4.515   1.889  23.713
14501SOL     OW55130   3.032   3.003  23.446
14501SOL    HW155131   2.997   2.953  23.520
14501SOL    HW255132   3.127   3.003  23.459
14502SOL     OW55133   3.719   1.857  10.781
14502SOL    HW155134   3.630   1.884  10.760
14502SOL    HW255135   3.775   1.927  10.747
14503SOL     OW55136   3.853   1.781   3.041
14503SOL    HW155137   3.944   1.810   3.038
14503SOL    HW255138   3.848   1.723   3.117
14504SOL     OW55139   1.732   0.745  28.063
14504SOL    HW155140   1.807   0.692  28.038
14504SOL    HW255141   1.762   0.835  28.053
14505SOL     OW55142   0.242   0.791  16.644
14505SOL    HW155143   0.308   0.855  16.670
14505SOL    HW255144   0.159   0.839  16.650
14506SOL     OW55145   1.898   4.007   9.214
14506SOL    HW155146   1.973   4.036   9.162
14506SOL    HW255147   1.883   4.079   9.276
14507SOL     OW55148   2.250   0.099   0.188
14507SOL    HW155149   2.342   0.076   0.173
14507SOL    HW255150   2.249   0.142   0.274
14508SOL     OW55151   4.670   4.438  28.467
14508SOL    HW155152   4.673   4.516   0.004
14508SOL    HW255153   4.582   4.402  28.481
14509SOL     OW55154   3.173   0.764   7.279
14509SOL    HW155155   3.238   0.833   7.290
14509SOL    HW255156   3.164   0.725   7.366
14510SOL     OW55157   1.607   1.425   5.936
14510SOL    HW155158   1.526   1.453   5.894
14510SOL    HW255159   1.645   1.506   5.971
14511SOL     OW55160   2.796   3.387   0.690
14511SOL    HW155161   2.846   3.458   0.731
14511SOL    HW255162   2.857   3.313   0.687
14512SOL     OW55163   3.413   1.342  19.335
14512SOL    HW155164   3.402   1.314  19.426
14512SOL    HW255165   3.371   1.273  19.283
14513SOL     OW55166   0.302   2.025   7.782
14513SOL    HW155167   0.339   1.948   7.825
14513SOL    HW255168   0.372   2.056   7.725
14514SOL     OW55169   3.543   0.737  11.743
14514SOL    HW155170   3.537   0.826  11.709
14514SOL    HW255171   3.634   0.728  11.773
14515SOL     OW55172   0.140   1.636  11.529
14515SOL    HW155173   0.179   1.714  11.489
14515SOL    HW255174   0.053   1.630  11.491
14516SOL     OW55175   0.973   1.229   1.164
14516SOL    HW155176   1.047   1.169   1.165
14516SOL    HW255177   1.013   1.316   1.154
14517SOL     OW55178   1.677   2.081  27.480
14517SOL    HW155179   1.633   2.160  27.511
14517SOL    HW255180   1.606   2.020  27.461
14518SOL     OW55181   1.418   3.004  11.764
14518SOL    HW155182   1.510   2.997  11.737
14518SOL    HW255183   1.391   2.913  11.779
14519SOL     OW55184   1.725   4.049   8.033
14519SOL    HW155185   1.660   4.086   7.973
14519SOL    HW255186   1.719   4.103   8.111
14520SOL     OW55187   3.266   2.305  24.614
14520SOL    HW155188   3.198   2.272  24.673
14520SOL    HW255189   3.220   2.323  24.532
14521SOL     OW55190   1.756   3.541   4.965
14521SOL    HW155191   1.745   3.463   5.020
14521SOL    HW255192   1.693   3.604   5.001
14522SOL     OW55193   3.313   3.865  27.736
14522SOL    HW155194   3.399   3.826  27.748
14522SOL    HW255195   3.306   3.880  27.642
14523SOL     OW55196   2.679   4.550  12.309
14523SOL    HW155197   2.664   4.456  12.323
14523SOL    HW255198   2.634   4.592  12.382
14524SOL     OW55199   3.346   3.441   7.114
14524SOL    HW155200   3.317   3.375   7.051
14524SOL    HW255201   3.310   3.523   7.081
14525SOL     OW55202   0.870   1.859  13.163
14525SOL    HW155203   0.931   1.811  13.218
14525SOL    HW255204   0.783   1.832  13.193
14526SOL     OW55205   0.703   1.029   6.815
14526SOL    HW155206   0.675   0.960   6.755
14526SOL    HW255207   0.763   0.985   6.875
14527SOL     OW55208   1.382   0.799  23.101
14527SOL    HW155209   1.469   0.822  23.067
14527SOL    HW255210   1.333   0.881  23.097
14528SOL     OW55211   1.727   4.618  12.164
14528SOL    HW155212   1.659   4.591  12.225
14528SOL    HW255213   1.772   4.689  12.209
14529SOL     OW55214   3.434   2.464  24.853
14529SOL    HW155215   3.427   2.559  24.858
14529SOL    HW255216   3.374   2.439  24.783
14530SOL     OW55217   1.832   3.958   0.694
14530SOL    HW155218   1.753   4.012   0.685
14530SOL    HW255219   1.847   3.954   0.788
14531SOL     OW55220   4.478   2.096  23.763
14531SOL    HW155221   4.549   2.144  23.721
14531SOL    HW255222   4.460   2.145  23.843
14532SOL     OW55223   0.339   2.310   2.024
14532SOL    HW155224   0.406   2.241   2.025
14532SOL    HW255225   0.356   2.362   2.102
14533SOL     OW55226   2.375   4.021  11.192
14533SOL    HW155227   2.374   4.113  11.219
14533SOL    HW255228   2.460   3.989  11.222
14534SOL     OW55229   1.485   3.733  12.775
14534SOL    HW155230   1.498   3.708  12.683
14534SOL    HW255231   1.428   3.664  12.810
14535SOL     OW55232   2.154   1.116  13.129
14535SOL    HW155233   2.213   1.132  13.203
14535SOL    HW255234   2.091   1.052  13.162
14536SOL     OW55235   1.862   4.647  14.230
14536SOL    HW155236   1.945   4.632  14.276
14536SOL    HW255237   1.795   4.633  14.297
14537SOL     OW55238   2.484   2.715  11.760
14537SOL    HW155239   2.409   2.686  11.708
14537SOL    HW255240   2.458   2.697  11.850
14538SOL     OW55241   4.356   4.402  11.359
14538SOL    HW155242   4.314   4.476  11.314
14538SOL    HW255243   4.337   4.417  11.452
14539SOL     OW55244   1.885   3.495  12.210
14539SOL    HW155245   1.927   3.581  12.220
14539SOL    HW255246   1.936   3.437  12.267
14540SOL     OW55247   1.711   4.704  14.485
14540SOL    HW155248   1.687   4.753  14.564
14540SOL    HW255249   1.764   4.631  14.517
14541SOL     OW55250   3.113   3.503   5.719
14541SOL    HW155251   3.134   3.410   5.726
14541SOL    HW255252   3.046   3.517   5.786
14542SOL     OW55253   1.126   1.934  13.020
14542SOL    HW155254   1.184   1.859  13.009
14542SOL    HW255255   1.079   1.916  13.102
14543SOL     OW55256   2.015   0.864  13.130
14543SOL    HW155257   1.983   0.782  13.093
14543SOL    HW255258   1.970   0.872  13.214
14544SOL     OW55259   2.964   0.839   0.347
14544SOL    HW155260   2.888   0.848   0.290
14544SOL    HW255261   3.037   0.873   0.295
14545SOL     OW55262   2.031   3.308  12.597
14545SOL    HW155263   1.977   3.387  12.591
14545SOL    HW255264   2.015   3.274  12.685
14546SOL     OW55265   3.526   1.487  12.234
14546SOL    HW155266   3.561   1.458  12.318
14546SOL    HW255267   3.459   1.552  12.257
14547SOL     OW55268   0.091   0.204   6.507
14547SOL    HW155269   0.094   0.206   6.603
14547SOL    HW255270   4.779   0.215   6.486
14548SOL     OW55271   4.395   3.587  11.139
14548SOL    HW155272   4.329   3.634  11.189
14548SOL    HW255273   4.392   3.498  11.173
14549SOL     OW55274   2.653   2.183  11.418
14549SOL    HW155275   2.669   2.102  11.466
14549SOL    HW255276   2.730   2.194  11.362
14550SOL     OW55277   4.417   1.631  12.501
14550SOL    HW155278   4.333   1.609  12.541
14550SOL    HW255279   4.464   1.680  12.568
14551SOL     OW55280   0.736   3.672  12.597
14551SOL    HW155281   0.691   3.726  12.662
14551SOL    HW255282   0.765   3.595  12.646
14552SOL     OW55283   1.023   2.779  12.963
14552SOL    HW155284   1.025   2.768  13.058
14552SOL    HW255285   1.114   2.795  12.938
14553SOL     OW55286   2.498   0.660  12.611
14553SOL    HW155287   2.462   0.575  12.586
14553SOL    HW255288   2.431   0.699  12.667
14554SOL     OW55289   1.059   3.592  12.496
14554SOL    HW155290   1.038   3.521  12.557
14554SOL    HW255291   1.117   3.552  12.431
14555SOL     OW55292   0.412   0.847  11.965
14555SOL    HW155293   0.498   0.881  11.988
14555SOL    HW255294   0.415   0.755  11.991
14556SOL     OW55295   2.968   4.367  13.228
14556SOL    HW155296   2.912   4.301  13.269
14556SOL    HW255297   2.911   4.443  13.216
14557SOL     OW55298   0.079   4.410  11.656
14557SOL    HW155299   0.167   4.440  11.677
14557SOL    HW255300   0.085   4.383  11.564
14558SOL     OW55301   0.390   1.039   9.394
14558SOL    HW155302   0.357   0.979   9.327
14558SOL    HW255303   0.452   0.987   9.444
14559SOL     OW55304   4.442   4.065   3.509
14559SOL    HW155305   4.490   4.064   3.592
14559SOL    HW255306   4.436   3.973   3.484
14560SOL     OW55307   2.053   0.984  11.712
14560SOL    HW155308   2.000   1.040  11.656
14560SOL    HW255309   2.008   0.900  11.712
14561SOL     OW55310   0.261   4.555  11.399
14561SOL    HW155311   0.165   4.558  11.400
14561SOL    HW255312   0.287   4.571  11.490
14562SOL     OW55313   1.551   0.491  13.721
14562SOL    HW155314   1.576   0.524  13.807
14562SOL    HW255315   1.456   0.483  13.724
14563SOL     OW55316   2.363   0.383  13.176
14563SOL    HW155317   2.378   0.441  13.251
14563SOL    HW255318   2.411   0.423  13.104
14564SOL     OW55319   1.119   2.380  18.987
14564SOL    HW155320   1.190   2.443  18.991
14564SOL    HW255321   1.122   2.346  18.897
14565SOL     OW55322   1.486   3.329  15.614
14565SOL    HW155323   1.394   3.320  15.589
14565SOL    HW255324   1.525   3.245  15.591
14566SOL     OW55325   1.804   3.797  14.757
14566SOL    HW155326   1.862   3.861  14.798
14566SOL    HW255327   1.862   3.744  14.702
14567SOL     OW55328   1.493   3.187  14.714
14567SOL    HW155329   1.482   3.275  14.751
14567SOL    HW255330   1.419   3.177  14.654
14568SOL     OW55331   3.638   4.077  12.457
14568SOL    HW155332   3.684   4.079  12.541
14568SOL    HW255333   3.582   4.154  12.458
14569SOL     OW55334   1.349   0.184  14.528
14569SOL    HW155335   1.260   0.200  14.560
14569SOL    HW255336   1.397   0.265  14.547
14570SOL     OW55337   1.071   3.702  13.276
14570SOL    HW155338   1.047   3.628  13.332
14570SOL    HW255339   1.165   3.691  13.260
14571SOL     OW55340   1.027   3.626  13.778
14571SOL    HW155341   1.089   3.648  13.848
14571SOL    HW255342   0.981   3.708  13.760
14572SOL     OW55343   1.460   3.112  13.521
14572SOL    HW155344   1.436   3.146  13.607
14572SOL    HW255345   1.541   3.063  13.536
14573SOL     OW55346   0.892   3.445  13.613
14573SOL    HW155347   0.934   3.504  13.675
14573SOL    HW255348   0.926   3.472  13.528
14574SOL     OW55349   0.836   3.841  13.671
14574SOL    HW155350   0.765   3.803  13.723
14574SOL    HW255351   0.815   3.817  13.581
14575SOL     OW55352   1.564   0.063  14.642
14575SOL    HW155353   1.520   0.119  14.578
14575SOL    HW255354   1.494   0.033  14.700
14576SOL     OW55355   0.725   0.293  13.824
14576SOL    HW155356   0.632   0.291  13.802
14576SOL    HW255357   0.735   0.372  13.877
14577SOL     OW55358   1.478   3.673  13.596
14577SOL    HW155359   1.507   3.647  13.683
14577SOL    HW255360   1.405   3.733  13.612
14578SOL     OW55361   0.559   0.235  13.531
14578SOL    HW155362   0.515   0.289  13.596
14578SOL    HW255363   0.643   0.278  13.516
14579SOL     OW55364   1.749   3.096  14.757
14579SOL    HW155365   1.659   3.109  14.726
14579SOL    HW255366   1.775   3.181  14.792
14580SOL     OW55367   2.555   4.728  13.817
14580SOL    HW155368   2.502   4.673  13.875
14580SOL    HW255369   2.509   0.031  13.813
14581SOL     OW55370   3.680   2.528  12.911
14581SOL    HW155371   3.614   2.597  12.906
14581SOL    HW255372   3.654   2.475  12.986
14582SOL     OW55373   0.997   4.453  13.860
14582SOL    HW155374   0.990   4.507  13.781
14582SOL    HW255375   0.951   4.503  13.927
14583SOL     OW55376   1.381   2.691  13.615
14583SOL    HW155377   1.325   2.725  13.685
14583SOL    HW255378   1.446   2.638  13.661
14584SOL     OW55379   0.822   3.488  13.064
14584SOL    HW155380   0.797   3.572  13.102
14584SOL    HW255381   0.789   3.492  12.974
14585SOL     OW55382   0.302   3.286  12.919
14585SOL    HW155383   0.230   3.348  12.933
14585SOL    HW255384   0.269   3.226  12.852
14586SOL     OW55385   0.790   3.750  13.417
14586SOL    HW155386   0.841   3.773  13.340
14586SOL    HW255387   0.712   3.706  13.382
14587SOL     OW55388   1.292   3.861  13.546
14587SOL    HW155389   1.354   3.934  13.537
14587SOL    HW255390   1.219   3.898  13.595
14588SOL     OW55391   1.056   2.638  14.720
14588SOL    HW155392   0.994   2.674  14.783
14588SOL    HW255393   1.097   2.564  14.766
14589SOL     OW55394   2.150   4.011  14.437
14589SOL    HW155395   2.221   4.018  14.500
14589SOL    HW255396   2.176   3.938  14.380
14590SOL     OW55397   0.973   3.446  13.349
14590SOL    HW155398   1.046   3.393  13.316
14590SOL    HW255399   0.907   3.441  13.280
14591SOL     OW55400   2.838   0.091  13.844
14591SOL    HW155401   2.823   0.185  13.849
14591SOL    HW255402   2.756   0.056  13.811
14592SOL     OW55403   2.448   3.821  13.448
14592SOL    HW155404   2.356   3.845  13.440
14592SOL    HW255405   2.458   3.744  13.392
14593SOL     OW55406   1.105   3.982  13.291
14593SOL    HW155407   1.086   3.993  13.384
14593SOL    HW255408   1.108   3.887  13.278
14594SOL     OW55409   0.484   3.093  14.067
14594SOL    HW155410   0.414   3.028  14.062
14594SOL    HW255411   0.530   3.073  14.149
14595SOL     OW55412   1.063   3.986  14.458
14595SOL    HW155413   1.015   3.904  14.463
14595SOL    HW255414   1.005   4.050  14.499
14596SOL     OW55415   0.888   3.821  13.999
14596SOL    HW155416   0.804   3.798  13.959
14596SOL    HW255417   0.871   3.905  14.042
14597SOL     OW55418   1.128   4.234  13.734
14597SOL    HW155419   1.066   4.297  13.771
14597SOL    HW255420   1.202   4.236  13.794
14598SOL     OW55421   1.872   2.898  13.806
14598SOL    HW155422   1.943   2.961  13.799
14598SOL    HW255423   1.886   2.838  13.732
14599SOL     OW55424   1.288   4.060  13.093
14599SOL    HW155425   1.213   4.048  13.152
14599SOL    HW255426   1.333   3.976  13.095
14600SOL     OW55427   0.776   0.506  14.007
14600SOL    HW155428   0.839   0.571  13.976
14600SOL    HW255429   0.830   0.433  14.038
14601SOL     OW55430   3.483   3.249  13.928
14601SOL    HW155431   3.517   3.313  13.990
14601SOL    HW255432   3.480   3.167  13.977
14602SOL     OW55433   0.570   3.627  13.320
14602SOL    HW155434   0.527   3.621  13.235
14602SOL    HW255435   0.526   3.562  13.374
14603SOL     OW55436   0.173   3.117  12.723
14603SOL    HW155437   0.126   3.042  12.686
14603SOL    HW255438   0.235   3.142  12.654
14604SOL     OW55439   1.272   3.431  16.725
14604SOL    HW155440   1.351   3.394  16.685
14604SOL    HW255441   1.217   3.456  16.651
14605SOL     OW55442   1.137   0.870  15.256
14605SOL    HW155443   1.170   0.829  15.176
14605SOL    HW255444   1.083   0.802  15.297
14606SOL     OW55445   0.836   4.398  15.750
14606SOL    HW155446   0.831   4.318  15.697
14606SOL    HW255447   0.825   4.469  15.687
14607SOL     OW55448   0.620   3.638  15.687
14607SOL    HW155449   0.711   3.627  15.660
14607SOL    HW255450   0.570   3.626  15.606
14608SOL     OW55451   1.254   1.686  16.442
14608SOL    HW155452   1.249   1.593  16.464
14608SOL    HW255453   1.169   1.707  16.403
14609SOL     OW55454   1.458   2.949  16.245
14609SOL    HW155455   1.424   2.884  16.306
14609SOL    HW255456   1.389   3.015  16.238
14610SOL     OW55457   1.658   3.474  16.075
14610SOL    HW155458   1.656   3.453  15.982
14610SOL    HW255459   1.629   3.394  16.118
14611SOL     OW55460   0.584   4.473  15.882
14611SOL    HW155461   0.633   4.438  15.807
14611SOL    HW255462   0.573   4.566  15.862
14612SOL     OW55463   2.447   4.538  15.798
14612SOL    HW155464   2.360   4.575  15.787
14612SOL    HW255465   2.505   4.614  15.804
14613SOL     OW55466   1.102   4.077  15.067
14613SOL    HW155467   1.135   4.147  15.124
14613SOL    HW255468   1.142   3.997  15.102
14614SOL     OW55469   0.765   3.949  16.097
14614SOL    HW155470   0.707   3.961  16.173
14614SOL    HW255471   0.811   4.033  16.089
14615SOL     OW55472   2.236   3.272  15.467
14615SOL    HW155473   2.222   3.359  15.429
14615SOL    HW255474   2.211   3.282  15.559
14616SOL     OW55475   2.158   3.286  15.720
14616SOL    HW155476   2.246   3.318  15.740
14616SOL    HW255477   2.107   3.308  15.798
14617SOL     OW55478   1.772   3.053  15.100
14617SOL    HW155479   1.712   3.127  15.101
14617SOL    HW255480   1.835   3.071  15.170
14618SOL     OW55481   0.887   3.854  15.850
14618SOL    HW155482   0.924   3.937  15.821
14618SOL    HW255483   0.826   3.878  15.920
14619SOL     OW55484   0.613   4.737  15.767
14619SOL    HW155485   0.709   4.735  15.762
14619SOL    HW255486   0.584   4.733  15.676
14620SOL     OW55487   2.477   3.078  15.856
14620SOL    HW155488   2.414   3.082  15.928
14620SOL    HW255489   2.427   3.108  15.780
14621SOL     OW55490   2.206   4.396  15.436
14621SOL    HW155491   2.207   4.487  15.408
14621SOL    HW255492   2.248   4.348  15.365
14622SOL     OW55493   1.021   4.740  16.041
14622SOL    HW155494   1.027   4.645  16.051
14622SOL    HW255495   1.091   4.775  16.096
14623SOL     OW55496   1.897   3.480  15.692
14623SOL    HW155497   1.931   3.410  15.636
14623SOL    HW255498   1.966   3.493  15.757
14624SOL     OW55499   1.684   3.147  16.002
14624SOL    HW155500   1.644   3.190  16.078
14624SOL    HW255501   1.661   3.203  15.928
14625SOL     OW55502   1.943   3.145  15.573
14625SOL    HW155503   1.935   3.052  15.592
14625SOL    HW255504   2.014   3.175  15.629
14626SOL     OW55505   2.152   4.159  14.199
14626SOL    HW155506   2.113   4.112  14.273
14626SOL    HW255507   2.078   4.202  14.156
14627SOL     OW55508   1.309   3.190  14.499
14627SOL    HW155509   1.393   3.178  14.455
14627SOL    HW255510   1.251   3.126  14.457
14628SOL     OW55511   1.699   1.425  17.319
14628SOL    HW155512   1.708   1.467  17.233
14628SOL    HW255513   1.740   1.339  17.308
14629SOL     OW55514   0.547   4.219  16.187
14629SOL    HW155515   0.570   4.166  16.263
14629SOL    HW255516   0.535   4.156  16.116
14630SOL     OW55517   1.465   4.471  15.658
14630SOL    HW155518   1.494   4.424  15.736
14630SOL    HW255519   1.374   4.444  15.646
14631SOL     OW55520   1.205   4.269  15.226
14631SOL    HW155521   1.220   4.240  15.316
14631SOL    HW255522   1.145   4.343  15.234
14632SOL     OW55523   1.566   3.249  16.206
14632SOL    HW155524   1.475   3.222  16.220
14632SOL    HW255525   1.594   3.282  16.291
14633SOL     OW55526   0.840   3.945  17.629
14633SOL    HW155527   0.769   3.983  17.681
14633SOL    HW255528   0.898   3.903  17.693
14634SOL     OW55529   0.661   3.730  16.759
14634SOL    HW155530   0.569   3.710  16.773
14634SOL    HW255531   0.706   3.692  16.834
14635SOL     OW55532   1.145   4.610  16.272
14635SOL    HW155533   1.123   4.701  16.290
14635SOL    HW255534   1.065   4.561  16.291
14636SOL     OW55535   2.212   2.309  15.153
14636SOL    HW155536   2.299   2.342  15.131
14636SOL    HW255537   2.155   2.347  15.086
14637SOL     OW55538   1.247   3.468  15.262
14637SOL    HW155539   1.310   3.478  15.191
14637SOL    HW255540   1.163   3.496  15.225
14638SOL     OW55541   0.915   3.379  15.733
14638SOL    HW155542   0.944   3.317  15.666
14638SOL    HW255543   0.926   3.465  15.692
14639SOL     OW55544   0.738   3.605  16.078
14639SOL    HW155545   0.765   3.677  16.134
14639SOL    HW255546   0.654   3.633  16.041
14640SOL     OW55547   0.373   4.385  16.044
14640SOL    HW155548   0.436   4.422  15.981
14640SOL    HW255549   0.415   4.305  16.076
14641SOL     OW55550   0.993   3.485  14.460
14641SOL    HW155551   1.062   3.465  14.396
14641SOL    HW255552   0.997   3.413  14.523
14642SOL     OW55553   0.240   3.457  18.363
14642SOL    HW155554   0.335   3.450  18.360
14642SOL    HW255555   0.210   3.368  18.383
14643SOL     OW55556   3.003   4.664  19.377
14643SOL    HW155557   3.072   4.647  19.441
14643SOL    HW255558   2.940   4.719  19.424
14644SOL     OW55559   0.617   1.055  25.748
14644SOL    HW155560   0.577   1.109  25.816
14644SOL    HW255561   0.682   1.003  25.794
14645SOL     OW55562   1.449   0.871   5.648
14645SOL    HW155563   1.449   0.965   5.667
14645SOL    HW255564   1.496   0.863   5.565
14646SOL     OW55565   0.003   0.939  16.694
14646SOL    HW155566   4.755   0.988  16.617
14646SOL    HW255567   4.708   0.942  16.754
14647SOL     OW55568   4.361   3.511  17.160
14647SOL    HW155569   4.289   3.499  17.099
14647SOL    HW255570   4.410   3.586  17.125
14648SOL     OW55571   0.817   4.040  18.896
14648SOL    HW155572   0.859   4.120  18.926
14648SOL    HW255573   0.889   3.982  18.874
14649SOL     OW55574   1.892   4.384  17.044
14649SOL    HW155575   1.876   4.435  16.965
14649SOL    HW255576   1.863   4.440  17.115
14650SOL     OW55577   1.918   0.601  15.599
14650SOL    HW155578   1.893   0.526  15.546
14650SOL    HW255579   1.981   0.648  15.545
14651SOL     OW55580   1.406   3.634  16.122
14651SOL    HW155581   1.493   3.606  16.094
14651SOL    HW255582   1.358   3.648  16.040
14652SOL     OW55583   4.121   3.121  17.384
14652SOL    HW155584   4.109   3.183  17.456
14652SOL    HW255585   4.033   3.110  17.347
14653SOL     OW55586   4.585   0.933  16.174
14653SOL    HW155587   4.653   0.955  16.111
14653SOL    HW255588   4.534   1.014  16.184
14654SOL     OW55589   1.455   3.273  16.629
14654SOL    HW155590   1.507   3.292  16.551
14654SOL    HW255591   1.410   3.191  16.609
14655SOL     OW55592   4.754   0.505  16.694
14655SOL    HW155593   4.774   0.553  16.614
14655SOL    HW255594   0.057   0.465  16.719
14656SOL     OW55595   4.712   1.478  10.794
14656SOL    HW155596   4.698   1.534  10.870
14656SOL    HW255597   4.780   1.522  10.743
14657SOL     OW55598   1.643   3.714  18.606
14657SOL    HW155599   1.616   3.650  18.672
14657SOL    HW255600   1.582   3.787  18.617
14658SOL     OW55601   3.693   0.222   4.362
14658SOL    HW155602   3.769   0.164   4.363
14658SOL    HW255603   3.730   0.309   4.378
14659SOL     OW55604   3.955   2.574   9.238
14659SOL    HW155605   3.861   2.581   9.254
14659SOL    HW255606   3.989   2.534   9.318
14660SOL     OW55607   0.274   1.008  16.834
14660SOL    HW155608   0.198   1.034  16.782
14660SOL    HW255609   0.237   0.975  16.916
14661SOL     OW55610   3.234   0.160  17.476
14661SOL    HW155611   3.201   0.205  17.399
14661SOL    HW255612   3.169   0.178  17.544
14662SOL     OW55613   4.322   0.557  24.301
14662SOL    HW155614   4.309   0.466  24.276
14662SOL    HW255615   4.260   0.571  24.373
14663SOL     OW55616   2.806   1.416  18.045
14663SOL    HW155617   2.804   1.398  17.951
14663SOL    HW255618   2.739   1.358  18.082
14664SOL     OW55619   4.062   1.907  25.108
14664SOL    HW155620   4.035   1.940  25.022
14664SOL    HW255621   4.131   1.844  25.088
14665SOL     OW55622   3.547   4.766   9.372
14665SOL    HW155623   3.542   4.678   9.335
14665SOL    HW255624   3.509   4.757   9.460
14666SOL     OW55625   4.409   0.242  17.029
14666SOL    HW155626   4.342   0.297  17.069
14666SOL    HW255627   4.465   0.216  17.102
14667SOL     OW55628   2.690   2.925  18.579
14667SOL    HW155629   2.639   3.000  18.610
14667SOL    HW255630   2.780   2.946  18.603
14668SOL     OW55631   1.524   3.891  17.943
14668SOL    HW155632   1.468   3.958  17.904
14668SOL    HW255633   1.508   3.813  17.890
14669SOL     OW55634   0.848   3.900  28.385
14669SOL    HW155635   0.828   3.860  28.470
14669SOL    HW255636   0.813   3.989  28.391
14670SOL     OW55637   3.101   3.397  18.599
14670SOL    HW155638   3.046   3.419  18.524
14670SOL    HW255639   3.190   3.400  18.565
14671SOL     OW55640   1.198   4.716  27.553
14671SOL    HW155641   1.264   4.780  27.580
14671SOL    HW255642   1.116   4.765  27.550
14672SOL     OW55643   0.026   0.161  20.989
14672SOL    HW155644   0.040   0.221  20.916
14672SOL    HW255645   4.714   0.171  21.010
14673SOL     OW55646   1.575   3.583  18.131
14673SOL    HW155647   1.579   3.614  18.041
14673SOL    HW255648   1.645   3.630  18.176
14674SOL     OW55649   1.942   4.120  16.984
14674SOL    HW155650   1.899   4.107  16.899
14674SOL    HW255651   1.945   4.215  16.995
14675SOL     OW55652   1.370   3.740  16.358
14675SOL    HW155653   1.379   3.713  16.267
14675SOL    HW255654   1.382   3.835  16.357
14676SOL     OW55655   0.430   3.943  17.621
14676SOL    HW155656   0.469   4.027  17.643
14676SOL    HW255657   0.481   3.911  17.547
14677SOL     OW55658   4.322   3.428  17.731
14677SOL    HW155659   4.365   3.482  17.797
14677SOL    HW255660   4.388   3.416  17.663
14678SOL     OW55661   0.833   3.436  17.551
14678SOL    HW155662   0.874   3.351  17.568
14678SOL    HW255663   0.867   3.462  17.465
14679SOL     OW55664   4.293   0.480  16.289
14679SOL    HW155665   4.211   0.434  16.309
14679SOL    HW255666   4.266   0.570  16.270
14680SOL     OW55667   0.619   3.853  11.721
14680SOL    HW155668   0.550   3.919  11.713
14680SOL    HW255669   0.573   3.771  11.737
14681SOL     OW55670   0.154   3.831  18.944
14681SOL    HW155671   0.177   3.910  18.994
14681SOL    HW255672   0.104   3.777  19.006
14682SOL     OW55673   0.110   1.693  21.302
14682SOL    HW155674   0.155   1.775  21.279
14682SOL    HW255675   0.154   1.663  21.382
14683SOL     OW55676   0.533   1.854  14.027
14683SOL    HW155677   0.509   1.933  14.075
14683SOL    HW255678   0.464   1.844  13.961
14684SOL     OW55679   2.833   0.523  26.539
14684SOL    HW155680   2.913   0.546  26.492
14684SOL    HW255681   2.762   0.548  26.480
14685SOL     OW55682   0.947   0.325  17.007
14685SOL    HW155683   0.914   0.321  17.097
14685SOL    HW255684   0.936   0.236  16.973
14686SOL     OW55685   0.298   4.186  19.419
14686SOL    HW155686   0.251   4.113  19.459
14686SOL    HW255687   0.352   4.221  19.489
14687SOL     OW55688   4.455   0.513   5.629
14687SOL    HW155689   4.400   0.542   5.557
14687SOL    HW255690   4.513   0.587   5.647
14688SOL     OW55691   4.103   1.135  20.350
14688SOL    HW155692   4.093   1.151  20.444
14688SOL    HW255693   4.106   1.040  20.342
14689SOL     OW55694   1.908   0.679  20.932
14689SOL    HW155695   1.865   0.594  20.923
14689SOL    HW255696   1.842   0.742  20.903
14690SOL     OW55697   1.723   4.631   6.705
14690SOL    HW155698   1.699   4.588   6.787
14690SOL    HW255699   1.692   4.721   6.715
14691SOL     OW55700   4.167   0.581   4.358
14691SOL    HW155701   4.255   0.578   4.396
14691SOL    HW255702   4.180   0.608   4.267
14692SOL     OW55703   4.155   1.705   6.273
14692SOL    HW155704   4.155   1.677   6.365
14692SOL    HW255705   4.228   1.657   6.234
14693SOL     OW55706   3.411   4.385   8.166
14693SOL    HW155707   3.444   4.345   8.247
14693SOL    HW255708   3.384   4.473   8.192
14694SOL     OW55709   3.760   0.200   6.931
14694SOL    HW155710   3.808   0.282   6.923
14694SOL    HW255711   3.817   0.143   6.983
14695SOL     OW55712   3.283   1.293   7.899
14695SOL    HW155713   3.377   1.313   7.900
14695SOL    HW255714   3.263   1.268   7.989
14696SOL     OW55715   1.608   4.306   0.237
14696SOL    HW155716   1.603   4.243   0.309
14696SOL    HW255717   1.679   4.273   0.182
14697SOL     OW55718   3.878   0.060  21.359
14697SOL    HW155719   3.950   0.094  21.413
14697SOL    HW255720   3.799   0.075  21.412
14698SOL     OW55721   0.861   2.561  18.918
14698SOL    HW155722   0.774   2.547  18.880
14698SOL    HW255723   0.870   2.492  18.984
14699SOL     OW55724   1.576   2.650  20.319
14699SOL    HW155725   1.522   2.606  20.253
14699SOL    HW255726   1.532   2.632  20.402
14700SOL     OW55727   2.656   1.760  19.644
14700SOL    HW155728   2.623   1.778  19.732
14700SOL    HW255729   2.688   1.844  19.612
14701SOL     OW55730   0.982   3.040  24.102
14701SOL    HW155731   0.973   2.952  24.138
14701SOL    HW255732   1.005   3.026  24.010
14702SOL     OW55733   0.017   3.435   1.833
14702SOL    HW155734   0.041   3.355   1.786
14702SOL    HW255735   4.705   3.423   1.854
14703SOL     OW55736   2.430   0.826   3.757
14703SOL    HW155737   2.465   0.900   3.806
14703SOL    HW255738   2.342   0.813   3.792
14704SOL     OW55739   2.594   4.415  19.266
14704SOL    HW155740   2.541   4.396  19.343
14704SOL    HW255741   2.678   4.372  19.283
14705SOL     OW55742   2.313   2.025  11.070
14705SOL    HW155743   2.239   2.083  11.087
14705SOL    HW255744   2.318   2.020  10.975
14706SOL     OW55745   2.089   4.450   5.196
14706SOL    HW155746   2.031   4.526   5.201
14706SOL    HW255747   2.172   4.486   5.163
14707SOL     OW55748   1.926   0.066   1.559
14707SOL    HW155749   1.988   0.028   1.621
14707SOL    HW255750   1.976   0.134   1.513
14708SOL     OW55751   2.989   1.906  10.098
14708SOL    HW155752   2.910   1.924  10.150
14708SOL    HW255753   3.004   1.812  10.109
14709SOL     OW55754   1.459   2.996  20.157
14709SOL    HW155755   1.445   2.956  20.071
14709SOL    HW255756   1.496   3.082  20.138
14710SOL     OW55757   1.692   2.968  23.466
14710SOL    HW155758   1.644   3.009  23.538
14710SOL    HW255759   1.628   2.964  23.395
14711SOL     OW55760   0.122   1.052  10.783
14711SOL    HW155761   0.092   1.116  10.848
14711SOL    HW255762   0.157   1.105  10.711
14712SOL     OW55763   0.408   4.760   6.394
14712SOL    HW155764   0.427   0.056   6.449
14712SOL    HW255765   0.487   4.748   6.342
14713SOL     OW55766   1.899   4.496  11.179
14713SOL    HW155767   1.881   4.435  11.107
14713SOL    HW255768   1.986   4.471  11.211
14714SOL     OW55769   4.402   1.953   7.605
14714SOL    HW155770   4.362   2.039   7.592
14714SOL    HW255771   4.336   1.891   7.573
14715SOL     OW55772   0.844   1.951   3.912
14715SOL    HW155773   0.814   1.949   3.821
14715SOL    HW255774   0.766   1.974   3.962
14716SOL     OW55775   2.437   4.608   9.249
14716SOL    HW155776   2.379   4.684   9.250
14716SOL    HW255777   2.417   4.561   9.330
14717SOL     OW55778   3.308   2.937   3.061
14717SOL    HW155779   3.372   2.878   3.101
14717SOL    HW255780   3.228   2.884   3.054
14718SOL     OW55781   4.670   1.360  26.290
14718SOL    HW155782   4.675   1.282  26.345
14718SOL    HW255783   4.589   1.350  26.240
14719SOL     OW55784   0.354   3.048   1.189
14719SOL    HW155785   0.425   3.029   1.128
14719SOL    HW255786   0.281   2.995   1.158
14720SOL     OW55787   4.281   1.777  25.919
14720SOL    HW155788   4.318   1.752  25.834
14720SOL    HW255789   4.189   1.796  25.900
14721SOL     OW55790   1.855   3.100  25.818
14721SOL    HW155791   1.795   3.152  25.871
14721SOL    HW255792   1.812   3.015  25.808
14722SOL     OW55793   0.312   2.912  21.081
14722SOL    HW155794   0.222   2.928  21.053
14722SOL    HW255795   0.307   2.906  21.176
14723SOL     OW55796   2.504   2.285   7.901
14723SOL    HW155797   2.415   2.299   7.934
14723SOL    HW255798   2.525   2.365   7.853
14724SOL     OW55799   0.914   1.186   8.393
14724SOL    HW155800   0.910   1.282   8.394
14724SOL    HW255801   0.839   1.160   8.339
14725SOL     OW55802   0.389   3.141  24.848
14725SOL    HW155803   0.342   3.080  24.791
14725SOL    HW255804   0.478   3.106  24.851
14726SOL     OW55805   1.496   1.389   1.915
14726SOL    HW155806   1.507   1.328   1.988
14726SOL    HW255807   1.497   1.334   1.837
14727SOL     OW55808   1.096   2.644   8.393
14727SOL    HW155809   1.059   2.597   8.319
14727SOL    HW255810   1.147   2.578   8.440
14728SOL     OW55811   1.563   3.230  27.137
14728SOL    HW155812   1.572   3.288  27.212
14728SOL    HW255813   1.473   3.243  27.107
14729SOL     OW55814   4.423   4.675  19.017
14729SOL    HW155815   4.369   4.751  18.993
14729SOL    HW255816   4.362   4.601  19.014
14730SOL     OW55817   2.715   2.481  28.299
14730SOL    HW155818   2.685   2.412  28.359
14730SOL    HW255819   2.650   2.551  28.309
14731SOL     OW55820   4.164   3.456  16.975
14731SOL    HW155821   4.176   3.372  16.930
14731SOL    HW255822   4.076   3.450  17.012
14732SOL     OW55823   0.330   2.005  24.219
14732SOL    HW155824   0.373   2.087  24.193
14732SOL    HW255825   0.391   1.965  24.281
14733SOL     OW55826   4.172   1.014  21.950
14733SOL    HW155827   4.115   0.978  22.018
14733SOL    HW255828   4.252   1.037  21.996
14734SOL     OW55829   3.609   0.283  17.122
14734SOL    HW155830   3.687   0.249  17.078
14734SOL    HW255831   3.574   0.208  17.170
14735SOL     OW55832   1.023   0.220  18.783
14735SOL    HW155833   0.959   0.291  18.778
14735SOL    HW255834   0.977   0.143  18.749
14736SOL     OW55835   0.676   0.926   5.959
14736SOL    HW155836   0.711   0.905   6.045
14736SOL    HW255837   0.664   1.021   5.960
14737SOL     OW55838   2.708   1.960   1.999
14737SOL    HW155839   2.750   2.038   1.963
14737SOL    HW255840   2.695   1.902   1.924
14738SOL     OW55841   0.209   3.318   8.427
14738SOL    HW155842   0.268   3.244   8.413
14738SOL    HW255843   0.219   3.339   8.520
14739SOL     OW55844   1.401   2.209  17.985
14739SOL    HW155845   1.427   2.136  17.929
14739SOL    HW255846   1.310   2.190  18.009
14740SOL     OW55847   4.757   0.119   7.796
14740SOL    HW155848   4.702   0.041   7.793
14740SOL    HW255849   4.697   0.191   7.775
14741SOL     OW55850   2.150   4.256  27.668
14741SOL    HW155851   2.148   4.162  27.687
14741SOL    HW255852   2.197   4.263  27.585
14742SOL     OW55853   3.984   4.431   8.970
14742SOL    HW155854   4.051   4.482   8.924
14742SOL    HW255855   4.011   4.434   9.062
14743SOL     OW55856   0.783   0.254   0.198
14743SOL    HW155857   0.700   0.215   0.226
14743SOL    HW255858   0.759   0.308   0.123
14744SOL     OW55859   1.662   0.748  27.074
14744SOL    HW155860   1.735   0.704  27.031
14744SOL    HW255861   1.663   0.837  27.038
14745SOL     OW55862   4.242   2.205   6.526
14745SOL    HW155863   4.207   2.228   6.612
14745SOL    HW255864   4.335   2.227   6.532
14746SOL     OW55865   0.547   4.517  24.768
14746SOL    HW155866   0.500   4.480  24.693
14746SOL    HW255867   0.532   4.454  24.839
14747SOL     OW55868   2.941   1.453  21.308
14747SOL    HW155869   2.858   1.461  21.356
14747SOL    HW255870   2.962   1.360  21.314
14748SOL     OW55871   3.341   0.840  23.033
14748SOL    HW155872   3.334   0.836  22.938
14748SOL    HW255873   3.319   0.751  23.062
14749SOL     OW55874   2.470   2.917  21.786
14749SOL    HW155875   2.472   2.920  21.882
14749SOL    HW255876   2.436   3.003  21.760
14750SOL     OW55877   1.076   3.458   4.548
14750SOL    HW155878   1.099   3.388   4.487
14750SOL    HW255879   1.146   3.523   4.537
14751SOL     OW55880   1.905   0.133  28.395
14751SOL    HW155881   1.943   0.194  28.459
14751SOL    HW255882   1.980   0.095  28.350
14752SOL     OW55883   1.666   0.620  23.473
14752SOL    HW155884   1.636   0.679  23.542
14752SOL    HW255885   1.745   0.579  23.509
14753SOL     OW55886   1.461   1.426   2.790
14753SOL    HW155887   1.423   1.499   2.742
14753SOL    HW255888   1.551   1.420   2.759
14754SOL     OW55889   4.561   4.472  26.424
14754SOL    HW155890   4.620   4.466  26.500
14754SOL    HW255891   4.615   4.446  26.350
14755SOL     OW55892   0.874   3.497  23.182
14755SOL    HW155893   0.961   3.498  23.143
14755SOL    HW255894   0.889   3.512  23.275
14756SOL     OW55895   3.564   3.950   3.202
14756SOL    HW155896   3.632   3.906   3.253
14756SOL    HW255897   3.595   4.040   3.193
14757SOL     OW55898   3.246   1.877  24.811
14757SOL    HW155899   3.212   1.961  24.841
14757SOL    HW255900   3.180   1.845  24.750
14758SOL     OW55901   4.473   1.410  21.908
14758SOL    HW155902   4.415   1.484  21.888
14758SOL    HW255903   4.443   1.340  21.849
14759SOL     OW55904   1.737   3.121   1.704
14759SOL    HW155905   1.704   3.091   1.619
14759SOL    HW255906   1.765   3.041   1.748
14760SOL     OW55907   0.228   1.342  25.925
14760SOL    HW155908   0.318   1.372  25.914
14760SOL    HW255909   0.205   1.304  25.840
14761SOL     OW55910   0.024   3.055   6.376
14761SOL    HW155911   4.725   3.088   6.334
14761SOL    HW255912   0.060   3.130   6.423
14762SOL     OW55913   2.874   3.429   2.863
14762SOL    HW155914   2.966   3.455   2.854
14762SOL    HW255915   2.868   3.395   2.952
14763SOL     OW55916   3.508   2.328  26.270
14763SOL    HW155917   3.424   2.296  26.303
14763SOL    HW255918   3.552   2.364  26.347
14764SOL     OW55919   2.886   1.659   0.215
14764SOL    HW155920   2.827   1.675   0.288
14764SOL    HW255921   2.965   1.708   0.237
14765SOL     OW55922   0.752   3.095  20.513
14765SOL    HW155923   0.831   3.060  20.472
14765SOL    HW255924   0.777   3.182  20.544
14766SOL     OW55925   3.718   4.549  23.468
14766SOL    HW155926   3.801   4.597  23.468
14766SOL    HW255927   3.716   4.505  23.383
14767SOL     OW55928   3.903   3.888   4.361
14767SOL    HW155929   3.942   3.868   4.446
14767SOL    HW255930   3.862   3.974   4.373
14768SOL     OW55931   3.477   3.092  11.094
14768SOL    HW155932   3.542   3.036  11.051
14768SOL    HW255933   3.508   3.101  11.184
14769SOL     OW55934   2.874   2.696   3.116
14769SOL    HW155935   2.845   2.759   3.050
14769SOL    HW255936   2.967   2.682   3.097
14770SOL     OW55937   2.131   1.887   3.149
14770SOL    HW155938   2.180   1.851   3.223
14770SOL    HW255939   2.123   1.980   3.168
14771SOL     OW55940   3.242   3.788  17.835
14771SOL    HW155941   3.208   3.845  17.904
14771SOL    HW255942   3.193   3.814  17.757
14772SOL     OW55943   2.228   3.323   8.703
14772SOL    HW155944   2.169   3.393   8.731
14772SOL    HW255945   2.261   3.352   8.618
14773SOL     OW55946   4.201   2.637  19.138
14773SOL    HW155947   4.141   2.574  19.177
14773SOL    HW255948   4.145   2.695  19.087
14774SOL     OW55949   0.660   4.522  20.539
14774SOL    HW155950   0.622   4.435  20.548
14774SOL    HW255951   0.717   4.516  20.462
14775SOL     OW55952   4.687   1.431  23.478
14775SOL    HW155953   4.617   1.398  23.534
14775SOL    HW255954   4.729   1.352  23.444
14776SOL     OW55955   0.166   2.576   2.658
14776SOL    HW155956   0.228   2.574   2.731
14776SOL    HW255957   0.083   2.547   2.696
14777SOL     OW55958   3.019   1.196  18.908
14777SOL    HW155959   3.048   1.231  18.992
14777SOL    HW255960   2.952   1.131  18.931
14778SOL     OW55961   4.578   0.658  26.960
14778SOL    HW155962   4.612   0.678  26.873
14778SOL    HW255963   4.656   0.634  27.011
14779SOL     OW55964   0.492   3.605   6.178
14779SOL    HW155965   0.461   3.652   6.101
14779SOL    HW255966   0.493   3.513   6.151
14780SOL     OW55967   1.872   2.107  28.223
14780SOL    HW155968   1.932   2.174  28.255
14780SOL    HW255969   1.927   2.031  28.205
14781SOL     OW55970   0.554   1.033  27.304
14781SOL    HW155971   0.618   0.963  27.293
14781SOL    HW255972   0.469   0.991  27.290
14782SOL     OW55973   1.814   1.151  27.334
14782SOL    HW155974   1.862   1.185  27.258
14782SOL    HW255975   1.836   1.058  27.337
14783SOL     OW55976   3.582   1.387  10.599
14783SOL    HW155977   3.610   1.450  10.665
14783SOL    HW255978   3.588   1.302  10.642
14784SOL     OW55979   4.739   1.462   2.489
14784SOL    HW155980   4.685   1.493   2.562
14784SOL    HW255981   0.018   1.535   2.470
14785SOL     OW55982   0.026   1.566  22.593
14785SOL    HW155983   0.018   1.514  22.673
14785SOL    HW255984   0.120   1.574  22.579
14786SOL     OW55985   3.314   0.134  23.505
14786SOL    HW155986   3.384   0.181  23.459
14786SOL    HW255987   3.246   0.122  23.439
14787SOL     OW55988   3.654   3.817  24.348
14787SOL    HW155989   3.670   3.904  24.311
14787SOL    HW255990   3.723   3.806  24.413
14788SOL     OW55991   2.258   1.564   2.937
14788SOL    HW155992   2.232   1.490   2.991
14788SOL    HW255993   2.330   1.605   2.985
14789SOL     OW55994   4.253   2.074  19.748
14789SOL    HW155995   4.262   2.064  19.843
14789SOL    HW255996   4.338   2.047  19.712
14790SOL     OW55997   1.651   3.641   9.560
14790SOL    HW155998   1.606   3.679   9.485
14790SOL    HW255999   1.618   3.690   9.635
14791SOL     OW56000   3.617   2.107   2.700
14791SOL    HW156001   3.523   2.103   2.716
14791SOL    HW256002   3.654   2.039   2.757
14792SOL     OW56003   4.324   0.683  25.754
14792SOL    HW156004   4.379   0.713  25.826
14792SOL    HW256005   4.385   0.640  25.694
14793SOL     OW56006   1.973   3.474  22.520
14793SOL    HW156007   2.049   3.475  22.579
14793SOL    HW256008   2.011   3.471  22.432
14794SOL     OW56009   3.740   2.907  23.208
14794SOL    HW156010   3.743   2.815  23.183
14794SOL    HW256011   3.786   2.952  23.137
14795SOL     OW56012   3.314   4.777   5.791
14795SOL    HW156013   3.240   4.720   5.769
14795SOL    HW256014   3.319   4.775   5.887
14796SOL     OW56015   1.996   0.070   0.501
14796SOL    HW156016   1.961   4.768   0.466
14796SOL    HW256017   1.945   0.086   0.580
14797SOL     OW56018   0.509   4.052   9.211
14797SOL    HW156019   0.493   3.967   9.253
14797SOL    HW256020   0.568   4.098   9.271
14798SOL     OW56021   4.526   4.426   3.760
14798SOL    HW156022   4.565   4.512   3.745
14798SOL    HW256023   4.588   4.381   3.817
14799SOL     OW56024   1.480   3.612   8.159
14799SOL    HW156025   1.502   3.594   8.250
14799SOL    HW256026   1.521   3.697   8.141
14800SOL     OW56027   4.464   1.886  18.032
14800SOL    HW156028   4.509   1.810  17.995
14800SOL    HW256029   4.472   1.954  17.965
14801SOL     OW56030   2.311   1.106  28.178
14801SOL    HW156031   2.403   1.123  28.156
14801SOL    HW256032   2.313   1.073  28.268
14802SOL     OW56033   2.818   1.706  22.866
14802SOL    HW156034   2.864   1.640  22.917
14802SOL    HW256035   2.885   1.772  22.847
14803SOL     OW56036   1.924   1.625  24.055
14803SOL    HW156037   2.002   1.577  24.084
14803SOL    HW256038   1.861   1.613  24.126
14804SOL     OW56039   4.030   1.465  20.882
14804SOL    HW156040   3.944   1.504  20.900
14804SOL    HW256041   4.018   1.416  20.801
14805SOL     OW56042   1.347   3.941  10.653
14805SOL    HW156043   1.326   3.954  10.746
14805SOL    HW256044   1.265   3.912  10.614
14806SOL     OW56045   4.515   3.629  21.024
14806SOL    HW156046   4.609   3.631  21.040
14806SOL    HW256047   4.506   3.638  20.929
14807SOL     OW56048   2.184   1.878  27.712
14807SOL    HW156049   2.175   1.871  27.617
14807SOL    HW256050   2.220   1.966  27.726
14808SOL     OW56051   2.356   4.338  18.659
14808SOL    HW156052   2.390   4.333  18.748
14808SOL    HW256053   2.430   4.314  18.603
14809SOL     OW56054   1.861   0.387  19.497
14809SOL    HW156055   1.780   0.387  19.547
14809SOL    HW256056   1.845   0.325  19.426
14810SOL     OW56057   4.054   1.953  22.729
14810SOL    HW156058   4.138   1.999  22.721
14810SOL    HW256059   3.993   2.020  22.761
14811SOL     OW56060   2.856   1.946   4.890
14811SOL    HW156061   2.794   2.019   4.888
14811SOL    HW256062   2.907   1.960   4.970
14812SOL     OW56063   0.014   4.033  27.445
14812SOL    HW156064   0.105   4.055  27.427
14812SOL    HW256065   4.775   3.960  27.386
14813SOL     OW56066   1.977   0.409   1.734
14813SOL    HW156067   1.919   0.343   1.772
14813SOL    HW256068   1.925   0.450   1.665
14814SOL     OW56069   1.765   2.474   6.006
14814SOL    HW156070   1.706   2.439   5.940
14814SOL    HW256071   1.760   2.569   5.995
14815SOL     OW56072   2.744   2.166   7.799
14815SOL    HW156073   2.669   2.172   7.858
14815SOL    HW256074   2.792   2.248   7.813
14816SOL     OW56075   2.210   4.235  28.076
14816SOL    HW156076   2.180   4.271  28.159
14816SOL    HW256077   2.181   4.144  28.078
14817SOL     OW56078   0.948   4.076  25.881
14817SOL    HW156079   1.006   4.046  25.811
14817SOL    HW256080   0.863   4.087  25.839
14818SOL     OW56081   2.931   0.631   7.201
14818SOL    HW156082   3.009   0.686   7.211
14818SOL    HW256083   2.915   0.595   7.288
14819SOL     OW56084   4.758   1.923   5.113
14819SOL    HW156085   4.753   1.850   5.174
14819SOL    HW256086   4.686   1.980   5.139
14820SOL     OW56087   1.585   3.316  23.248
14820SOL    HW156088   1.495   3.304  23.218
14820SOL    HW256089   1.577   3.330  23.342
14821SOL     OW56090   4.771   3.777   0.150
14821SOL    HW156091   0.076   3.817   0.132
14821SOL    HW256092   4.758   3.789   0.244
14822SOL     OW56093   2.562   4.490  11.036
14822SOL    HW156094   2.587   4.528  11.120
14822SOL    HW256095   2.574   4.396  11.047
14823SOL     OW56096   2.573   0.457   3.315
14823SOL    HW156097   2.629   0.390   3.354
14823SOL    HW256098   2.622   0.487   3.238
14824SOL     OW56099   1.161   1.548  26.074
14824SOL    HW156100   1.139   1.458  26.097
14824SOL    HW256101   1.253   1.557  26.099
14825SOL     OW56102   0.587   3.279   1.040
14825SOL    HW156103   0.638   3.258   1.118
14825SOL    HW256104   0.623   3.362   1.009
14826SOL     OW56105   2.663   0.352  22.090
14826SOL    HW156106   2.588   0.293  22.099
14826SOL    HW256107   2.679   0.383  22.179
14827SOL     OW56108   0.146   0.804  10.632
14827SOL    HW156109   0.133   0.879  10.574
14827SOL    HW256110   0.241   0.791  10.633
14828SOL     OW56111   3.960   2.139  19.810
14828SOL    HW156112   3.993   2.211  19.863
14828SOL    HW256113   4.038   2.088  19.788
14829SOL     OW56114   3.168   2.880  18.453
14829SOL    HW156115   3.138   2.801  18.407
14829SOL    HW256116   3.263   2.870  18.459
14830SOL     OW56117   1.214   1.763   7.481
14830SOL    HW156118   1.163   1.716   7.548
14830SOL    HW256119   1.251   1.838   7.527
14831SOL     OW56120   2.755   1.940  11.520
14831SOL    HW156121   2.813   1.954  11.595
14831SOL    HW256122   2.811   1.897  11.455
14832SOL     OW56123   3.683   0.054  20.376
14832SOL    HW156124   3.757   0.108  20.348
14832SOL    HW256125   3.606   0.108  20.358
14833SOL     OW56126   1.127   2.125   0.669
14833SOL    HW156127   1.162   2.038   0.691
14833SOL    HW256128   1.181   2.154   0.595
14834SOL     OW56129   2.562   3.670   0.273
14834SOL    HW156130   2.515   3.620   0.340
14834SOL    HW256131   2.497   3.684   0.204
14835SOL     OW56132   0.342   1.618   8.552
14835SOL    HW156133   0.410   1.669   8.595
14835SOL    HW256134   0.266   1.625   8.610
14836SOL     OW56135   1.765   2.825  26.655
14836SOL    HW156136   1.710   2.776  26.717
14836SOL    HW256137   1.707   2.845  26.582
14837SOL     OW56138   1.323   3.094   2.828
14837SOL    HW156139   1.238   3.123   2.861
14837SOL    HW256140   1.314   2.999   2.821
14838SOL     OW56141   1.233   0.996  23.054
14838SOL    HW156142   1.214   1.022  22.964
14838SOL    HW256143   1.179   1.054  23.107
14839SOL     OW56144   1.419   4.662  18.229
14839SOL    HW156145   1.394   4.754  18.234
14839SOL    HW256146   1.469   4.646  18.309
14840SOL     OW56147   4.258   2.526   7.612
14840SOL    HW156148   4.260   2.466   7.687
14840SOL    HW256149   4.169   2.561   7.611
14841SOL     OW56150   3.113   4.149  19.714
14841SOL    HW156151   3.189   4.091  19.718
14841SOL    HW256152   3.095   4.160  19.621
14842SOL     OW56153   1.236   4.623  21.066
14842SOL    HW156154   1.189   4.694  21.023
14842SOL    HW256155   1.221   4.547  21.010
14843SOL     OW56156   1.230   4.252   4.970
14843SOL    HW156157   1.262   4.211   5.050
14843SOL    HW256158   1.191   4.180   4.920
14844SOL     OW56159   3.117   2.507   8.451
14844SOL    HW156160   3.206   2.473   8.439
14844SOL    HW256161   3.113   2.534   8.543
14845SOL     OW56162   0.387   3.200   7.627
14845SOL    HW156163   0.480   3.218   7.643
14845SOL    HW256164   0.371   3.236   7.540
14846SOL     OW56165   4.318   1.780  26.548
14846SOL    HW156166   4.332   1.844  26.618
14846SOL    HW256167   4.266   1.711  26.589
14847SOL     OW56168   1.974   0.598   2.458
14847SOL    HW156169   2.068   0.585   2.449
14847SOL    HW256170   1.952   0.665   2.393
14848SOL     OW56171   4.091   2.473  24.233
14848SOL    HW156172   4.012   2.419  24.236
14848SOL    HW256173   4.145   2.440  24.304
14849SOL     OW56174   3.049   2.982   8.039
14849SOL    HW156175   3.043   2.901   7.988
14849SOL    HW256176   3.105   2.959   8.113
14850SOL     OW56177   3.238   4.307  22.639
14850SOL    HW156178   3.239   4.278  22.730
14850SOL    HW256179   3.147   4.334  22.624
14851SOL     OW56180   4.588   4.728  11.928
14851SOL    HW156181   4.594   4.663  11.998
14851SOL    HW256182   4.503   4.769  11.941
14852SOL     OW56183   1.736   2.625   7.245
14852SOL    HW156184   1.803   2.691   7.263
14852SOL    HW256185   1.764   2.548   7.294
14853SOL     OW56186   1.608   3.922   3.201
14853SOL    HW156187   1.683   3.979   3.220
14853SOL    HW256188   1.540   3.981   3.168
14854SOL     OW56189   3.281   2.098   0.058
14854SOL    HW156190   3.294   2.004   0.072
14854SOL    HW256191   3.358   2.125   0.008
14855SOL     OW56192   1.224   2.572   6.495
14855SOL    HW156193   1.305   2.622   6.506
14855SOL    HW256194   1.236   2.523   6.414
14856SOL     OW56195   2.445   4.384  19.492
14856SOL    HW156196   2.355   4.395  19.462
14856SOL    HW256197   2.438   4.332  19.572
14857SOL     OW56198   0.178   3.006   3.863
14857SOL    HW156199   0.262   3.053   3.860
14857SOL    HW256200   0.173   2.970   3.951
14858SOL     OW56201   1.685   4.684  26.694
14858SOL    HW156202   1.629   4.607  26.706
14858SOL    HW256203   1.769   4.648  26.664
14859SOL     OW56204   2.907   3.609   1.782
14859SOL    HW156205   2.965   3.581   1.853
14859SOL    HW256206   2.959   3.671   1.732
14860SOL     OW56207   4.042   4.514   1.495
14860SOL    HW156208   3.982   4.440   1.502
14860SOL    HW256209   4.125   4.475   1.466
14861SOL     OW56210   0.782   2.241   6.274
14861SOL    HW156211   0.706   2.298   6.261
14861SOL    HW256212   0.855   2.289   6.235
14862SOL     OW56213   3.050   0.545   4.112
14862SOL    HW156214   2.982   0.500   4.062
14862SOL    HW256215   3.003   0.585   4.185
14863SOL     OW56216   3.201   3.244  27.155
14863SOL    HW156217   3.120   3.264  27.108
14863SOL    HW256218   3.177   3.177  27.219
14864SOL     OW56219   1.631   2.494   3.369
14864SOL    HW156220   1.548   2.495   3.416
14864SOL    HW256221   1.696   2.468   3.435
14865SOL     OW56222   1.125   4.744   6.610
14865SOL    HW156223   1.199   4.704   6.655
14865SOL    HW256224   1.074   0.006   6.679
14866SOL     OW56225   1.450   0.422  21.920
14866SOL    HW156226   1.383   0.421  21.989
14866SOL    HW256227   1.400   0.415  21.838
14867SOL     OW56228   3.374   0.964   6.537
14867SOL    HW156229   3.378   0.905   6.462
14867SOL    HW256230   3.359   0.906   6.612
14868SOL     OW56231   1.554   4.332   4.316
14868SOL    HW156232   1.519   4.245   4.299
14868SOL    HW256233   1.541   4.346   4.410
14869SOL     OW56234   4.076   1.108  27.097
14869SOL    HW156235   4.132   1.170  27.050
14869SOL    HW256236   4.079   1.137  27.188
14870SOL     OW56237   2.596   0.048  23.323
14870SOL    HW156238   2.524   0.108  23.303
14870SOL    HW256239   2.558   4.741  23.313
14871SOL     OW56240   0.557   0.964  27.832
14871SOL    HW156241   0.499   0.982  27.758
14871SOL    HW256242   0.638   0.933  27.792
14872SOL     OW56243   0.607   0.751   6.727
14872SOL    HW156244   0.647   0.669   6.700
14872SOL    HW256245   0.628   0.759   6.820
14873SOL     OW56246   3.547   0.741   0.460
14873SOL    HW156247   3.500   0.678   0.405
14873SOL    HW256248   3.554   0.698   0.545
14874SOL     OW56249   3.535   1.084  25.489
14874SOL    HW156250   3.607   1.108  25.548
14874SOL    HW256251   3.577   1.070  25.404
14875SOL     OW56252   3.712   3.630   1.412
14875SOL    HW156253   3.645   3.687   1.374
14875SOL    HW256254   3.746   3.679   1.486
14876SOL     OW56255   2.061   2.487   7.154
14876SOL    HW156256   1.968   2.469   7.168
14876SOL    HW256257   2.068   2.582   7.159
14877SOL     OW56258   1.440   3.317   9.067
14877SOL    HW156259   1.373   3.383   9.048
14877SOL    HW256260   1.493   3.356   9.136
14878SOL     OW56261   2.632   3.620  26.477
14878SOL    HW156262   2.639   3.692  26.540
14878SOL    HW256263   2.576   3.654  26.407
14879SOL     OW56264   2.380   3.150   5.953
14879SOL    HW156265   2.319   3.166   5.881
14879SOL    HW256266   2.367   3.224   6.012
14880SOL     OW56267   3.726   1.411  24.755
14880SOL    HW156268   3.693   1.500  24.768
14880SOL    HW256269   3.659   1.355  24.794
14881SOL     OW56270   3.422   2.118   3.698
14881SOL    HW156271   3.372   2.059   3.641
14881SOL    HW256272   3.416   2.203   3.655
14882SOL     OW56273   3.384   2.085  18.111
14882SOL    HW156274   3.351   2.039  18.188
14882SOL    HW256275   3.306   2.120  18.068
14883SOL     OW56276   3.196   2.099  26.914
14883SOL    HW156277   3.112   2.093  26.869
14883SOL    HW256278   3.253   2.038  26.868
14884SOL     OW56279   3.191   4.536  24.798
14884SOL    HW156280   3.161   4.623  24.823
14884SOL    HW256281   3.248   4.509  24.870
14885SOL     OW56282   0.107   1.213  26.171
14885SOL    HW156283   0.051   1.285  26.199
14885SOL    HW256284   0.137   1.238  26.083
14886SOL     OW56285   0.025   3.559   4.409
14886SOL    HW156286   4.770   3.477   4.374
14886SOL    HW256287   0.109   3.535   4.448
14887SOL     OW56288   3.899   2.218  26.010
14887SOL    HW156289   3.859   2.198  26.094
14887SOL    HW256290   3.961   2.288  26.029
14888SOL     OW56291   2.675   2.463  11.462
14888SOL    HW156292   2.761   2.467  11.503
14888SOL    HW256293   2.663   2.371  11.440
14889SOL     OW56294   2.456   1.355   6.870
14889SOL    HW156295   2.442   1.299   6.794
14889SOL    HW256296   2.442   1.297   6.945
14890SOL     OW56297   1.064   2.258  17.455
14890SOL    HW156298   1.086   2.349  17.435
14890SOL    HW256299   1.124   2.206  17.401
14891SOL     OW56300   3.842   2.530  27.061
14891SOL    HW156301   3.855   2.505  27.152
14891SOL    HW256302   3.923   2.504  27.017
14892SOL     OW56303   4.588   3.051   0.059
14892SOL    HW156304   4.578   3.069  28.485
14892SOL    HW256305   4.602   3.137   0.098
14893SOL     OW56306   0.413   3.670  25.221
14893SOL    HW156307   0.357   3.737  25.181
14893SOL    HW256308   0.380   3.660  25.310
14894SOL     OW56309   3.924   2.121   4.939
14894SOL    HW156310   3.985   2.070   4.887
14894SOL    HW256311   3.838   2.088   4.914
14895SOL     OW56312   2.732   4.278  19.521
14895SOL    HW156313   2.741   4.263  19.427
14895SOL    HW256314   2.642   4.253  19.541
14896SOL     OW56315   3.647   2.373   2.787
14896SOL    HW156316   3.625   2.284   2.758
14896SOL    HW256317   3.737   2.367   2.819
14897SOL     OW56318   4.656   1.125   5.766
14897SOL    HW156319   4.705   1.205   5.784
14897SOL    HW256320   4.663   1.114   5.671
14898SOL     OW56321   0.184   3.873  27.824
14898SOL    HW156322   0.105   3.927  27.819
14898SOL    HW256323   0.207   3.857  27.733
14899SOL     OW56324   2.982   0.681  23.195
14899SOL    HW156325   2.920   0.704  23.264
14899SOL    HW256326   2.931   0.628  23.134
14900SOL     OW56327   1.707   1.713   0.544
14900SOL    HW156328   1.649   1.752   0.610
14900SOL    HW256329   1.786   1.768   0.545
14901SOL     OW56330   2.357   2.918  23.474
14901SOL    HW156331   2.390   2.964  23.397
14901SOL    HW256332   2.331   2.988  23.534
14902SOL     OW56333   1.136   2.438  21.372
14902SOL    HW156334   1.143   2.482  21.287
14902SOL    HW256335   1.076   2.365  21.357
14903SOL     OW56336   4.707   2.438   3.549
14903SOL    HW156337   4.777   2.404   3.493
14903SOL    HW256338   4.631   2.385   3.527
14904SOL     OW56339   3.696   2.477  26.096
14904SOL    HW156340   3.657   2.417  26.160
14904SOL    HW256341   3.732   2.420  26.028
14905SOL     OW56342   3.741   4.552  20.355
14905SOL    HW156343   3.708   4.544  20.266
14905SOL    HW256344   3.730   4.645  20.377
14906SOL     OW56345   0.966   0.414   9.545
14906SOL    HW156346   0.881   0.374   9.527
14906SOL    HW256347   1.021   0.389   9.470
14907SOL     OW56348   3.644   0.668   6.860
14907SOL    HW156349   3.722   0.716   6.834
14907SOL    HW256350   3.667   0.576   6.847
14908SOL     OW56351   0.574   2.875   3.318
14908SOL    HW156352   0.583   2.969   3.332
14908SOL    HW256353   0.662   2.840   3.334
14909SOL     OW56354   0.960   1.806  22.125
14909SOL    HW156355   0.907   1.756  22.187
14909SOL    HW256356   1.030   1.843  22.178
14910SOL     OW56357   4.406   4.289   1.441
14910SOL    HW156358   4.393   4.269   1.348
14910SOL    HW256359   4.353   4.367   1.456
14911SOL     OW56360   3.985   4.011  24.885
14911SOL    HW156361   4.064   4.065  24.876
14911SOL    HW256362   3.916   4.073  24.907
14912SOL     OW56363   4.661   2.200   0.020
14912SOL    HW156364   4.607   2.126   0.049
14912SOL    HW256365   4.751   2.168   0.025
14913SOL     OW56366   0.882   3.563  10.321
14913SOL    HW156367   0.830   3.641  10.303
14913SOL    HW256368   0.970   3.596  10.337
14914SOL     OW56369   2.645   1.234  25.375
14914SOL    HW156370   2.731   1.195  25.363
14914SOL    HW256371   2.599   1.217  25.293
14915SOL     OW56372   0.874   4.475   5.769
14915SOL    HW156373   0.851   4.397   5.719
14915SOL    HW256374   0.941   4.518   5.716
14916SOL     OW56375   0.794   1.559  18.899
14916SOL    HW156376   0.810   1.509  18.979
14916SOL    HW256377   0.820   1.500  18.828
14917SOL     OW56378   2.927   4.346  23.919
14917SOL    HW156379   2.964   4.416  23.865
14917SOL    HW256380   2.852   4.314  23.869
14918SOL     OW56381   0.059   3.640  25.801
14918SOL    HW156382   0.028   3.614  25.714
14918SOL    HW256383   4.760   3.654  25.852
14919SOL     OW56384   3.333   0.188  21.155
14919SOL    HW156385   3.288   0.127  21.213
14919SOL    HW256386   3.266   0.251  21.129
14920SOL     OW56387   1.862   2.346   3.560
14920SOL    HW156388   1.945   2.326   3.517
14920SOL    HW256389   1.883   2.416   3.622
14921SOL     OW56390   3.258   0.525   7.150
14921SOL    HW156391   3.227   0.585   7.218
14921SOL    HW256392   3.346   0.499   7.179
14922SOL     OW56393   4.154   0.831   1.818
14922SOL    HW156394   4.118   0.790   1.897
14922SOL    HW256395   4.243   0.797   1.812
14923SOL     OW56396   2.399   3.221  22.847
14923SOL    HW156397   2.306   3.225  22.871
14923SOL    HW256398   2.399   3.212  22.752
14924SOL     OW56399   0.448   4.260  22.544
14924SOL    HW156400   0.491   4.312  22.612
14924SOL    HW256401   0.427   4.324  22.476
14925SOL     OW56402   3.446   2.742   3.218
14925SOL    HW156403   3.401   2.662   3.246
14925SOL    HW256404   3.522   2.711   3.168
14926SOL     OW56405   4.574   1.666  24.017
14926SOL    HW156406   4.649   1.722  24.036
14926SOL    HW256407   4.596   1.624  23.934
14927SOL     OW56408   2.563   2.255   4.426
14927SOL    HW156409   2.618   2.225   4.353
14927SOL    HW256410   2.475   2.226   4.403
14928SOL     OW56411   2.555   1.497  23.068
14928SOL    HW156412   2.580   1.408  23.042
14928SOL    HW256413   2.474   1.514  23.020
14929SOL     OW56414   0.940   1.217   7.771
14929SOL    HW156415   1.025   1.242   7.736
14929SOL    HW256416   0.960   1.155   7.841
14930SOL     OW56417   0.123   0.078  27.258
14930SOL    HW156418   0.034   0.113  27.262
14930SOL    HW256419   0.111   4.764  27.244
14931SOL     OW56420   4.014   3.131   8.916
14931SOL    HW156421   4.057   3.193   8.857
14931SOL    HW256422   4.015   3.048   8.869
14932SOL     OW56423   0.045   0.246  23.651
14932SOL    HW156424   0.042   0.286  23.738
14932SOL    HW256425   4.770   0.303  23.597
14933SOL     OW56426   0.564   3.219  24.140
14933SOL    HW156427   0.635   3.180  24.191
14933SOL    HW256428   0.555   3.308  24.175
14934SOL     OW56429   2.492   2.088  21.672
14934SOL    HW156430   2.545   2.103  21.594
14934SOL    HW256431   2.534   2.140  21.741
14935SOL     OW56432   4.437   1.246  26.175
14935SOL    HW156433   4.369   1.267  26.239
14935SOL    HW256434   4.392   1.196  26.107
14936SOL     OW56435   0.732   0.215  21.054
14936SOL    HW156436   0.680   0.261  20.988
14936SOL    HW256437   0.775   0.285  21.104
14937SOL     OW56438   3.679   2.023  26.794
14937SOL    HW156439   3.635   1.945  26.829
14937SOL    HW256440   3.686   2.007  26.700
14938SOL     OW56441   3.111   1.151  19.399
14938SOL    HW156442   3.037   1.109  19.444
14938SOL    HW256443   3.188   1.108  19.436
14939SOL     OW56444   4.417   4.265   3.991
14939SOL    HW156445   4.479   4.194   4.006
14939SOL    HW256446   4.443   4.302   3.906
14940SOL     OW56447   3.669   0.423  21.635
14940SOL    HW156448   3.755   0.454  21.664
14940SOL    HW256449   3.668   0.330  21.658
14941SOL     OW56450   0.503   2.165  27.944
14941SOL    HW156451   0.443   2.151  27.870
14941SOL    HW256452   0.556   2.086  27.947
14942SOL     OW56453   3.779   3.066  18.441
14942SOL    HW156454   3.725   3.126  18.390
14942SOL    HW256455   3.723   2.990  18.456
14943SOL     OW56456   1.537   2.684  26.173
14943SOL    HW156457   1.453   2.666  26.131
14943SOL    HW256458   1.515   2.695  26.266
14944SOL     OW56459   2.973   0.379   9.830
14944SOL    HW156460   2.962   0.296   9.877
14944SOL    HW256461   2.921   0.368   9.750
14945SOL     OW56462   4.478   0.047  23.261
14945SOL    HW156463   4.518   0.022  23.178
14945SOL    HW256464   4.528   4.779  23.327
14946SOL     OW56465   1.470   4.339  25.121
14946SOL    HW156466   1.428   4.276  25.063
14946SOL    HW256467   1.551   4.297  25.148
14947SOL     OW56468   2.130   1.787  19.896
14947SOL    HW156469   2.194   1.843  19.939
14947SOL    HW256470   2.080   1.749  19.968
14948SOL     OW56471   4.533   3.953   1.016
14948SOL    HW156472   4.481   3.917   1.088
14948SOL    HW256473   4.469   3.968   0.946
14949SOL     OW56474   0.747   3.861  27.341
14949SOL    HW156475   0.835   3.887  27.312
14949SOL    HW256476   0.695   3.941  27.334
14950SOL     OW56477   1.557   3.347  22.364
14950SOL    HW156478   1.530   3.417  22.423
14950SOL    HW256479   1.620   3.295  22.415
14951SOL     OW56480   0.284   1.876  17.101
14951SOL    HW156481   0.289   1.958  17.150
14951SOL    HW256482   0.192   1.850  17.106
14952SOL     OW56483   3.986   2.781  26.120
14952SOL    HW156484   4.066   2.831  26.101
14952SOL    HW256485   4.013   2.714  26.182
14953SOL     OW56486   4.393   1.113   6.637
14953SOL    HW156487   4.351   1.125   6.722
14953SOL    HW256488   4.477   1.158   6.646
14954SOL     OW56489   4.306   3.300   7.756
14954SOL    HW156490   4.274   3.214   7.785
14954SOL    HW256491   4.384   3.280   7.704
14955SOL     OW56492   1.138   3.521  21.242
14955SOL    HW156493   1.098   3.577  21.309
14955SOL    HW256494   1.140   3.434  21.282
14956SOL     OW56495   0.769   3.887   3.078
14956SOL    HW156496   0.741   3.865   3.167
14956SOL    HW256497   0.865   3.887   3.083
14957SOL     OW56498   0.213   0.483  25.638
14957SOL    HW156499   0.182   0.526  25.717
14957SOL    HW256500   0.135   0.443  25.600
14958SOL     OW56501   3.907   2.814   4.750
14958SOL    HW156502   3.921   2.895   4.702
14958SOL    HW256503   3.881   2.843   4.838
14959SOL     OW56504   4.395   4.287  27.188
14959SOL    HW156505   4.328   4.318  27.249
14959SOL    HW256506   4.352   4.291  27.102
14960SOL     OW56507   2.804   4.502  26.120
14960SOL    HW156508   2.749   4.437  26.076
14960SOL    HW256509   2.886   4.502  26.071
14961SOL     OW56510   2.834   0.520   4.853
14961SOL    HW156511   2.908   0.514   4.913
14961SOL    HW256512   2.864   0.475   4.774
14962SOL     OW56513   4.075   3.886   0.377
14962SOL    HW156514   4.046   3.848   0.294
14962SOL    HW256515   4.042   3.826   0.444
14963SOL     OW56516   0.604   0.226   3.831
14963SOL    HW156517   0.613   0.254   3.922
14963SOL    HW256518   0.594   0.308   3.782
14964SOL     OW56519   4.364   1.743  24.619
14964SOL    HW156520   4.376   1.738  24.524
14964SOL    HW256521   4.402   1.661  24.652
14965SOL     OW56522   2.274   1.055   8.351
14965SOL    HW156523   2.286   1.024   8.261
14965SOL    HW256524   2.358   1.037   8.393
14966SOL     OW56525   1.752   2.757   6.475
14966SOL    HW156526   1.792   2.708   6.403
14966SOL    HW256527   1.817   2.753   6.545
14967SOL     OW56528   1.462   3.917   1.356
14967SOL    HW156529   1.457   3.933   1.262
14967SOL    HW256530   1.374   3.889   1.380
14968SOL     OW56531   4.254   2.777  27.531
14968SOL    HW156532   4.299   2.761  27.448
14968SOL    HW256533   4.316   2.827  27.583
14969SOL     OW56534   3.448   3.599   0.792
14969SOL    HW156535   3.433   3.508   0.817
14969SOL    HW256536   3.376   3.647   0.833
14970SOL     OW56537   0.561   1.632   7.103
14970SOL    HW156538   0.604   1.715   7.082
14970SOL    HW256539   0.615   1.565   7.061
14971SOL     OW56540   4.348   2.051   6.771
14971SOL    HW156541   4.271   2.103   6.794
14971SOL    HW256542   4.387   2.026   6.855
14972SOL     OW56543   2.792   0.798  23.399
14972SOL    HW156544   2.764   0.858  23.330
14972SOL    HW256545   2.852   0.849  23.453
14973SOL     OW56546   3.323   4.549   5.230
14973SOL    HW156547   3.388   4.479   5.241
14973SOL    HW256548   3.239   4.504   5.232
14974SOL     OW56549   0.868   4.776  10.078
14974SOL    HW156550   0.855   0.026  10.168
14974SOL    HW256551   0.900   4.686  10.087
14975SOL     OW56552   4.011   1.338  28.064
14975SOL    HW156553   3.930   1.371  28.026
14975SOL    HW256554   4.051   1.285  27.995
14976SOL     OW56555   1.362   1.564   7.360
14976SOL    HW156556   1.456   1.576   7.351
14976SOL    HW256557   1.326   1.653   7.361
14977SOL     OW56558   4.013   4.033   6.515
14977SOL    HW156559   3.955   4.083   6.572
14977SOL    HW256560   4.070   4.099   6.476
14978SOL     OW56561   3.813   0.792  28.161
14978SOL    HW156562   3.844   0.788  28.071
14978SOL    HW256563   3.818   0.885  28.184
14979SOL     OW56564   4.203   3.032   2.034
14979SOL    HW156565   4.282   3.012   1.984
14979SOL    HW256566   4.135   2.978   1.995
14980SOL     OW56567   2.182   4.250   9.598
14980SOL    HW156568   2.102   4.218   9.640
14980SOL    HW256569   2.152   4.318   9.538
14981SOL     OW56570   2.265   4.035  21.966
14981SOL    HW156571   2.324   4.109  21.952
14981SOL    HW256572   2.178   4.074  21.963
14982SOL     OW56573   2.127   2.053   7.941
14982SOL    HW156574   2.170   2.096   8.015
14982SOL    HW256575   2.059   1.999   7.981
14983SOL     OW56576   0.122   0.878   5.659
14983SOL    HW156577   0.167   0.802   5.622
14983SOL    HW256578   0.157   0.886   5.748
14984SOL     OW56579   1.356   0.006   4.723
14984SOL    HW156580   1.400   4.742   4.651
14984SOL    HW256581   1.264   4.760   4.715
14985SOL     OW56582   0.906   0.370  10.396
14985SOL    HW156583   1.000   0.353  10.401
14985SOL    HW256584   0.882   0.398  10.484
14986SOL     OW56585   4.312   1.406   8.622
14986SOL    HW156586   4.256   1.376   8.693
14986SOL    HW256587   4.344   1.492   8.651
14987SOL     OW56588   4.767   4.564  27.273
14987SOL    HW156589   4.763   4.475  27.307
14987SOL    HW256590   4.677   4.584  27.249
14988SOL     OW56591   4.087   3.242  21.153
14988SOL    HW156592   4.175   3.209  21.133
14988SOL    HW256593   4.038   3.165  21.181
14989SOL     OW56594   4.536   0.141  18.150
14989SOL    HW156595   4.558   0.117  18.060
14989SOL    HW256596   4.577   0.073  18.203
14990SOL     OW56597   0.399   2.038   8.604
14990SOL    HW156598   0.379   2.120   8.648
14990SOL    HW256599   0.344   1.973   8.648
14991SOL     OW56600   1.887   0.649   8.041
14991SOL    HW156601   1.968   0.682   8.079
14991SOL    HW256602   1.900   0.657   7.946
14992SOL     OW56603   4.173   4.003   4.173
14992SOL    HW156604   4.086   4.031   4.144
14992SOL    HW256605   4.182   3.914   4.139
14993SOL     OW56606   2.089   1.267  16.474
14993SOL    HW156607   2.152   1.334  16.448
14993SOL    HW256608   2.013   1.284  16.419
14994SOL     OW56609   0.752   1.977  26.747
14994SOL    HW156610   0.834   1.990  26.700
14994SOL    HW256611   0.769   2.010  26.835
14995SOL     OW56612   4.459   4.240  25.489
14995SOL    HW156613   4.431   4.329  25.470
14995SOL    HW256614   4.397   4.209  25.555
14996SOL     OW56615   2.410   4.245  26.734
14996SOL    HW156616   2.382   4.334  26.753
14996SOL    HW256617   2.505   4.247  26.746
14997SOL     OW56618   2.862   2.553  25.821
14997SOL    HW156619   2.780   2.510  25.844
14997SOL    HW256620   2.882   2.520  25.733
14998SOL     OW56621   3.539   2.833   2.556
14998SOL    HW156622   3.583   2.806   2.637
14998SOL    HW256623   3.532   2.752   2.505
14999SOL     OW56624   0.841   1.658   9.320
14999SOL    HW156625   0.879   1.689   9.402
14999SOL    HW256626   0.911   1.669   9.255
15000SOL     OW56627   1.705   0.111   2.605
15000SOL    HW156628   1.630   0.151   2.648
15000SOL    HW256629   1.754   0.184   2.568
15001SOL     OW56630   4.544   3.213   7.644
15001SOL    HW156631   4.623   3.191   7.594
15001SOL    HW256632   4.560   3.302   7.676
15002SOL     OW56633   2.700   3.258  28.478
15002SOL    HW156634   2.711   3.337   0.012
15002SOL    HW256635   2.783   3.211  28.487
15003SOL     OW56636   3.016   0.099   9.482
15003SOL    HW156637   2.931   0.067   9.451
15003SOL    HW256638   3.067   0.020   9.500
15004SOL     OW56639   4.052   3.768  20.558
15004SOL    HW156640   4.038   3.763  20.463
15004SOL    HW256641   3.964   3.765  20.596
15005SOL     OW56642   0.038   4.437   5.870
15005SOL    HW156643   4.760   4.465   5.800
15005SOL    HW256644   0.067   4.518   5.911
15006SOL     OW56645   0.781   1.734  28.437
15006SOL    HW156646   0.829   1.652  28.448
15006SOL    HW256647   0.844   1.794  28.396
15007SOL     OW56648   3.958   2.603  24.668
15007SOL    HW156649   3.897   2.601  24.742
15007SOL    HW256650   4.001   2.518  24.670
15008SOL     OW56651   2.257   2.271   4.290
15008SOL    HW156652   2.197   2.276   4.215
15008SOL    HW256653   2.339   2.309   4.258
15009SOL     OW56654   1.348   2.606  23.648
15009SOL    HW156655   1.273   2.547  23.636
15009SOL    HW256656   1.313   2.693  23.629
15010SOL     OW56657   3.553   4.653   8.842
15010SOL    HW156658   3.627   4.593   8.836
15010SOL    HW256659   3.568   4.702   8.923
15011SOL     OW56660   2.986   0.266   8.952
15011SOL    HW156661   3.075   0.239   8.931
15011SOL    HW256662   2.956   0.201   9.015
15012SOL     OW56663   4.426   0.058  25.430
15012SOL    HW156664   4.412   0.080  25.338
15012SOL    HW256665   4.513   0.018  25.432
15013SOL     OW56666   2.982   3.635  20.940
15013SOL    HW156667   2.974   3.700  20.870
15013SOL    HW256668   3.011   3.685  21.016
15014SOL     OW56669   0.765   0.200  26.982
15014SOL    HW156670   0.736   0.111  27.001
15014SOL    HW256671   0.802   0.195  26.894
15015SOL     OW56672   2.872   0.107   8.026
15015SOL    HW156673   2.930   0.169   7.982
15015SOL    HW256674   2.796   0.159   8.051
15016SOL     OW56675   2.730   0.799  25.157
15016SOL    HW156676   2.796   0.868  25.145
15016SOL    HW256677   2.653   0.845  25.189
15017SOL     OW56678   2.569   2.741  22.908
15017SOL    HW156679   2.604   2.777  22.827
15017SOL    HW256680   2.644   2.699  22.949
15018SOL     OW56681   2.664   4.429  20.955
15018SOL    HW156682   2.573   4.403  20.938
15018SOL    HW256683   2.700   4.446  20.868
15019SOL     OW56684   1.397   1.427   2.251
15019SOL    HW156685   1.390   1.362   2.181
15019SOL    HW256686   1.469   1.396   2.306
15020SOL     OW56687   4.085   4.151  21.020
15020SOL    HW156688   4.169   4.163  21.064
15020SOL    HW256689   4.074   4.229  20.966
15021SOL     OW56690   1.592   3.720   2.547
15021SOL    HW156691   1.684   3.725   2.574
15021SOL    HW256692   1.596   3.702   2.453
15022SOL     OW56693   2.103   2.105   2.462
15022SOL    HW156694   2.074   2.062   2.542
15022SOL    HW256695   2.189   2.068   2.444
15023SOL     OW56696   2.289   1.534  21.470
15023SOL    HW156697   2.256   1.450  21.438
15023SOL    HW256698   2.223   1.597  21.441
15024SOL     OW56699   4.475   1.327   2.985
15024SOL    HW156700   4.380   1.338   2.987
15024SOL    HW256701   4.489   1.238   3.018
15025SOL     OW56702   4.667   3.331   5.976
15025SOL    HW156703   4.698   3.413   5.938
15025SOL    HW256704   4.653   3.351   6.069
15026SOL     OW56705   2.480   1.790  10.665
15026SOL    HW156706   2.413   1.752  10.607
15026SOL    HW256707   2.561   1.747  10.639
15027SOL     OW56708   2.122   1.749   3.607
15027SOL    HW156709   2.076   1.668   3.631
15027SOL    HW256710   2.171   1.772   3.686
15028SOL     OW56711   2.897   3.784  26.634
15028SOL    HW156712   2.953   3.783  26.712
15028SOL    HW256713   2.901   3.694  26.601
15029SOL     OW56714   0.335   3.080  10.638
15029SOL    HW156715   0.266   3.052  10.578
15029SOL    HW256716   0.291   3.140  10.699
15030SOL     OW56717   0.866   3.956  26.128
15030SOL    HW156718   0.930   3.978  26.060
15030SOL    HW256719   0.781   3.974  26.088
15031SOL     OW56720   3.541   1.627  21.997
15031SOL    HW156721   3.452   1.593  21.998
15031SOL    HW256722   3.531   1.720  21.979
15032SOL     OW56723   4.759   3.697  21.596
15032SOL    HW156724   0.050   3.668  21.653
15032SOL    HW256725   4.779   3.789  21.578
15033SOL     OW56726   1.462   0.173   1.225
15033SOL    HW156727   1.401   0.179   1.299
15033SOL    HW256728   1.408   0.192   1.148
15034SOL     OW56729   1.939   0.866  13.376
15034SOL    HW156730   1.931   0.782  13.422
15034SOL    HW256731   1.864   0.918  13.406
15035SOL     OW56732   1.132   2.530  17.399
15035SOL    HW156733   1.075   2.604  17.421
15035SOL    HW256734   1.218   2.554  17.434
15036SOL     OW56735   1.291   3.232   6.661
15036SOL    HW156736   1.237   3.209   6.737
15036SOL    HW256737   1.372   3.183   6.673
15037SOL     OW56738   1.830   2.420   8.384
15037SOL    HW156739   1.823   2.462   8.470
15037SOL    HW256740   1.882   2.341   8.400
15038SOL     OW56741   0.780   4.098   5.195
15038SOL    HW156742   0.835   4.051   5.132
15038SOL    HW256743   0.721   4.031   5.230
15039SOL     OW56744   0.066   1.273  22.943
15039SOL    HW156745   0.161   1.286  22.940
15039SOL    HW256746   0.034   1.311  22.861
15040SOL     OW56747   2.118   2.013   0.025
15040SOL    HW156748   2.173   2.089   0.004
15040SOL    HW256749   2.045   2.050   0.074
15041SOL     OW56750   4.119   1.588   0.617
15041SOL    HW156751   4.171   1.611   0.694
15041SOL    HW256752   4.161   1.509   0.582
15042SOL     OW56753   3.328   1.673   6.236
15042SOL    HW156754   3.295   1.667   6.326
15042SOL    HW256755   3.386   1.597   6.227
15043SOL     OW56756   4.527   1.096   6.201
15043SOL    HW156757   4.504   1.166   6.140
15043SOL    HW256758   4.605   1.056   6.163
15044SOL     OW56759   1.313   3.891  20.149
15044SOL    HW156760   1.359   3.971  20.174
15044SOL    HW256761   1.375   3.844  20.094
15045SOL     OW56762   1.255   4.133  25.668
15045SOL    HW156763   1.189   4.067  25.686
15045SOL    HW256764   1.337   4.084  25.663
15046SOL     OW56765   3.504   1.232  25.844
15046SOL    HW156766   3.580   1.224  25.902
15046SOL    HW256767   3.432   1.191  25.893
15047SOL     OW56768   0.126   1.987  20.790
15047SOL    HW156769   0.180   1.974  20.712
15047SOL    HW256770   0.074   2.065  20.771
15048SOL     OW56771   1.624   0.259   8.484
15048SOL    HW156772   1.685   0.219   8.422
15048SOL    HW256773   1.606   0.189   8.547
15049SOL     OW56774   4.505   3.750   8.214
15049SOL    HW156775   4.433   3.761   8.276
15049SOL    HW256776   4.565   3.690   8.258
15050SOL     OW56777   0.896   1.754   1.866
15050SOL    HW156778   0.818   1.709   1.834
15050SOL    HW256779   0.862   1.829   1.915
15051SOL     OW56780   4.217   2.866  28.458
15051SOL    HW156781   4.275   2.831   0.007
15051SOL    HW256782   4.165   2.791  28.430
15052SOL     OW56783   3.639   1.172  26.374
15052SOL    HW156784   3.638   1.079  26.396
15052SOL    HW256785   3.557   1.186  26.326
15053SOL     OW56786   3.593   4.275  27.258
15053SOL    HW156787   3.580   4.342  27.325
15053SOL    HW256788   3.512   4.224  27.259
15054SOL     OW56789   3.660   4.038   2.922
15054SOL    HW156790   3.724   4.036   2.993
15054SOL    HW256791   3.690   3.971   2.860
15055SOL     OW56792   2.654   1.254  21.691
15055SOL    HW156793   2.604   1.301  21.624
15055SOL    HW256794   2.663   1.165  21.656
15056SOL     OW56795   0.447   2.142  24.969
15056SOL    HW156796   0.366   2.115  25.012
15056SOL    HW256797   0.464   2.230  25.003
15057SOL     OW56798   1.247   3.615  10.905
15057SOL    HW156799   1.285   3.703  10.903
15057SOL    HW256800   1.155   3.629  10.926
15058SOL     OW56801   0.367   3.771   0.894
15058SOL    HW156802   0.317   3.848   0.921
15058SOL    HW256803   0.446   3.773   0.949
15059SOL     OW56804   0.749   2.580   8.179
15059SOL    HW156805   0.776   2.666   8.148
15059SOL    HW256806   0.830   2.529   8.181
15060SOL     OW56807   2.755   0.647   1.548
15060SOL    HW156808   2.685   0.711   1.537
15060SOL    HW256809   2.808   0.682   1.620
15061SOL     OW56810   4.453   4.170   8.216
15061SOL    HW156811   4.461   4.109   8.143
15061SOL    HW256812   4.511   4.242   8.193
15062SOL     OW56813   4.523   0.724  20.264
15062SOL    HW156814   4.453   0.766  20.214
15062SOL    HW256815   4.542   0.644  20.215
15063SOL     OW56816   0.806   2.671  19.610
15063SOL    HW156817   0.737   2.608  19.590
15063SOL    HW256818   0.869   2.622  19.664
15064SOL     OW56819   0.772   3.725  10.799
15064SOL    HW156820   0.722   3.791  10.751
15064SOL    HW256821   0.717   3.704  10.875
15065SOL     OW56822   3.414   4.648  22.374
15065SOL    HW156823   3.474   4.648  22.300
15065SOL    HW256824   3.448   4.581  22.433
15066SOL     OW56825   0.267   1.971   5.281
15066SOL    HW156826   0.188   1.918   5.268
15066SOL    HW256827   0.248   2.054   5.237
15067SOL     OW56828   2.942   4.626   4.061
15067SOL    HW156829   2.950   4.532   4.080
15067SOL    HW256830   3.021   4.647   4.011
15068SOL     OW56831   0.746   4.640   8.021
15068SOL    HW156832   0.672   4.653   8.080
15068SOL    HW256833   0.755   4.545   8.014
15069SOL     OW56834   0.130   0.103  16.289
15069SOL    HW156835   0.084   0.167  16.344
15069SOL    HW256836   0.205   0.151  16.254
15070SOL     OW56837   3.316   1.038  26.793
15070SOL    HW156838   3.398   1.070  26.756
15070SOL    HW256839   3.291   0.966  26.736
15071SOL     OW56840   2.432   1.857  23.583
15071SOL    HW156841   2.369   1.928  23.575
15071SOL    HW256842   2.395   1.786  23.531
15072SOL     OW56843   0.195   1.497  19.276
15072SOL    HW156844   0.238   1.439  19.213
15072SOL    HW256845   0.177   1.442  19.352
15073SOL     OW56846   1.309   4.222   1.922
15073SOL    HW156847   1.320   4.258   2.010
15073SOL    HW256848   1.397   4.194   1.896
15074SOL     OW56849   3.746   1.464   1.263
15074SOL    HW156850   3.739   1.558   1.282
15074SOL    HW256851   3.656   1.432   1.266
15075SOL     OW56852   0.755   2.436   1.874
15075SOL    HW156853   0.819   2.383   1.825
15075SOL    HW256854   0.689   2.460   1.809
15076SOL     OW56855   2.078   0.274  14.040
15076SOL    HW156856   2.103   0.316  14.122
15076SOL    HW256857   2.149   0.296  13.979
15077SOL     OW56858   2.382   0.238  23.343
15077SOL    HW156859   2.361   0.282  23.261
15077SOL    HW256860   2.377   0.307  23.409
15078SOL     OW56861   4.207   0.418  22.082
15078SOL    HW156862   4.214   0.442  21.990
15078SOL    HW256863   4.132   0.468  22.114
15079SOL     OW56864   3.343   1.458   3.311
15079SOL    HW156865   3.259   1.421   3.336
15079SOL    HW256866   3.384   1.483   3.394
15080SOL     OW56867   1.187   4.079   6.582
15080SOL    HW156868   1.158   4.093   6.672
15080SOL    HW256869   1.106   4.070   6.532
15081SOL     OW56870   1.789   2.776  25.760
15081SOL    HW156871   1.781   2.683  25.781
15081SOL    HW256872   1.700   2.803  25.737
15082SOL     OW56873   3.064   0.127  28.021
15082SOL    HW156874   3.152   0.156  27.996
15082SOL    HW256875   3.011   0.207  28.019
15083SOL     OW56876   1.398   3.496  21.567
15083SOL    HW156877   1.378   3.554  21.494
15083SOL    HW256878   1.321   3.500  21.623
15084SOL     OW56879   0.637   0.981   0.967
15084SOL    HW156880   0.674   1.063   0.999
15084SOL    HW256881   0.543   0.991   0.978
15085SOL     OW56882   0.965   2.839  27.564
15085SOL    HW156883   0.894   2.797  27.613
15085SOL    HW256884   0.924   2.869  27.483
15086SOL     OW56885   0.944   1.852  25.940
15086SOL    HW156886   1.016   1.853  25.877
15086SOL    HW256887   0.922   1.944  25.952
15087SOL     OW56888   3.315   2.826  19.216
15087SOL    HW156889   3.276   2.739  19.226
15087SOL    HW256890   3.246   2.887  19.244
15088SOL     OW56891   3.862   0.455   6.953
15088SOL    HW156892   3.881   0.518   6.883
15088SOL    HW256893   3.940   0.457   7.008
15089SOL     OW56894   3.719   0.542  18.704
15089SOL    HW156895   3.793   0.507  18.654
15089SOL    HW256896   3.750   0.546  18.794
15090SOL     OW56897   2.076   1.763   2.051
15090SOL    HW156898   2.139   1.826   2.086
15090SOL    HW256899   2.056   1.706   2.125
15091SOL     OW56900   2.437   2.557  26.679
15091SOL    HW156901   2.357   2.580  26.726
15091SOL    HW256902   2.449   2.464  26.696
15092SOL     OW56903   3.064   2.307  22.395
15092SOL    HW156904   3.107   2.289  22.478
15092SOL    HW256905   3.066   2.402  22.387
15093SOL     OW56906   1.965   4.135  17.786
15093SOL    HW156907   2.022   4.128  17.709
15093SOL    HW256908   1.985   4.222  17.822
15094SOL     OW56909   3.357   3.921  24.284
15094SOL    HW156910   3.324   4.005  24.316
15094SOL    HW256911   3.381   3.873  24.363
15095SOL     OW56912   4.538   1.869   4.848
15095SOL    HW156913   4.523   1.836   4.760
15095SOL    HW256914   4.578   1.796   4.895
15096SOL     OW56915   1.945   4.637   5.341
15096SOL    HW156916   1.856   4.603   5.349
15096SOL    HW256917   1.991   4.605   5.419
15097SOL     OW56918   1.969   2.718   2.341
15097SOL    HW156919   1.993   2.804   2.306
15097SOL    HW256920   1.881   2.703   2.307
15098SOL     OW56921   2.741   0.450   1.332
15098SOL    HW156922   2.751   0.522   1.395
15098SOL    HW256923   2.747   0.371   1.385
15099SOL     OW56924   3.372   3.484  21.781
15099SOL    HW156925   3.347   3.449  21.867
15099SOL    HW256926   3.455   3.529  21.797
15100SOL     OW56927   1.495   3.024  27.906
15100SOL    HW156928   1.458   3.062  27.826
15100SOL    HW256929   1.458   3.077  27.977
15101SOL     OW56930   3.047   2.984   1.509
15101SOL    HW156931   3.092   3.052   1.458
15101SOL    HW256932   3.118   2.929   1.543
15102SOL     OW56933   3.641   3.861  20.335
15102SOL    HW156934   3.583   3.801  20.288
15102SOL    HW256935   3.712   3.879  20.273
15103SOL     OW56936   2.519   1.018  20.406
15103SOL    HW156937   2.434   1.041  20.370
15103SOL    HW256938   2.556   0.955  20.343
15104SOL     OW56939   3.154   4.217   6.388
15104SOL    HW156940   3.236   4.185   6.350
15104SOL    HW256941   3.170   4.310   6.406
15105SOL     OW56942   0.935   1.485   9.010
15105SOL    HW156943   0.840   1.496   9.013
15105SOL    HW256944   0.970   1.567   9.045
15106SOL     OW56945   4.747   0.280  10.348
15106SOL    HW156946   4.683   0.269  10.278
15106SOL    HW256947   4.757   0.375  10.357
15107SOL     OW56948   3.984   0.391  23.695
15107SOL    HW156949   3.890   0.404  23.687
15107SOL    HW256950   4.023   0.463  23.646
15108SOL     OW56951   0.891   0.568  22.435
15108SOL    HW156952   0.955   0.631  22.468
15108SOL    HW256953   0.939   0.485  22.433
15109SOL     OW56954   2.122   2.278   0.608
15109SOL    HW156955   2.127   2.341   0.536
15109SOL    HW256956   2.028   2.261   0.619
15110SOL     OW56957   4.108   2.346   0.157
15110SOL    HW156958   4.172   2.332   0.087
15110SOL    HW256959   4.161   2.349   0.237
15111SOL     OW56960   1.458   3.098   7.047
15111SOL    HW156961   1.506   3.066   7.123
15111SOL    HW256962   1.366   3.090   7.071
15112SOL     OW56963   2.743   1.749  23.662
15112SOL    HW156964   2.759   1.683  23.595
15112SOL    HW256965   2.830   1.780  23.687
15113SOL     OW56966   1.223   1.889   0.760
15113SOL    HW156967   1.304   1.861   0.717
15113SOL    HW256968   1.184   1.808   0.792
15114SOL     OW56969   0.508   2.370  22.535
15114SOL    HW156970   0.540   2.285  22.503
15114SOL    HW256971   0.435   2.348  22.592
15115SOL     OW56972   3.358   1.955  22.197
15115SOL    HW156973   3.270   1.980  22.224
15115SOL    HW256974   3.412   2.030  22.220
15116SOL     OW56975   3.564   2.959  20.097
15116SOL    HW156976   3.574   2.865  20.109
15116SOL    HW256977   3.484   2.969  20.045
15117SOL     OW56978   4.449   2.363   4.551
15117SOL    HW156979   4.388   2.404   4.612
15117SOL    HW256980   4.473   2.281   4.593
15118SOL     OW56981   2.364   1.379  26.536
15118SOL    HW156982   2.306   1.413  26.604
15118SOL    HW256983   2.327   1.294  26.512
15119SOL     OW56984   3.411   2.819  21.186
15119SOL    HW156985   3.324   2.785  21.165
15119SOL    HW256986   3.419   2.899  21.134
15120SOL     OW56987   3.328   2.437  23.613
15120SOL    HW156988   3.367   2.426  23.700
15120SOL    HW256989   3.385   2.387  23.554
15121SOL     OW56990   1.144   3.635   6.917
15121SOL    HW156991   1.083   3.692   6.964
15121SOL    HW256992   1.089   3.586   6.856
15122SOL     OW56993   2.552   2.455  24.787
15122SOL    HW156994   2.498   2.521  24.743
15122SOL    HW256995   2.508   2.372  24.768
15123SOL     OW56996   1.821   0.534   1.559
15123SOL    HW156997   1.810   0.593   1.485
15123SOL    HW256998   1.749   0.471   1.550
15124SOL     OW56999   3.760   3.594  26.530
15124SOL    HW157000   3.740   3.501  26.520
15124SOL    HW257001   3.834   3.597  26.590
15125SOL     OW57002   3.480   4.708  27.652
15125SOL    HW157003   3.456   4.740  27.739
15125SOL    HW257004   3.424   4.758  27.592
15126SOL     OW57005   0.935   1.156  22.710
15126SOL    HW157006   0.958   1.190  22.796
15126SOL    HW257007   0.889   1.074  22.728
15127SOL     OW57008   3.512   2.903  25.101
15127SOL    HW157009   3.559   2.889  25.018
15127SOL    HW257010   3.546   2.835  25.159
15128SOL     OW57011   2.671   3.863  10.781
15128SOL    HW157012   2.724   3.938  10.755
15128SOL    HW257013   2.588   3.901  10.809
15129SOL     OW57014   2.165   1.689   7.043
15129SOL    HW157015   2.174   1.621   7.110
15129SOL    HW257016   2.187   1.770   7.089
15130SOL     OW57017   2.708   3.743   7.808
15130SOL    HW157018   2.697   3.658   7.852
15130SOL    HW257019   2.670   3.806   7.869
15131SOL     OW57020   1.127   0.171   1.470
15131SOL    HW157021   1.079   0.101   1.514
15131SOL    HW257022   1.197   0.194   1.531
15132SOL     OW57023   1.247   1.826  24.685
15132SOL    HW157024   1.321   1.887  24.680
15132SOL    HW257025   1.241   1.802  24.777
15133SOL     OW57026   0.406   0.054  26.851
15133SOL    HW157027   0.348   0.117  26.810
15133SOL    HW257028   0.419   4.767  26.785
15134SOL     OW57029   2.775   4.455  16.959
15134SOL    HW157030   2.751   4.495  17.043
15134SOL    HW257031   2.865   4.484  16.943
15135SOL     OW57032   4.270   2.064   3.507
15135SOL    HW157033   4.235   2.103   3.427
15135SOL    HW257034   4.201   2.076   3.572
15136SOL     OW57035   2.749   2.540  22.411
15136SOL    HW157036   2.738   2.449  22.437
15136SOL    HW257037   2.823   2.539  22.350
15137SOL     OW57038   4.181   2.781  24.421
15137SOL    HW157039   4.167   2.783  24.326
15137SOL    HW257040   4.100   2.745  24.456
15138SOL     OW57041   3.806   2.183  10.295
15138SOL    HW157042   3.768   2.249  10.238
15138SOL    HW257043   3.786   2.213  10.384
15139SOL     OW57044   4.452   1.083   7.566
15139SOL    HW157045   4.456   0.989   7.580
15139SOL    HW257046   4.525   1.119   7.616
15140SOL     OW57047   1.359   2.516  27.903
15140SOL    HW157048   1.361   2.589  27.965
15140SOL    HW257049   1.383   2.439  27.955
15141SOL     OW57050   3.768   0.352  19.657
15141SOL    HW157051   3.800   0.305  19.734
15141SOL    HW257052   3.673   0.349  19.665
15142SOL     OW57053   4.406   4.757  20.004
15142SOL    HW157054   4.470   0.016  20.064
15142SOL    HW257055   4.323   0.018  20.026
15143SOL     OW57056   0.396   2.580   8.018
15143SOL    HW157057   0.446   2.532   7.952
15143SOL    HW257058   0.335   2.634   7.968
15144SOL     OW57059   0.330   2.441  27.262
15144SOL    HW157060   0.408   2.492  27.282
15144SOL    HW257061   0.341   2.414  27.171
15145SOL     OW57062   0.823   3.486  18.391
15145SOL    HW157063   0.786   3.512  18.475
15145SOL    HW257064   0.906   3.534  18.385
15146SOL     OW57065   3.828   1.150   7.215
15146SOL    HW157066   3.857   1.225   7.163
15146SOL    HW257067   3.869   1.164   7.301
15147SOL     OW57068   0.278   0.894  27.492
15147SOL    HW157069   0.339   0.847  27.548
15147SOL    HW257070   0.250   0.830  27.427
15148SOL     OW57071   4.013   2.450  26.074
15148SOL    HW157072   3.992   2.514  26.006
15148SOL    HW257073   3.975   2.487  26.154
15149SOL     OW57074   4.051   2.806   1.918
15149SOL    HW157075   4.079   2.754   1.994
15149SOL    HW257076   4.007   2.743   1.861
15150SOL     OW57077   0.333   3.271   9.054
15150SOL    HW157078   0.322   3.176   9.058
15150SOL    HW257079   0.332   3.299   9.145
15151SOL     OW57080   0.197   3.048   8.593
15151SOL    HW157081   0.246   3.065   8.513
15151SOL    HW257082   0.194   2.953   8.600
15152SOL     OW57083   1.616   0.725  26.656
15152SOL    HW157084   1.594   0.665  26.727
15152SOL    HW257085   1.620   0.669  26.578
15153SOL     OW57086   2.809   1.304   8.462
15153SOL    HW157087   2.750   1.299   8.387
15153SOL    HW257088   2.796   1.221   8.508
15154SOL     OW57089   2.450   1.936  27.352
15154SOL    HW157090   2.412   2.018  27.321
15154SOL    HW257091   2.377   1.890  27.393
15155SOL     OW57092   0.725   3.263  28.269
15155SOL    HW157093   0.776   3.189  28.303
15155SOL    HW257094   0.703   3.237  28.179
15156SOL     OW57095   3.919   0.677  27.578
15156SOL    HW157096   3.940   0.720  27.495
15156SOL    HW257097   3.926   0.746  27.644
15157SOL     OW57098   2.913   4.149   0.669
15157SOL    HW157099   2.963   4.223   0.635
15157SOL    HW257100   2.846   4.188   0.724
15158SOL     OW57101   2.228   0.993   6.948
15158SOL    HW157102   2.296   0.978   6.882
15158SOL    HW257103   2.244   1.082   6.980
15159SOL     OW57104   3.695   0.422   5.722
15159SOL    HW157105   3.610   0.385   5.697
15159SOL    HW257106   3.680   0.516   5.726
15160SOL     OW57107   3.529   1.088   8.605
15160SOL    HW157108   3.601   1.078   8.543
15160SOL    HW257109   3.474   1.011   8.590
15161SOL     OW57110   2.561   3.281   3.976
15161SOL    HW157111   2.557   3.348   3.908
15161SOL    HW257112   2.548   3.329   4.058
15162SOL     OW57113   4.296   2.761   8.317
15162SOL    HW157114   4.335   2.674   8.307
15162SOL    HW257115   4.369   2.822   8.309
15163SOL     OW57116   4.326   0.276  28.061
15163SOL    HW157117   4.298   0.271  27.970
15163SOL    HW257118   4.258   0.328  28.105
15164SOL     OW57119   4.692   2.973  17.394
15164SOL    HW157120   4.604   2.947  17.367
15164SOL    HW257121   4.750   2.922  17.338
15165SOL     OW57122   4.559   4.223   8.761
15165SOL    HW157123   4.492   4.291   8.753
15165SOL    HW257124   4.631   4.255   8.707
15166SOL     OW57125   0.111   4.559   3.767
15166SOL    HW157126   0.108   4.515   3.682
15166SOL    HW257127   0.046   4.629   3.761
15167SOL     OW57128   2.339   0.995   5.301
15167SOL    HW157129   2.344   0.994   5.397
15167SOL    HW257130   2.426   0.966   5.273
15168SOL     OW57131   2.261   0.708   6.991
15168SOL    HW157132   2.268   0.800   6.966
15168SOL    HW257133   2.237   0.710   7.084
15169SOL     OW57134   0.359   1.552  26.326
15169SOL    HW157135   0.340   1.486  26.393
15169SOL    HW257136   0.410   1.505  26.260
15170SOL     OW57137   0.617   0.913   8.832
15170SOL    HW157138   0.654   0.909   8.744
15170SOL    HW257139   0.611   0.821   8.859
15171SOL     OW57140   0.204   1.562  25.635
15171SOL    HW157141   0.214   1.657  25.646
15171SOL    HW257142   0.111   1.546  25.650
15172SOL     OW57143   2.834   3.776   0.243
15172SOL    HW157144   2.745   3.740   0.245
15172SOL    HW257145   2.823   3.870   0.258
15173SOL     OW57146   0.351   1.371  22.244
15173SOL    HW157147   0.411   1.365  22.318
15173SOL    HW257148   0.270   1.406  22.281
15174SOL     OW57149   3.083   1.200   0.609
15174SOL    HW157150   3.082   1.254   0.530
15174SOL    HW257151   3.045   1.117   0.582
15175SOL     OW57152   0.885   4.157   7.419
15175SOL    HW157153   0.912   4.212   7.493
15175SOL    HW257154   0.967   4.123   7.383
15176SOL     OW57155   2.040   3.859   4.423
15176SOL    HW157156   2.118   3.827   4.378
15176SOL    HW257157   1.977   3.874   4.353
15177SOL     OW57158   2.741   3.897   9.941
15177SOL    HW157159   2.715   3.989   9.936
15177SOL    HW257160   2.788   3.890  10.024
15178SOL     OW57161   1.328   4.364  20.569
15178SOL    HW157162   1.369   4.446  20.597
15178SOL    HW257163   1.252   4.392  20.517
15179SOL     OW57164   3.834   4.183  27.155
15179SOL    HW157165   3.857   4.104  27.204
15179SOL    HW257166   3.744   4.202  27.181
15180SOL     OW57167   1.462   4.656  17.939
15180SOL    HW157168   1.392   4.706  17.896
15180SOL    HW257169   1.443   4.664  18.033
15181SOL     OW57170   3.252   1.197   1.745
15181SOL    HW157171   3.297   1.262   1.692
15181SOL    HW257172   3.197   1.248   1.804
15182SOL     OW57173   1.168   1.040   2.897
15182SOL    HW157174   1.263   1.048   2.899
15182SOL    HW257175   1.140   1.106   2.834
15183SOL     OW57176   0.341   1.042   7.168
15183SOL    HW157177   0.348   1.122   7.219
15183SOL    HW257178   0.377   1.065   7.082
15184SOL     OW57179   2.029   4.628   1.396
15184SOL    HW157180   1.955   4.567   1.402
15184SOL    HW257181   1.999   4.706   1.442
15185SOL     OW57182   2.115   0.691   5.362
15185SOL    HW157183   2.022   0.700   5.382
15185SOL    HW257184   2.117   0.669   5.269
15186SOL     OW57185   4.132   1.299   7.816
15186SOL    HW157186   4.136   1.203   7.819
15186SOL    HW257187   4.038   1.318   7.810
15187SOL     OW57188   0.707   0.552   1.550
15187SOL    HW157189   0.784   0.582   1.501
15187SOL    HW257190   0.727   0.572   1.641
15188SOL     OW57191   1.264   0.929   8.984
15188SOL    HW157192   1.305   1.001   9.032
15188SOL    HW257193   1.215   0.881   9.051
15189SOL     OW57194   0.949   4.329  19.712
15189SOL    HW157195   0.895   4.373  19.778
15189SOL    HW257196   0.900   4.250  19.689
15190SOL     OW57197   1.955   0.411  28.197
15190SOL    HW157198   1.990   0.387  28.111
15190SOL    HW257199   2.031   0.409  28.256
15191SOL     OW57200   3.948   0.583   4.010
15191SOL    HW157201   4.012   0.649   3.984
15191SOL    HW257202   4.000   0.515   4.053
15192SOL     OW57203   4.038   4.669  25.338
15192SOL    HW157204   4.079   4.752  25.313
15192SOL    HW257205   4.029   4.621  25.256
15193SOL     OW57206   4.171   2.573   4.546
15193SOL    HW157207   4.157   2.667   4.536
15193SOL    HW257208   4.198   2.562   4.637
15194SOL     OW57209   1.150   3.500  22.531
15194SOL    HW157210   1.113   3.556  22.463
15194SOL    HW257211   1.233   3.470  22.494
15195SOL     OW57212   0.844   3.911   9.229
15195SOL    HW157213   0.827   3.964   9.151
15195SOL    HW257214   0.810   3.824   9.207
15196SOL     OW57215   3.576   1.439  25.655
15196SOL    HW157216   3.524   1.513  25.687
15196SOL    HW257217   3.544   1.364  25.706
15197SOL     OW57218   4.271   4.388   3.724
15197SOL    HW157219   4.364   4.395   3.743
15197SOL    HW257220   4.227   4.417   3.804
15198SOL     OW57221   2.145   0.743   8.074
15198SOL    HW157222   2.157   0.761   7.981
15198SOL    HW257223   2.188   0.816   8.119
15199SOL     OW57224   3.994   4.168  23.274
15199SOL    HW157225   4.019   4.089  23.322
15199SOL    HW257226   3.961   4.136  23.190
15200SOL     OW57227   1.343   4.582   8.121
15200SOL    HW157228   1.261   4.613   8.082
15200SOL    HW257229   1.320   4.498   8.162
15201SOL     OW57230   1.633   0.645  26.096
15201SOL    HW157231   1.687   0.588  26.042
15201SOL    HW257232   1.551   0.653  26.048
15202SOL     OW57233   3.965   0.487   0.062
15202SOL    HW157234   3.990   0.579   0.074
15202SOL    HW257235   3.877   0.491   0.024
15203SOL     OW57236   0.744   3.618  24.470
15203SOL    HW157237   0.652   3.630  24.448
15203SOL    HW257238   0.765   3.690  24.529
15204SOL     OW57239   3.645   3.382   6.213
15204SOL    HW157240   3.629   3.296   6.252
15204SOL    HW257241   3.700   3.427   6.277
15205SOL     OW57242   4.148   0.872  28.094
15205SOL    HW157243   4.233   0.859  28.137
15205SOL    HW257244   4.084   0.863  28.165
15206SOL     OW57245   1.740   1.706   5.050
15206SOL    HW157246   1.741   1.701   4.954
15206SOL    HW257247   1.648   1.693   5.074
15207SOL     OW57248   0.034   2.234   4.408
15207SOL    HW157249   0.100   2.301   4.425
15207SOL    HW257250   0.002   2.210   4.495
15208SOL     OW57251   3.541   3.053  21.075
15208SOL    HW157252   3.601   3.013  21.137
15208SOL    HW257253   3.569   3.145  21.071
15209SOL     OW57254   3.754   2.092   0.080
15209SOL    HW157255   3.793   2.124  28.518
15209SOL    HW257256   3.690   2.027   0.052
15210SOL     OW57257   1.573   2.791   8.614
15210SOL    HW157258   1.653   2.742   8.635
15210SOL    HW257259   1.589   2.827   8.527
15211SOL     OW57260   1.659   0.512  22.903
15211SOL    HW157261   1.648   0.433  22.956
15211SOL    HW257262   1.752   0.513  22.880
15212SOL     OW57263   1.738   3.072  27.578
15212SOL    HW157264   1.715   2.982  27.600
15212SOL    HW257265   1.832   3.078  27.596
15213SOL     OW57266   1.627   4.111   6.223
15213SOL    HW157267   1.612   4.139   6.313
15213SOL    HW257268   1.625   4.192   6.172
15214SOL     OW57269   0.910   2.064  17.718
15214SOL    HW157270   0.977   2.004  17.685
15214SOL    HW257271   0.827   2.021  17.697
15215SOL     OW57272   0.210   0.946  18.070
15215SOL    HW157273   0.155   0.868  18.064
15215SOL    HW257274   0.161   1.014  18.024
15216SOL     OW57275   1.759   0.519   8.517
15216SOL    HW157276   1.678   0.566   8.539
15216SOL    HW257277   1.730   0.436   8.480
15217SOL     OW57278   0.106   2.411   1.461
15217SOL    HW157279   0.019   2.443   1.485
15217SOL    HW257280   0.091   2.323   1.427
15218SOL     OW57281   4.606   1.919  21.929
15218SOL    HW157282   4.615   1.907  22.023
15218SOL    HW257283   4.689   1.888  21.892
15219SOL     OW57284   3.794   0.193  26.768
15219SOL    HW157285   3.853   0.183  26.694
15219SOL    HW257286   3.758   0.105  26.782
15220SOL     OW57287   3.030   0.279   7.872
15220SOL    HW157288   3.110   0.260   7.921
15220SOL    HW257289   3.019   0.374   7.880
15221SOL     OW57290   0.918   0.494   2.436
15221SOL    HW157291   0.829   0.461   2.426
15221SOL    HW257292   0.911   0.588   2.418
15222SOL     OW57293   2.703   2.590   3.646
15222SOL    HW157294   2.675   2.681   3.638
15222SOL    HW257295   2.646   2.541   3.587
15223SOL     OW57296   1.268   3.262  23.190
15223SOL    HW157297   1.224   3.180  23.212
15223SOL    HW257298   1.262   3.314  23.270
15224SOL     OW57299   3.260   4.288  27.889
15224SOL    HW157300   3.238   4.367  27.939
15224SOL    HW257301   3.177   4.262  27.849
15225SOL     OW57302   0.526   4.228  21.756
15225SOL    HW157303   0.508   4.310  21.710
15225SOL    HW257304   0.478   4.236  21.838
15226SOL     OW57305   1.999   2.250  22.038
15226SOL    HW157306   2.065   2.261  21.969
15226SOL    HW257307   2.010   2.327  22.094
15227SOL     OW57308   0.460   1.072  17.392
15227SOL    HW157309   0.551   1.052  17.413
15227SOL    HW257310   0.463   1.102  17.301
15228SOL     OW57311   1.574   3.979   1.609
15228SOL    HW157312   1.506   3.958   1.672
15228SOL    HW257313   1.531   3.972   1.524
15229SOL     OW57314   3.152   2.790  27.268
15229SOL    HW157315   3.142   2.700  27.236
15229SOL    HW257316   3.147   2.782  27.363
15230SOL     OW57317   0.013   1.202  27.798
15230SOL    HW157318   0.086   1.152  27.761
15230SOL    HW257319   4.777   1.161  27.883
15231SOL     OW57320   1.932   1.977   0.870
15231SOL    HW157321   1.980   1.911   0.920
15231SOL    HW257322   1.936   1.947   0.779
15232SOL     OW57323   3.552   1.624   3.218
15232SOL    HW157324   3.482   1.561   3.201
15232SOL    HW257325   3.613   1.578   3.275
15233SOL     OW57326   2.215   3.405   2.836
15233SOL    HW157327   2.172   3.417   2.751
15233SOL    HW257328   2.163   3.338   2.880
15234SOL     OW57329   0.566   1.737   5.715
15234SOL    HW157330   0.512   1.676   5.766
15234SOL    HW257331   0.620   1.781   5.780
15235SOL     OW57332   1.726   0.973   3.179
15235SOL    HW157333   1.719   0.880   3.158
15235SOL    HW257334   1.728   0.976   3.275
15236SOL     OW57335   1.868   1.310   2.148
15236SOL    HW157336   1.838   1.229   2.108
15236SOL    HW257337   1.924   1.281   2.221
15237SOL     OW57338   4.126   0.179   4.939
15237SOL    HW157339   4.160   0.091   4.924
15237SOL    HW257340   4.032   0.171   4.924
15238SOL     OW57341   4.599   0.134  27.009
15238SOL    HW157342   4.639   0.148  26.923
15238SOL    HW257343   4.614   0.215  27.057
15239SOL     OW57344   1.507   1.408  21.265
15239SOL    HW157345   1.533   1.369  21.348
15239SOL    HW257346   1.544   1.350  21.198
15240SOL     OW57347   1.551   2.256   2.431
15240SOL    HW157348   1.617   2.253   2.500
15240SOL    HW257349   1.472   2.220   2.472
15241SOL     OW57350   2.021   2.757  20.667
15241SOL    HW157351   2.102   2.776  20.715
15241SOL    HW257352   2.017   2.825  20.600
15242SOL     OW57353   1.552   0.427   7.722
15242SOL    HW157354   1.647   0.415   7.730
15242SOL    HW257355   1.528   0.380   7.642
15243SOL     OW57356   2.931   2.335   7.966
15243SOL    HW157357   2.913   2.411   7.910
15243SOL    HW257358   2.946   2.372   8.053
15244SOL     OW57359   4.779   3.067   3.635
15244SOL    HW157360   4.761   2.984   3.679
15244SOL    HW257361   0.090   3.087   3.657
15245SOL     OW57362   4.439   2.073  18.789
15245SOL    HW157363   4.527   2.088  18.824
15245SOL    HW257364   4.450   2.073  18.694
15246SOL     OW57365   3.719   0.556   4.754
15246SOL    HW157366   3.647   0.619   4.758
15246SOL    HW257367   3.790   0.597   4.803
15247SOL     OW57368   3.721   1.497   3.424
15247SOL    HW157369   3.645   1.543   3.460
15247SOL    HW257370   3.710   1.406   3.452
15248SOL     OW57371   2.026   3.251   4.111
15248SOL    HW157372   2.055   3.161   4.124
15248SOL    HW257373   2.091   3.304   4.157
15249SOL     OW57374   3.778   0.447  27.591
15249SOL    HW157375   3.801   0.429  27.500
15249SOL    HW257376   3.801   0.539  27.603
15250SOL     OW57377   0.342   4.520   6.860
15250SOL    HW157378   0.311   4.525   6.770
15250SOL    HW257379   0.290   4.584   6.908
15251SOL     OW57380   3.029   4.052   4.479
15251SOL    HW157381   3.014   4.138   4.518
15251SOL    HW257382   2.943   4.011   4.477
15252SOL     OW57383   0.085   0.749  12.199
15252SOL    HW157384   0.149   0.680  12.217
15252SOL    HW257385   0.048   0.770  12.285
15253SOL     OW57386   3.675   4.474   4.130
15253SOL    HW157387   3.700   4.441   4.044
15253SOL    HW257388   3.579   4.477   4.127
15254SOL     OW57389   2.536   4.271   9.131
15254SOL    HW157390   2.582   4.311   9.205
15254SOL    HW257391   2.527   4.179   9.156
15255SOL     OW57392   1.104   1.802  28.158
15255SOL    HW157393   1.019   1.843  28.176
15255SOL    HW257394   1.125   1.827  28.068
15256SOL     OW57395   2.321   1.083  26.122
15256SOL    HW157396   2.333   1.138  26.044
15256SOL    HW257397   2.227   1.063  26.123
15257SOL     OW57398   2.145   3.705  22.691
15257SOL    HW157399   2.151   3.782  22.634
15257SOL    HW257400   2.065   3.719  22.742
15258SOL     OW57401   0.953   2.907  20.426
15258SOL    HW157402   0.897   2.829  20.423
15258SOL    HW257403   0.987   2.915  20.337
15259SOL     OW57404   4.065   4.437  18.670
15259SOL    HW157405   4.152   4.463  18.638
15259SOL    HW257406   4.082   4.378  18.743
15260SOL     OW57407   2.455   1.250   5.760
15260SOL    HW157408   2.464   1.170   5.812
15260SOL    HW257409   2.402   1.308   5.814
15261SOL     OW57410   4.319   4.014  21.162
15261SOL    HW157411   4.412   4.025  21.141
15261SOL    HW257412   4.313   3.926  21.198
15262SOL     OW57413   4.406   0.251   5.923
15262SOL    HW157414   4.368   0.192   5.988
15262SOL    HW257415   4.475   0.298   5.970
15263SOL     OW57416   2.027   2.006   9.224
15263SOL    HW157417   2.054   2.092   9.257
15263SOL    HW257418   1.932   2.014   9.213
15264SOL     OW57419   0.739   1.405  23.883
15264SOL    HW157420   0.798   1.446  23.946
15264SOL    HW257421   0.719   1.474  23.820
15265SOL     OW57422   0.107   3.202  21.984
15265SOL    HW157423   0.095   3.124  21.931
15265SOL    HW257424   0.019   3.240  21.992
15266SOL     OW57425   2.684   1.908  22.274
15266SOL    HW157426   2.680   1.963  22.352
15266SOL    HW257427   2.777   1.904  22.251
15267SOL     OW57428   2.660   0.116  19.537
15267SOL    HW157429   2.648   0.028  19.501
15267SOL    HW257430   2.754   0.124  19.552
15268SOL     OW57431   2.007   4.523  28.481
15268SOL    HW157432   1.957   4.598  28.449
15268SOL    HW257433   2.035   4.548   0.050
15269SOL     OW57434   1.703   1.132  23.075
15269SOL    HW157435   1.735   1.139  22.985
15269SOL    HW257436   1.772   1.084  23.122
15270SOL     OW57437   4.314   2.826  25.612
15270SOL    HW157438   4.228   2.790  25.635
15270SOL    HW257439   4.376   2.757  25.636
15271SOL     OW57440   3.181   0.788   9.304
15271SOL    HW157441   3.217   0.752   9.385
15271SOL    HW257442   3.253   0.783   9.242
15272SOL     OW57443   2.510   0.904   7.691
15272SOL    HW157444   2.510   0.951   7.775
15272SOL    HW257445   2.471   0.819   7.711
15273SOL     OW57446   4.063   3.857   5.975
15273SOL    HW157447   4.058   3.869   5.880
15273SOL    HW257448   4.070   3.762   5.986
15274SOL     OW57449   4.426   0.925  25.920
15274SOL    HW157450   4.368   0.989  25.962
15274SOL    HW257451   4.435   0.855  25.984
15275SOL     OW57452   0.205   4.488  24.854
15275SOL    HW157453   0.239   4.437  24.927
15275SOL    HW257454   0.146   4.552  24.894
15276SOL     OW57455   3.456   3.359   2.455
15276SOL    HW157456   3.473   3.328   2.366
15276SOL    HW257457   3.533   3.411   2.477
15277SOL     OW57458   4.338   2.720   1.288
15277SOL    HW157459   4.253   2.761   1.274
15277SOL    HW257460   4.328   2.631   1.255
15278SOL     OW57461   0.823   2.733   6.164
15278SOL    HW157462   0.903   2.785   6.161
15278SOL    HW257463   0.773   2.771   6.237
15279SOL     OW57464   2.129   0.222  21.551
15279SOL    HW157465   2.081   0.237  21.632
15279SOL    HW257466   2.063   0.233  21.482
15280SOL     OW57467   0.296   0.548   6.106
15280SOL    HW157468   0.356   0.610   6.147
15280SOL    HW257469   0.337   0.463   6.119
15281SOL     OW57470   2.464   2.422   3.549
15281SOL    HW157471   2.420   2.376   3.620
15281SOL    HW257472   2.428   2.510   3.551
15282SOL     OW57473   4.725   3.135   8.455
15282SOL    HW157474   0.003   3.077   8.504
15282SOL    HW257475   4.753   3.223   8.480
15283SOL     OW57476   0.447   4.504   3.080
15283SOL    HW157477   0.500   4.506   3.000
15283SOL    HW257478   0.405   4.418   3.079
15284SOL     OW57479   1.872   4.312  27.663
15284SOL    HW157480   1.967   4.301  27.661
15284SOL    HW257481   1.845   4.306  27.571
15285SOL     OW57482   1.635   1.899  10.401
15285SOL    HW157483   1.715   1.881  10.352
15285SOL    HW257484   1.565   1.892  10.336
15286SOL     OW57485   1.033   4.059   8.180
15286SOL    HW157486   1.113   4.069   8.129
15286SOL    HW257487   1.049   4.108   8.261
15287SOL     OW57488   4.114   1.284  23.524
15287SOL    HW157489   4.142   1.375  23.533
15287SOL    HW257490   4.051   1.272  23.595
15288SOL     OW57491   1.750   0.404  21.306
15288SOL    HW157492   1.697   0.369  21.235
15288SOL    HW257493   1.689   0.456  21.358
15289SOL     OW57494   1.955   3.811   5.613
15289SOL    HW157495   1.945   3.864   5.692
15289SOL    HW257496   2.049   3.797   5.605
15290SOL     OW57497   4.744   2.371  17.003
15290SOL    HW157498   0.024   2.446  17.000
15290SOL    HW257499   4.735   2.351  17.096
15291SOL     OW57500   3.543   0.505  26.164
15291SOL    HW157501   3.463   0.478  26.119
15291SOL    HW257502   3.557   0.595  26.136
15292SOL     OW57503   4.108   2.571   2.641
15292SOL    HW157504   4.095   2.478   2.624
15292SOL    HW257505   4.077   2.614   2.561
15293SOL     OW57506   1.413   1.399  20.139
15293SOL    HW157507   1.365   1.402  20.222
15293SOL    HW257508   1.373   1.327  20.091
15294SOL     OW57509   4.656   1.640  23.184
15294SOL    HW157510   4.686   1.554  23.213
15294SOL    HW257511   4.578   1.622  23.131
15295SOL     OW57512   2.078   3.933  22.201
15295SOL    HW157513   2.050   3.928  22.292
15295SOL    HW257514   2.007   3.892  22.152
15296SOL     OW57515   2.520   1.289  23.478
15296SOL    HW157516   2.441   1.341  23.465
15296SOL    HW257517   2.590   1.354  23.486
15297SOL     OW57518   3.890   2.267  18.352
15297SOL    HW157519   3.982   2.257  18.327
15297SOL    HW257520   3.849   2.310  18.277
15298SOL     OW57521   1.185   4.411  19.221
15298SOL    HW157522   1.239   4.332  19.215
15298SOL    HW257523   1.097   4.378  19.241
15299SOL     OW57524   4.762   1.295   6.848
15299SOL    HW157525   0.058   1.349   6.829
15299SOL    HW257526   4.703   1.353   6.896
15300SOL     OW57527   2.735   2.811   4.038
15300SOL    HW157528   2.666   2.805   3.972
15300SOL    HW257529   2.806   2.859   3.995
15301SOL     OW57530   4.763   3.436   1.049
15301SOL    HW157531   0.013   3.395   0.968
15301SOL    HW257532   0.033   3.393   1.118
15302SOL     OW57533   1.809   1.271  22.245
15302SOL    HW157534   1.884   1.226  22.284
15302SOL    HW257535   1.733   1.237  22.292
15303SOL     OW57536   2.709   1.747   6.507
15303SOL    HW157537   2.656   1.677   6.544
15303SOL    HW257538   2.797   1.733   6.542
15304SOL     OW57539   2.830   0.160  28.448
15304SOL    HW157540   2.899   0.181  28.511
15304SOL    HW257541   2.862   0.082  28.402
15305SOL     OW57542   0.223   0.380  11.358
15305SOL    HW157543   0.247   0.473  11.359
15305SOL    HW257544   0.228   0.354  11.450
15306SOL     OW57545   3.587   3.463  23.070
15306SOL    HW157546   3.586   3.379  23.115
15306SOL    HW257547   3.679   3.479  23.049
15307SOL     OW57548   2.594   1.021   2.678
15307SOL    HW157549   2.635   1.092   2.629
15307SOL    HW257550   2.659   0.996   2.744
15308SOL     OW57551   3.145   3.254  22.897
15308SOL    HW157552   3.104   3.229  22.814
15308SOL    HW257553   3.074   3.251  22.961
15309SOL     OW57554   2.408   4.085  20.556
15309SOL    HW157555   2.342   4.094  20.487
15309SOL    HW257556   2.486   4.054  20.510
15310SOL     OW57557   0.198   4.316  10.608
15310SOL    HW157558   0.294   4.318  10.608
15310SOL    HW257559   0.173   4.390  10.663
15311SOL     OW57560   4.347   1.853  25.593
15311SOL    HW157561   4.352   1.804  25.511
15311SOL    HW257562   4.356   1.945  25.567
15312SOL     OW57563   3.902   0.386  26.923
15312SOL    HW157564   3.868   0.329  26.854
15312SOL    HW257565   3.904   0.331  27.001
15313SOL     OW57566   1.834   4.282  24.731
15313SOL    HW157567   1.816   4.249  24.643
15313SOL    HW257568   1.780   4.228  24.788
15314SOL     OW57569   0.624   3.986  19.395
15314SOL    HW157570   0.579   3.928  19.457
15314SOL    HW257571   0.554   4.033  19.350
15315SOL     OW57572   1.491   0.628  26.899
15315SOL    HW157573   1.437   0.556  26.932
15315SOL    HW257574   1.529   0.667  26.978
15316SOL     OW57575   1.225   0.739  22.625
15316SOL    HW157576   1.223   0.684  22.546
15316SOL    HW257577   1.318   0.754  22.641
15317SOL     OW57578   2.406   4.134  21.569
15317SOL    HW157579   2.314   4.128  21.596
15317SOL    HW257580   2.433   4.223  21.593
15318SOL     OW57581   2.389   4.054  24.655
15318SOL    HW157582   2.411   4.103  24.576
15318SOL    HW257583   2.306   4.093  24.684
15319SOL     OW57584   2.803   1.114  27.459
15319SOL    HW157585   2.792   1.154  27.545
15319SOL    HW257586   2.896   1.090  27.455
15320SOL     OW57587   3.354   1.080   9.038
15320SOL    HW157588   3.431   1.075   9.094
15320SOL    HW257589   3.390   1.085   8.949
15321SOL     OW57590   0.106   4.182   1.150
15321SOL    HW157591   0.187   4.227   1.124
15321SOL    HW257592   0.044   4.253   1.169
15322SOL     OW57593   2.858   3.685   3.461
15322SOL    HW157594   2.948   3.660   3.440
15322SOL    HW257595   2.866   3.773   3.497
15323SOL     OW57596   2.161   3.685   2.577
15323SOL    HW157597   2.176   3.709   2.486
15323SOL    HW257598   2.168   3.589   2.578
15324SOL     OW57599   2.088   3.654   6.693
15324SOL    HW157600   2.151   3.648   6.765
15324SOL    HW257601   2.053   3.565   6.685
15325SOL     OW57602   4.713   0.731   1.573
15325SOL    HW157603   4.721   0.819   1.609
15325SOL    HW257604   0.017   0.689   1.592
15326SOL     OW57605   3.205   2.802   3.488
15326SOL    HW157606   3.121   2.798   3.442
15326SOL    HW257607   3.182   2.797   3.581
15327SOL     OW57608   2.467   1.493   8.679
15327SOL    HW157609   2.479   1.586   8.662
15327SOL    HW257610   2.429   1.489   8.767
15328SOL     OW57611   3.330   1.367  20.015
15328SOL    HW157612   3.284   1.332  19.939
15328SOL    HW257613   3.260   1.388  20.077
15329SOL     OW57614   2.378   2.575  28.186
15329SOL    HW157615   2.432   2.512  28.139
15329SOL    HW257616   2.288   2.546  28.170
15330SOL     OW57617   1.564   2.123  10.738
15330SOL    HW157618   1.582   2.051  10.798
15330SOL    HW257619   1.474   2.149  10.758
15331SOL     OW57620   2.333   1.518   1.941
15331SOL    HW157621   2.297   1.568   2.015
15331SOL    HW257622   2.313   1.572   1.864
15332SOL     OW57623   3.952   0.212  22.584
15332SOL    HW157624   3.881   0.267  22.618
15332SOL    HW257625   4.017   0.274  22.551
15333SOL     OW57626   4.722   1.443  17.681
15333SOL    HW157627   4.689   1.354  17.667
15333SOL    HW257628   4.650   1.500  17.654
15334SOL     OW57629   2.224   2.064  24.507
15334SOL    HW157630   2.246   1.989  24.451
15334SOL    HW257631   2.292   2.128  24.488
15335SOL     OW57632   2.381   2.890  21.380
15335SOL    HW157633   2.431   2.959  21.336
15335SOL    HW257634   2.433   2.811  21.366
15336SOL     OW57635   4.559   3.750  24.641
15336SOL    HW157636   4.641   3.706  24.664
15336SOL    HW257637   4.567   3.837  24.680
15337SOL     OW57638   3.248   4.742   4.038
15337SOL    HW157639   3.237   4.694   4.120
15337SOL    HW257640   3.273   4.675   3.974
15338SOL     OW57641   2.598   3.286   1.005
15338SOL    HW157642   2.533   3.227   0.966
15338SOL    HW257643   2.554   3.323   1.081
15339SOL     OW57644   1.971   3.720  26.319
15339SOL    HW157645   2.065   3.739  26.314
15339SOL    HW257646   1.932   3.800  26.356
15340SOL     OW57647   3.202   2.010   5.467
15340SOL    HW157648   3.261   2.047   5.401
15340SOL    HW257649   3.259   1.987   5.540
15341SOL     OW57650   3.236   2.423  19.336
15341SOL    HW157651   3.291   2.480  19.390
15341SOL    HW257652   3.173   2.386  19.397
15342SOL     OW57653   2.782   4.595   5.830
15342SOL    HW157654   2.818   4.513   5.863
15342SOL    HW257655   2.839   4.663   5.866
15343SOL     OW57656   1.077   2.946  26.504
15343SOL    HW157657   1.029   3.020  26.467
15343SOL    HW257658   1.123   2.908  26.429
15344SOL     OW57659   3.312   3.575  23.921
15344SOL    HW157660   3.286   3.555  24.011
15344SOL    HW257661   3.235   3.616  23.882
15345SOL     OW57662   0.566   4.161   3.375
15345SOL    HW157663   0.500   4.165   3.444
15345SOL    HW257664   0.626   4.092   3.404
15346SOL     OW57665   3.911   4.695  22.203
15346SOL    HW157666   3.822   4.661  22.191
15346SOL    HW257667   3.968   4.625  22.171
15347SOL     OW57668   1.997   3.693   7.284
15347SOL    HW157669   2.049   3.681   7.364
15347SOL    HW257670   1.937   3.764   7.305
15348SOL     OW57671   3.241   1.286   7.639
15348SOL    HW157672   3.265   1.300   7.731
15348SOL    HW257673   3.170   1.221   7.642
15349SOL     OW57674   4.051   0.191   0.129
15349SOL    HW157675   4.087   0.244   0.058
15349SOL    HW257676   4.110   0.206   0.203
15350SOL     OW57677   3.319   3.497   8.121
15350SOL    HW157678   3.310   3.588   8.093
15350SOL    HW257679   3.293   3.497   8.213
15351SOL     OW57680   0.762   0.312   6.173
15351SOL    HW157681   0.781   0.389   6.119
15351SOL    HW257682   0.831   0.312   6.239
15352SOL     OW57683   2.052   1.534   4.324
15352SOL    HW157684   2.127   1.588   4.349
15352SOL    HW257685   1.976   1.585   4.352
15353SOL     OW57686   1.279   3.642   3.496
15353SOL    HW157687   1.255   3.703   3.566
15353SOL    HW257688   1.351   3.686   3.450
15354SOL     OW57689   3.291   3.189   0.770
15354SOL    HW157690   3.306   3.214   0.861
15354SOL    HW257691   3.361   3.127   0.750
15355SOL     OW57692   1.433   4.006   8.731
15355SOL    HW157693   1.368   3.987   8.664
15355SOL    HW257694   1.400   4.084   8.776
15356SOL     OW57695   0.398   0.352   5.568
15356SOL    HW157696   0.402   0.268   5.521
15356SOL    HW257697   0.488   0.384   5.567
15357SOL     OW57698   4.746   0.234   2.029
15357SOL    HW157699   4.672   0.293   2.013
15357SOL    HW257700   4.709   0.146   2.017
15358SOL     OW57701   1.195   4.604   3.187
15358SOL    HW157702   1.164   4.683   3.144
15358SOL    HW257703   1.139   4.595   3.264
15359SOL     OW57704   3.749   1.183  25.985
15359SOL    HW157705   3.696   1.154  26.059
15359SOL    HW257706   3.810   1.111  25.969
15360SOL     OW57707   1.486   3.453  10.843
15360SOL    HW157708   1.529   3.418  10.921
15360SOL    HW257709   1.410   3.500  10.877
15361SOL     OW57710   1.101   3.720  26.536
15361SOL    HW157711   1.165   3.650  26.524
15361SOL    HW257712   1.029   3.680  26.585
15362SOL     OW57713   1.989   3.278  10.083
15362SOL    HW157714   1.923   3.224  10.040
15362SOL    HW257715   2.027   3.221  10.149
15363SOL     OW57716   2.792   3.378  27.684
15363SOL    HW157717   2.781   3.317  27.611
15363SOL    HW257718   2.771   3.327  27.762
15364SOL     OW57719   3.233   1.727  26.238
15364SOL    HW157720   3.251   1.792  26.306
15364SOL    HW257721   3.152   1.685  26.266
15365SOL     OW57722   2.656   4.072  24.341
15365SOL    HW157723   2.578   4.120  24.369
15365SOL    HW257724   2.651   3.989  24.389
15366SOL     OW57725   4.137   3.561  24.753
15366SOL    HW157726   4.187   3.507  24.814
15366SOL    HW257727   4.074   3.500  24.713
15367SOL     OW57728   2.922   1.357  23.456
15367SOL    HW157729   2.890   1.282  23.406
15367SOL    HW257730   2.864   1.429  23.432
15368SOL     OW57731   2.549   4.295   9.805
15368SOL    HW157732   2.573   4.274   9.895
15368SOL    HW257733   2.456   4.318   9.809
15369SOL     OW57734   3.931   0.518  20.696
15369SOL    HW157735   3.887   0.462  20.632
15369SOL    HW257736   4.023   0.518  20.668
15370SOL     OW57737   3.227   1.746  26.545
15370SOL    HW157738   3.322   1.734  26.542
15370SOL    HW257739   3.211   1.826  26.495
15371SOL     OW57740   1.288   0.897   2.615
15371SOL    HW157741   1.304   0.982   2.573
15371SOL    HW257742   1.197   0.901   2.643
15372SOL     OW57743   1.457   3.382   1.323
15372SOL    HW157744   1.471   3.292   1.353
15372SOL    HW257745   1.363   3.396   1.333
15373SOL     OW57746   1.133   3.337   2.159
15373SOL    HW157747   1.149   3.382   2.242
15373SOL    HW257748   1.182   3.255   2.167
15374SOL     OW57749   3.212   2.414  18.465
15374SOL    HW157750   3.174   2.501  18.477
15374SOL    HW257751   3.219   2.403  18.370
15375SOL     OW57752   3.144   2.158  20.577
15375SOL    HW157753   3.182   2.086  20.628
15375SOL    HW257754   3.049   2.144  20.582
15376SOL     OW57755   0.863   0.746  24.445
15376SOL    HW157756   0.780   0.741  24.493
15376SOL    HW257757   0.918   0.678  24.485
15377SOL     OW57758   4.266   1.249  24.780
15377SOL    HW157759   4.204   1.305  24.826
15377SOL    HW257760   4.262   1.279  24.689
15378SOL     OW57761   2.236   4.092  23.639
15378SOL    HW157762   2.143   4.072  23.648
15378SOL    HW257763   2.275   4.010  23.609
15379SOL     OW57764   1.945   1.299  20.217
15379SOL    HW157765   1.851   1.312  20.203
15379SOL    HW257766   1.982   1.387  20.213
15380SOL     OW57767   3.543   3.574  20.423
15380SOL    HW157768   3.615   3.511  20.416
15380SOL    HW257769   3.516   3.590  20.333
15381SOL     OW57770   3.659   1.672  27.101
15381SOL    HW157771   3.735   1.704  27.052
15381SOL    HW257772   3.678   1.580  27.119
15382SOL     OW57773   4.756   0.667   5.414
15382SOL    HW157774   4.693   0.719   5.464
15382SOL    HW257775   4.763   0.585   5.463
15383SOL     OW57776   0.266   2.339   4.132
15383SOL    HW157777   0.267   2.331   4.227
15383SOL    HW257778   0.174   2.357   4.111
15384SOL     OW57779   1.652   3.716   3.710
15384SOL    HW157780   1.623   3.794   3.662
15384SOL    HW257781   1.740   3.738   3.741
15385SOL     OW57782   2.346   0.293   2.234
15385SOL    HW157783   2.396   0.217   2.263
15385SOL    HW257784   2.277   0.257   2.178
15386SOL     OW57785   1.055   0.637  28.276
15386SOL    HW157786   1.142   0.606  28.299
15386SOL    HW257787   1.070   0.703  28.208
15387SOL     OW57788   0.868   3.665   0.421
15387SOL    HW157789   0.959   3.639   0.435
15387SOL    HW257790   0.849   3.641   0.330
15388SOL     OW57791   3.491   1.877   1.536
15388SOL    HW157792   3.504   1.971   1.548
15388SOL    HW257793   3.541   1.836   1.606
15389SOL     OW57794   4.361   2.570  27.968
15389SOL    HW157795   4.305   2.584  27.891
15389SOL    HW257796   4.366   2.475  27.977
15390SOL     OW57797   4.059   4.371  20.853
15390SOL    HW157798   4.063   4.363  20.758
15390SOL    HW257799   3.995   4.441  20.868
15391SOL     OW57800   2.936   1.001   8.248
15391SOL    HW157801   2.984   0.992   8.165
15391SOL    HW257802   3.003   0.993   8.316
15392SOL     OW57803   2.608   3.437  25.071
15392SOL    HW157804   2.613   3.364  25.132
15392SOL    HW257805   2.651   3.405  24.992
15393SOL     OW57806   0.614   3.865  26.525
15393SOL    HW157807   0.541   3.818  26.565
15393SOL    HW257808   0.660   3.906  26.598
15394SOL     OW57809   1.137   1.420   1.508
15394SOL    HW157810   1.075   1.385   1.444
15394SOL    HW257811   1.162   1.344   1.561
15395SOL     OW57812   1.651   3.313  24.876
15395SOL    HW157813   1.707   3.350  24.944
15395SOL    HW257814   1.704   3.244  24.837
15396SOL     OW57815   2.083   2.207   1.605
15396SOL    HW157816   2.079   2.204   1.509
15396SOL    HW257817   2.062   2.118   1.632
15397SOL     OW57818   2.860   2.356   5.409
15397SOL    HW157819   2.931   2.362   5.473
15397SOL    HW257820   2.898   2.389   5.328
15398SOL     OW57821   3.523   2.239  19.084
15398SOL    HW157822   3.478   2.218  19.166
15398SOL    HW257823   3.472   2.194  19.016
15399SOL     OW57824   1.439   1.615  21.554
15399SOL    HW157825   1.521   1.644  21.594
15399SOL    HW257826   1.449   1.520  21.546
15400SOL     OW57827   4.683   3.401  25.294
15400SOL    HW157828   4.765   3.355  25.277
15400SOL    HW257829   4.616   3.347  25.252
15401SOL     OW57830   3.819   0.643  22.673
15401SOL    HW157831   3.849   0.609  22.757
15401SOL    HW257832   3.724   0.652  22.684
15402SOL     OW57833   0.190   4.716  26.295
15402SOL    HW157834   0.147   4.759  26.221
15402SOL    HW257835   0.118   4.683  26.348
15403SOL     OW57836   1.219   1.088   1.100
15403SOL    HW157837   1.181   1.000   1.100
15403SOL    HW257838   1.272   1.091   1.179
15404SOL     OW57839   0.860   4.051  10.843
15404SOL    HW157840   0.790   4.090  10.791
15404SOL    HW257841   0.815   4.006  10.914
15405SOL     OW57842   1.479   4.424   7.243
15405SOL    HW157843   1.425   4.346   7.255
15405SOL    HW257844   1.569   4.391   7.239
15406SOL     OW57845   1.208   4.590   0.358
15406SOL    HW157846   1.195   4.496   0.369
15406SOL    HW257847   1.302   4.599   0.344
15407SOL     OW57848   1.601   4.033   3.904
15407SOL    HW157849   1.510   4.012   3.925
15407SOL    HW257850   1.652   3.969   3.954
15408SOL     OW57851   0.116   1.361   9.378
15408SOL    HW157852   0.091   1.291   9.438
15408SOL    HW257853   0.102   1.442   9.427
15409SOL     OW57854   3.902   2.282  26.399
15409SOL    HW157855   3.843   2.231  26.344
15409SOL    HW257856   3.968   2.219  26.428
15410SOL     OW57857   3.892   1.752   2.628
15410SOL    HW157858   3.850   1.696   2.563
15410SOL    HW257859   3.828   1.821   2.646
15411SOL     OW57860   4.135   1.980   4.813
15411SOL    HW157861   4.124   1.885   4.811
15411SOL    HW257862   4.178   2.001   4.730
15412SOL     OW57863   3.985   4.346  21.209
15412SOL    HW157864   3.916   4.289  21.243
15412SOL    HW257865   3.983   4.423  21.266
15413SOL     OW57866   1.014   1.424  22.636
15413SOL    HW157867   0.992   1.332  22.619
15413SOL    HW257868   1.036   1.427  22.729
15414SOL     OW57869   1.404   2.808   7.272
15414SOL    HW157870   1.491   2.847   7.265
15414SOL    HW257871   1.360   2.836   7.192
15415SOL     OW57872   4.105   2.350   0.678
15415SOL    HW157873   4.109   2.265   0.722
15415SOL    HW257874   4.058   2.407   0.739
15416SOL     OW57875   1.595   4.094   0.665
15416SOL    HW157876   1.526   4.158   0.648
15416SOL    HW257877   1.570   4.017   0.613
15417SOL     OW57878   3.527   3.124   5.908
15417SOL    HW157879   3.447   3.086   5.944
15417SOL    HW257880   3.506   3.217   5.896
15418SOL     OW57881   0.950   0.046  27.639
15418SOL    HW157882   0.902   4.759  27.591
15418SOL    HW257883   0.940   0.125  27.585
15419SOL     OW57884   1.015   1.957  16.737
15419SOL    HW157885   1.069   2.036  16.732
15419SOL    HW257886   1.076   1.889  16.765
15420SOL     OW57887   4.008   3.656  27.363
15420SOL    HW157888   3.927   3.623  27.401
15420SOL    HW257889   3.995   3.751  27.357
15421SOL     OW57890   1.858   1.524   1.997
15421SOL    HW157891   1.813   1.482   1.924
15421SOL    HW257892   1.864   1.456   2.064
15422SOL     OW57893   4.584   0.641  16.889
15422SOL    HW157894   4.534   0.678  16.816
15422SOL    HW257895   4.651   0.586  16.847
15423SOL     OW57896   3.435   2.585  23.282
15423SOL    HW157897   3.390   2.531  23.216
15423SOL    HW257898   3.378   2.661  23.293
15424SOL     OW57899   4.756   2.754  22.941
15424SOL    HW157900   4.671   2.715  22.963
15424SOL    HW257901   4.765   2.739  22.847
15425SOL     OW57902   4.320   4.667   3.955
15425SOL    HW157903   4.405   4.641   3.989
15425SOL    HW257904   4.258   4.608   3.998
15426SOL     OW57905   0.829   4.596  20.344
15426SOL    HW157906   0.893   4.639  20.401
15426SOL    HW257907   0.792   4.667  20.291
15427SOL     OW57908   4.710   0.270  26.759
15427SOL    HW157909   4.702   0.363  26.739
15427SOL    HW257910   4.627   0.232  26.732
15428SOL     OW57911   1.265   4.600  20.747
15428SOL    HW157912   1.199   4.668  20.734
15428SOL    HW257913   1.337   4.625  20.689
15429SOL     OW57914   0.249   3.034  19.216
15429SOL    HW157915   0.290   3.041  19.302
15429SOL    HW257916   0.316   3.065  19.155
15430SOL     OW57917   2.989   1.812   3.860
15430SOL    HW157918   3.029   1.882   3.809
15430SOL    HW257919   3.060   1.749   3.874
15431SOL     OW57920   2.536   3.351   3.094
15431SOL    HW157921   2.456   3.399   3.113
15431SOL    HW257922   2.577   3.338   3.180
15432SOL     OW57923   3.443   3.156  10.547
15432SOL    HW157924   3.473   3.086  10.604
15432SOL    HW257925   3.514   3.168  10.484
15433SOL     OW57926   1.938   0.398   6.717
15433SOL    HW157927   1.988   0.321   6.743
15433SOL    HW257928   1.997   0.472   6.733
15434SOL     OW57929   0.232   3.811   5.089
15434SOL    HW157930   0.304   3.870   5.069
15434SOL    HW257931   0.256   3.771   5.172
15435SOL     OW57932   0.137   4.394  22.216
15435SOL    HW157933   0.160   4.464  22.155
15435SOL    HW257934   0.221   4.358  22.245
15436SOL     OW57935   1.114   3.330   3.587
15436SOL    HW157936   1.148   3.253   3.632
15436SOL    HW257937   1.120   3.400   3.652
15437SOL     OW57938   1.628   4.653  21.542
15437SOL    HW157939   1.562   4.585  21.551
15437SOL    HW257940   1.700   4.624  21.598
15438SOL     OW57941   3.080   0.873  25.535
15438SOL    HW157942   3.094   0.966  25.555
15438SOL    HW257943   3.098   0.866  25.441
15439SOL     OW57944   2.247   2.529  20.648
15439SOL    HW157945   2.313   2.466  20.675
15439SOL    HW257946   2.171   2.476  20.626
15440SOL     OW57947   0.826   2.021  19.816
15440SOL    HW157948   0.869   2.102  19.845
15440SOL    HW257949   0.794   1.980  19.896
15441SOL     OW57950   3.918   0.464   8.695
15441SOL    HW157951   3.864   0.543   8.689
15441SOL    HW257952   3.902   0.431   8.784
15442SOL     OW57953   4.749   1.704  20.369
15442SOL    HW157954   4.704   1.656  20.299
15442SOL    HW257955   0.035   1.756  20.324
15443SOL     OW57956   2.655   2.349  25.601
15443SOL    HW157957   2.600   2.409  25.652
15443SOL    HW257958   2.605   2.268  25.597
15444SOL     OW57959   3.575   1.665   3.751
15444SOL    HW157960   3.583   1.605   3.826
15444SOL    HW257961   3.556   1.750   3.790
15445SOL     OW57962   4.057   2.992   0.321
15445SOL    HW157963   3.970   2.952   0.319
15445SOL    HW257964   4.059   3.040   0.404
15446SOL     OW57965   2.304   3.812  24.343
15446SOL    HW157966   2.258   3.731  24.319
15446SOL    HW257967   2.267   3.878  24.285
15447SOL     OW57968   0.337   3.324   6.624
15447SOL    HW157969   0.413   3.356   6.575
15447SOL    HW257970   0.374   3.288   6.705
15448SOL     OW57971   1.818   0.915  24.785
15448SOL    HW157972   1.811   0.868  24.702
15448SOL    HW257973   1.903   0.889  24.820
15449SOL     OW57974   3.617   4.596  22.220
15449SOL    HW157975   3.599   4.620  22.129
15449SOL    HW257976   3.619   4.500  22.220
15450SOL     OW57977   4.728   2.988  28.085
15450SOL    HW157978   4.638   2.965  28.110
15450SOL    HW257979   4.722   3.079  28.055
15451SOL     OW57980   3.921   4.008  22.641
15451SOL    HW157981   3.942   4.053  22.559
15451SOL    HW257982   3.833   3.972  22.627
15452SOL     OW57983   0.117   4.032   1.916
15452SOL    HW157984   0.165   3.950   1.905
15452SOL    HW257985   0.082   4.052   1.829
15453SOL     OW57986   2.880   1.483  18.967
15453SOL    HW157987   2.790   1.497  18.996
15453SOL    HW257988   2.907   1.402  19.010
15454SOL     OW57989   2.477   1.269   4.205
15454SOL    HW157990   2.557   1.287   4.255
15454SOL    HW257991   2.489   1.317   4.123
15455SOL     OW57992   0.961   1.926  21.286
15455SOL    HW157993   0.969   2.009  21.333
15455SOL    HW257994   0.868   1.919  21.266
15456SOL     OW57995   0.250   4.013   7.351
15456SOL    HW157996   0.269   3.976   7.437
15456SOL    HW257997   0.315   4.082   7.339
15457SOL     OW57998   2.924   2.454   3.716
15457SOL    HW157999   2.857   2.519   3.696
15457SOL    HW258000   2.882   2.370   3.699
15458SOL     OW58001   0.274   1.729  10.677
15458SOL    HW158002   0.225   1.733  10.759
15458SOL    HW258003   0.366   1.731  10.704
15459SOL     OW58004   0.210   4.211  20.157
15459SOL    HW158005   0.208   4.163  20.074
15459SOL    HW258006   0.165   4.154  20.219
15460SOL     OW58007   3.182   0.035   4.660
15460SOL    HW158008   3.264   0.032   4.611
15460SOL    HW258009   3.123   0.086   4.605
15461SOL     OW58010   3.082   4.738   4.959
15461SOL    HW158011   3.059   4.645   4.966
15461SOL    HW258012   3.082   4.756   4.865
15462SOL     OW58013   0.404   4.014  11.704
15462SOL    HW158014   0.342   4.043  11.637
15462SOL    HW258015   0.355   3.950  11.756
15463SOL     OW58016   1.125   4.739  19.665
15463SOL    HW158017   1.212   4.725  19.628
15463SOL    HW258018   1.069   4.676  19.620
15464SOL     OW58019   2.064   1.356   2.784
15464SOL    HW158020   2.045   1.265   2.808
15464SOL    HW258021   1.993   1.407   2.824
15465SOL     OW58022   2.249   0.223  24.001
15465SOL    HW158023   2.311   0.244  24.071
15465SOL    HW258024   2.304   0.205  23.925
15466SOL     OW58025   3.020   0.564   9.546
15466SOL    HW158026   2.971   0.525   9.618
15466SOL    HW258027   3.003   0.507   9.471
15467SOL     OW58028   3.149   4.391  24.563
15467SOL    HW158029   3.183   4.444  24.636
15467SOL    HW258030   3.168   4.443  24.485
15468SOL     OW58031   3.780   2.220   7.787
15468SOL    HW158032   3.826   2.144   7.751
15468SOL    HW258033   3.756   2.193   7.876
15469SOL     OW58034   3.134   1.138  20.261
15469SOL    HW158035   3.195   1.188  20.315
15469SOL    HW258036   3.079   1.091  20.324
15470SOL     OW58037   2.205   1.901   7.481
15470SOL    HW158038   2.167   1.988   7.467
15470SOL    HW258039   2.140   1.840   7.446
15471SOL     OW58040   1.956   1.709  24.479
15471SOL    HW158041   1.893   1.673  24.416
15471SOL    HW258042   1.916   1.791  24.508
15472SOL     OW58043   3.177   3.916   6.508
15472SOL    HW158044   3.167   3.931   6.414
15472SOL    HW258045   3.098   3.869   6.533
15473SOL     OW58046   2.666   4.199   3.258
15473SOL    HW158047   2.680   4.165   3.170
15473SOL    HW258048   2.676   4.123   3.315
15474SOL     OW58049   4.545   0.192  21.074
15474SOL    HW158050   4.555   0.235  21.159
15474SOL    HW258051   4.492   0.115  21.092
15475SOL     OW58052   3.709   1.924  22.713
15475SOL    HW158053   3.686   1.833  22.693
15475SOL    HW258054   3.733   1.961  22.628
15476SOL     OW58055   1.873   1.044   4.237
15476SOL    HW158056   1.796   1.034   4.294
15476SOL    HW258057   1.909   0.956   4.230
15477SOL     OW58058   0.444   4.572   4.302
15477SOL    HW158059   0.476   4.542   4.387
15477SOL    HW258060   0.363   4.524   4.288
15478SOL     OW58061   3.764   0.740  11.918
15478SOL    HW158062   3.697   0.761  11.984
15478SOL    HW258063   3.781   0.647  11.930
15479SOL     OW58064   2.688   2.545  27.437
15479SOL    HW158065   2.711   2.565  27.346
15479SOL    HW258066   2.597   2.516  27.433
15480SOL     OW58067   0.530   4.624   2.308
15480SOL    HW158068   0.471   4.552   2.332
15480SOL    HW258069   0.475   4.702   2.312
15481SOL     OW58070   0.514   0.838   4.663
15481SOL    HW158071   0.506   0.752   4.705
15481SOL    HW258072   0.584   0.881   4.711
15482SOL     OW58073   4.324   4.117  18.786
15482SOL    HW158074   4.404   4.102  18.735
15482SOL    HW258075   4.302   4.031  18.822
15483SOL     OW58076   3.148   1.829   5.800
15483SOL    HW158077   3.241   1.807   5.806
15483SOL    HW258078   3.146   1.925   5.798
15484SOL     OW58079   1.093   0.762   9.174
15484SOL    HW158080   1.010   0.737   9.132
15484SOL    HW258081   1.130   0.679   9.204
15485SOL     OW58082   0.074   4.737  23.649
15485SOL    HW158083   0.090   0.049  23.666
15485SOL    HW258084   0.110   4.722  23.562
15486SOL     OW58085   1.755   2.367  23.541
15486SOL    HW158086   1.721   2.453  23.567
15486SOL    HW258087   1.684   2.306  23.561
15487SOL     OW58088   1.171   3.519   1.288
15487SOL    HW158089   1.078   3.504   1.272
15487SOL    HW258090   1.212   3.513   1.202
15488SOL     OW58091   1.294   2.270   0.190
15488SOL    HW158092   1.331   2.220   0.117
15488SOL    HW258093   1.260   2.350   0.149
15489SOL     OW58094   1.483   1.805  10.611
15489SOL    HW158095   1.517   1.842  10.693
15489SOL    HW258096   1.533   1.849  10.542
15490SOL     OW58097   2.031   0.586  16.792
15490SOL    HW158098   2.080   0.668  16.803
15490SOL    HW258099   2.094   0.517  16.814
15491SOL     OW58100   2.376   2.554  11.455
15491SOL    HW158101   2.469   2.531  11.446
15491SOL    HW258102   2.373   2.648  11.436
15492SOL     OW58103   3.350   0.522  23.079
15492SOL    HW158104   3.309   0.446  23.120
15492SOL    HW258105   3.338   0.507  22.985
15493SOL     OW58106   0.995   0.543  25.725
15493SOL    HW158107   0.974   0.523  25.816
15493SOL    HW258108   0.910   0.559  25.684
15494SOL     OW58109   4.249   0.180  20.173
15494SOL    HW158110   4.291   0.244  20.116
15494SOL    HW258111   4.228   0.228  20.253
15495SOL     OW58112   1.326   1.370  19.046
15495SOL    HW158113   1.412   1.340  19.074
15495SOL    HW258114   1.334   1.381  18.951
15496SOL     OW58115   2.280   4.083  19.667
15496SOL    HW158116   2.231   4.165  19.679
15496SOL    HW258117   2.371   4.110  19.659
15497SOL     OW58118   1.968   3.055  26.252
15497SOL    HW158119   1.891   3.035  26.305
15497SOL    HW258120   1.947   3.020  26.165
15498SOL     OW58121   3.284   0.246   2.161
15498SOL    HW158122   3.227   0.212   2.091
15498SOL    HW258123   3.343   0.173   2.181
15499SOL     OW58124   0.357   2.870  27.217
15499SOL    HW158125   0.408   2.815  27.277
15499SOL    HW258126   0.389   2.959  27.233
15500SOL     OW58127   0.352   2.484  23.341
15500SOL    HW158128   0.349   2.431  23.262
15500SOL    HW258129   0.294   2.558  23.322
15501SOL     OW58130   0.139   3.082  20.683
15501SOL    HW158131   0.090   3.088  20.601
15501SOL    HW258132   0.219   3.035  20.660
15502SOL     OW58133   3.479   3.608  27.442
15502SOL    HW158134   3.491   3.654  27.359
15502SOL    HW258135   3.414   3.540  27.423
15503SOL     OW58136   3.720   2.589   4.078
15503SOL    HW158137   3.797   2.578   4.133
15503SOL    HW258138   3.693   2.680   4.091
15504SOL     OW58139   1.422   2.124   1.621
15504SOL    HW158140   1.447   2.145   1.711
15504SOL    HW258141   1.413   2.029   1.621
15505SOL     OW58142   4.475   2.956   8.128
15505SOL    HW158143   4.545   2.999   8.079
15505SOL    HW258144   4.401   2.954   8.067
15506SOL     OW58145   1.097   3.679   5.024
15506SOL    HW158146   1.162   3.749   5.024
15506SOL    HW258147   1.124   3.620   4.954
15507SOL     OW58148   2.523   2.118   2.141
15507SOL    HW158149   2.567   2.049   2.091
15507SOL    HW258150   2.576   2.128   2.220
15508SOL     OW58151   0.857   3.937  20.575
15508SOL    HW158152   0.861   4.022  20.618
15508SOL    HW258153   0.863   3.873  20.646
15509SOL     OW58154   3.176   2.171   8.628
15509SOL    HW158155   3.239   2.110   8.589
15509SOL    HW258156   3.093   2.123   8.628
15510SOL     OW58157   0.135   2.481  25.264
15510SOL    HW158158   0.109   2.390  25.277
15510SOL    HW258159   0.096   2.505  25.180
15511SOL     OW58160   0.542   1.809  19.365
15511SOL    HW158161   0.450   1.803  19.341
15511SOL    HW258162   0.589   1.806  19.281
15512SOL     OW58163   4.671   4.280  27.269
15512SOL    HW158164   4.590   4.282  27.218
15512SOL    HW258165   4.647   4.236  27.350
15513SOL     OW58166   2.075   3.764   0.017
15513SOL    HW158167   2.074   3.741  28.443
15513SOL    HW258168   2.087   3.859   0.019
15514SOL     OW58169   2.462   4.427  28.266
15514SOL    HW158170   2.442   4.503  28.320
15514SOL    HW258171   2.387   4.369  28.278
15515SOL     OW58172   2.941   4.341   2.924
15515SOL    HW158173   2.868   4.280   2.914
15515SOL    HW258174   2.987   4.310   3.002
15516SOL     OW58175   0.228   1.207  10.536
15516SOL    HW158176   0.218   1.288  10.587
15516SOL    HW258177   0.316   1.214  10.498
15517SOL     OW58178   2.214   4.146  25.397
15517SOL    HW158179   2.281   4.200  25.438
15517SOL    HW258180   2.242   4.056  25.413
15518SOL     OW58181   0.781   1.160   5.682
15518SOL    HW158182   0.754   1.214   5.756
15518SOL    HW258183   0.833   1.090   5.721
15519SOL     OW58184   4.463   3.239  24.153
15519SOL    HW158185   4.531   3.255  24.219
15519SOL    HW258186   4.424   3.156  24.180
15520SOL     OW58187   1.062   1.909  23.324
15520SOL    HW158188   1.021   1.995  23.318
15520SOL    HW258189   1.142   1.916  23.272
15521SOL     OW58190   2.744   1.453  28.425
15521SOL    HW158191   2.820   1.507  28.402
15521SOL    HW258192   2.780   1.366  28.443
15522SOL     OW58193   2.336   1.086   1.278
15522SOL    HW158194   2.273   1.040   1.333
15522SOL    HW258195   2.288   1.163   1.247
15523SOL     OW58196   0.502   3.284  26.122
15523SOL    HW158197   0.495   3.292  26.027
15523SOL    HW258198   0.596   3.277  26.139
15524SOL     OW58199   1.117   1.535  19.917
15524SOL    HW158200   1.067   1.457  19.940
15524SOL    HW258201   1.051   1.602  19.898
15525SOL     OW58202   2.334   3.830  23.543
15525SOL    HW158203   2.385   3.820  23.463
15525SOL    HW258204   2.382   3.778  23.608
15526SOL     OW58205   4.679   1.600  25.728
15526SOL    HW158206   4.731   1.580  25.806
15526SOL    HW258207   4.618   1.668  25.756
15527SOL     OW58208   4.418   2.291   5.915
15527SOL    HW158209   4.506   2.324   5.896
15527SOL    HW258210   4.361   2.368   5.907
15528SOL     OW58211   2.205   0.440   5.415
15528SOL    HW158212   2.168   0.528   5.414
15528SOL    HW258213   2.297   0.452   5.392
15529SOL     OW58214   4.678   1.192  10.611
15529SOL    HW158215   4.752   1.197  10.551
15529SOL    HW258216   4.676   1.101  10.639
15530SOL     OW58217   3.895   2.667  24.401
15530SOL    HW158218   3.908   2.639  24.492
15530SOL    HW258219   3.918   2.590  24.349
15531SOL     OW58220   0.383   0.824   6.152
15531SOL    HW158221   0.352   0.881   6.222
15531SOL    HW258222   0.471   0.799   6.179
15532SOL     OW58223   1.670   3.361   9.251
15532SOL    HW158224   1.710   3.280   9.284
15532SOL    HW258225   1.736   3.428   9.266
15533SOL     OW58226   0.696   1.074   8.226
15533SOL    HW158227   0.663   0.987   8.249
15533SOL    HW258228   0.623   1.116   8.180
15534SOL     OW58229   1.305   4.606   9.484
15534SOL    HW158230   1.280   4.603   9.576
15534SOL    HW258231   1.333   4.517   9.464
15535SOL     OW58232   1.637   2.127  26.554
15535SOL    HW158233   1.695   2.190  26.511
15535SOL    HW258234   1.558   2.126  26.500
15536SOL     OW58235   2.464   0.245  28.429
15536SOL    HW158236   2.466   0.269   0.002
15536SOL    HW258237   2.476   0.150  28.428
15537SOL     OW58238   1.808   0.811  25.168
15537SOL    HW158239   1.856   0.874  25.223
15537SOL    HW258240   1.861   0.803  25.089
15538SOL     OW58241   2.926   3.069  21.100
15538SOL    HW158242   2.869   2.998  21.131
15538SOL    HW258243   2.876   3.111  21.030
15539SOL     OW58244   3.781   3.454   5.982
15539SOL    HW158245   3.723   3.399   6.036
15539SOL    HW258246   3.845   3.490   6.044
15540SOL     OW58247   1.607   2.689   7.906
15540SOL    HW158248   1.697   2.718   7.919
15540SOL    HW258249   1.573   2.679   7.995
15541SOL     OW58250   0.363   3.748  23.163
15541SOL    HW158251   0.313   3.801  23.226
15541SOL    HW258252   0.453   3.778  23.174
15542SOL     OW58253   3.796   3.009  26.278
15542SOL    HW158254   3.826   2.920  26.261
15542SOL    HW258255   3.819   3.025  26.369
15543SOL     OW58256   0.076   0.071  10.464
15543SOL    HW158257   4.776   0.037  10.503
15543SOL    HW258258   0.050   0.155  10.426
15544SOL     OW58259   0.311   3.388  22.012
15544SOL    HW158260   0.395   3.387  21.966
15544SOL    HW258261   0.263   3.313  21.976
15545SOL     OW58262   0.448   3.747   7.239
15545SOL    HW158263   0.456   3.819   7.176
15545SOL    HW258264   0.478   3.784   7.322
15546SOL     OW58265   0.730   4.667   8.402
15546SOL    HW158266   0.678   4.660   8.482
15546SOL    HW258267   0.666   4.659   8.331
15547SOL     OW58268   4.662   0.776  26.119
15547SOL    HW158269   4.600   0.742  26.184
15547SOL    HW258270   4.716   0.838  26.167
15548SOL     OW58271   0.198   4.749   8.035
15548SOL    HW158272   0.236   4.726   7.950
15548SOL    HW258273   0.197   0.064   8.036
15549SOL     OW58274   2.431   2.811  27.053
15549SOL    HW158275   2.477   2.727  27.053
15549SOL    HW258276   2.485   2.868  26.998
15550SOL     OW58277   3.863   3.777   1.921
15550SOL    HW158278   3.897   3.692   1.893
15550SOL    HW258279   3.932   3.813   1.977
15551SOL     OW58280   2.614   2.697  21.344
15551SOL    HW158281   2.623   2.602  21.332
15551SOL    HW258282   2.632   2.712  21.437
15552SOL     OW58283   1.814   2.775  22.869
15552SOL    HW158284   1.777   2.702  22.919
15552SOL    HW258285   1.902   2.787  22.905
15553SOL     OW58286   3.859   2.981   1.149
15553SOL    HW158287   3.805   2.902   1.149
15553SOL    HW258288   3.805   3.047   1.105
15554SOL     OW58289   4.056   4.124  28.106
15554SOL    HW158290   4.009   4.048  28.072
15554SOL    HW258291   4.110   4.154  28.033
15555SOL     OW58292   0.173   1.328  25.226
15555SOL    HW158293   0.189   1.415  25.189
15555SOL    HW258294   0.143   1.275  25.152
15556SOL     OW58295   1.077   4.436  24.015
15556SOL    HW158296   1.104   4.472  24.100
15556SOL    HW258297   1.141   4.367  23.996
15557SOL     OW58298   2.797   3.356   0.421
15557SOL    HW158299   2.792   3.262   0.437
15557SOL    HW258300   2.782   3.396   0.507
15558SOL     OW58301   2.351   0.153   1.710
15558SOL    HW158302   2.427   0.095   1.708
15558SOL    HW258303   2.277   0.095   1.728
15559SOL     OW58304   1.231   1.072  24.391
15559SOL    HW158305   1.157   1.051  24.448
15559SOL    HW258306   1.228   1.167  24.382
15560SOL     OW58307   0.742   0.049   6.937
15560SOL    HW158308   0.689   0.057   7.016
15560SOL    HW258309   0.682   0.014   6.871
15561SOL     OW58310   0.751   0.482  27.293
15561SOL    HW158311   0.846   0.493  27.291
15561SOL    HW258312   0.723   0.501  27.203
15562SOL     OW58313   1.973   4.214  27.365
15562SOL    HW158314   1.889   4.260  27.357
15562SOL    HW258315   2.039   4.283  27.358
15563SOL     OW58316   4.332   3.832  25.934
15563SOL    HW158317   4.338   3.828  26.030
15563SOL    HW258318   4.279   3.756  25.911
15564SOL     OW58319   4.046   3.327   0.743
15564SOL    HW158320   4.139   3.308   0.729
15564SOL    HW258321   4.029   3.404   0.689
15565SOL     OW58322   0.018   2.320  20.175
15565SOL    HW158323   0.063   2.303  20.093
15565SOL    HW258324   0.046   2.408  20.200
15566SOL     OW58325   4.479   1.478  20.697
15566SOL    HW158326   4.492   1.566  20.732
15566SOL    HW258327   4.434   1.492  20.613
15567SOL     OW58328   2.549   1.572  21.591
15567SOL    HW158329   2.467   1.555  21.544
15567SOL    HW258330   2.533   1.653  21.639
15568SOL     OW58331   1.121   3.318  23.882
15568SOL    HW158332   1.053   3.367  23.927
15568SOL    HW258333   1.203   3.352  23.917
15569SOL     OW58334   2.613   4.416   7.873
15569SOL    HW158335   2.646   4.334   7.909
15569SOL    HW258336   2.649   4.483   7.930
15570SOL     OW58337   2.314   0.815  26.424
15570SOL    HW158338   2.319   0.857  26.338
15570SOL    HW258339   2.397   0.837  26.467
15571SOL     OW58340   0.599   3.076   3.718
15571SOL    HW158341   0.651   3.071   3.798
15571SOL    HW258342   0.663   3.093   3.649
15572SOL     OW58343   1.885   2.820   0.598
15572SOL    HW158344   1.790   2.816   0.590
15572SOL    HW258345   1.912   2.887   0.535
15573SOL     OW58346   1.022   1.527  27.699
15573SOL    HW158347   1.048   1.437  27.717
15573SOL    HW258348   0.930   1.531  27.723
15574SOL     OW58349   0.748   1.354   8.063
15574SOL    HW158350   0.740   1.269   8.019
15574SOL    HW258351   0.838   1.356   8.094
15575SOL     OW58352   3.369   3.920   3.367
15575SOL    HW158353   3.446   3.962   3.329
15575SOL    HW258354   3.399   3.887   3.452
15576SOL     OW58355   3.166   0.619   5.411
15576SOL    HW158356   3.213   0.583   5.336
15576SOL    HW258357   3.116   0.545   5.446
15577SOL     OW58358   3.235   3.422   9.102
15577SOL    HW158359   3.147   3.385   9.115
15577SOL    HW258360   3.289   3.378   9.168
15578SOL     OW58361   2.855   1.182  22.975
15578SOL    HW158362   2.806   1.180  22.893
15578SOL    HW258363   2.929   1.122  22.960
15579SOL     OW58364   4.429   1.119  20.515
15579SOL    HW158365   4.424   1.025  20.498
15579SOL    HW258366   4.459   1.156  20.432
15580SOL     OW58367   4.698   2.334   8.380
15580SOL    HW158368   4.686   2.404   8.445
15580SOL    HW258369   4.686   2.377   8.296
15581SOL     OW58370   1.171   4.519  24.975
15581SOL    HW158371   1.257   4.559  24.982
15581SOL    HW258372   1.168   4.484  24.886
15582SOL     OW58373   0.907   2.240   2.386
15582SOL    HW158374   0.921   2.329   2.420
15582SOL    HW258375   0.967   2.186   2.437
15583SOL     OW58376   2.919   1.945   9.820
15583SOL    HW158377   2.955   1.925   9.906
15583SOL    HW258378   2.832   1.981   9.838
15584SOL     OW58379   1.716   0.031  23.990
15584SOL    HW158380   1.642   0.087  24.015
15584SOL    HW258381   1.781   0.091  23.955
15585SOL     OW58382   2.301   2.783   9.307
15585SOL    HW158383   2.362   2.709   9.307
15585SOL    HW258384   2.263   2.783   9.219
15586SOL     OW58385   1.904   4.174  26.251
15586SOL    HW158386   1.987   4.139  26.218
15586SOL    HW258387   1.925   4.264  26.277
15587SOL     OW58388   4.739   0.760   1.194
15587SOL    HW158389   4.665   0.737   1.250
15587SOL    HW258390   4.704   0.826   1.134
15588SOL     OW58391   0.766   4.442  11.781
15588SOL    HW158392   0.860   4.424  11.782
15588SOL    HW258393   0.725   4.356  11.777
15589SOL     OW58394   0.504   0.103   9.000
15589SOL    HW158395   0.560   0.106   8.923
15589SOL    HW258396   0.551   0.155   9.066
15590SOL     OW58397   1.327   0.158  27.626
15590SOL    HW158398   1.300   0.178  27.716
15590SOL    HW258399   1.423   0.163  27.628
15591SOL     OW58400   0.312   3.459  23.195
15591SOL    HW158401   0.327   3.414  23.112
15591SOL    HW258402   0.341   3.549  23.179
15592SOL     OW58403   2.417   3.938  10.608
15592SOL    HW158404   2.356   3.890  10.664
15592SOL    HW258405   2.443   4.013  10.661
15593SOL     OW58406   4.599   1.349  25.631
15593SOL    HW158407   4.649   1.430  25.639
15593SOL    HW258408   4.557   1.339  25.716
15594SOL     OW58409   1.879   3.941  26.456
15594SOL    HW158410   1.880   4.001  26.381
15594SOL    HW258411   1.813   3.977  26.515
15595SOL     OW58412   3.537   1.638   6.494
15595SOL    HW158413   3.628   1.662   6.474
15595SOL    HW258414   3.527   1.550   6.459
15596SOL     OW58415   0.579   2.356   4.381
15596SOL    HW158416   0.574   2.274   4.331
15596SOL    HW258417   0.605   2.329   4.469
15597SOL     OW58418   0.800   3.142  22.126
15597SOL    HW158419   0.807   3.095  22.043
15597SOL    HW258420   0.733   3.094  22.175
15598SOL     OW58421   3.693   2.010   7.988
15598SOL    HW158422   3.768   1.950   7.983
15598SOL    HW258423   3.629   1.973   7.927
15599SOL     OW58424   2.596   2.965  10.678
15599SOL    HW158425   2.526   3.026  10.701
15599SOL    HW258426   2.677   3.016  10.687
15600SOL     OW58427   4.757   0.532   1.036
15600SOL    HW158428   4.676   0.491   1.065
15600SOL    HW258429   4.758   0.617   1.080
15601SOL     OW58430   2.344   2.475   1.149
15601SOL    HW158431   2.433   2.439   1.156
15601SOL    HW258432   2.319   2.496   1.239
15602SOL     OW58433   1.854   4.420   9.086
15602SOL    HW158434   1.882   4.468   9.164
15602SOL    HW258435   1.789   4.358   9.118
15603SOL     OW58436   2.064   3.787  17.933
15603SOL    HW158437   1.970   3.800  17.944
15603SOL    HW258438   2.075   3.768  17.840
15604SOL     OW58439   2.331   0.710   9.721
15604SOL    HW158440   2.349   0.802   9.742
15604SOL    HW258441   2.237   0.708   9.701
15605SOL     OW58442   3.511   3.771   8.334
15605SOL    HW158443   3.475   3.787   8.421
15605SOL    HW258444   3.528   3.858   8.299
15606SOL     OW58445   3.761   2.461  17.663
15606SOL    HW158446   3.722   2.461  17.750
15606SOL    HW258447   3.833   2.524  17.670
15607SOL     OW58448   3.056   2.052  19.358
15607SOL    HW158449   3.082   2.074  19.269
15607SOL    HW258450   3.056   2.136  19.404
15608SOL     OW58451   2.758   0.363  18.178
15608SOL    HW158452   2.817   0.294  18.209
15608SOL    HW258453   2.769   0.434  18.241
15609SOL     OW58454   1.364   4.149  20.360
15609SOL    HW158455   1.353   4.220  20.424
15609SOL    HW258456   1.332   4.071  20.405
15610SOL     OW58457   2.603   2.173   1.275
15610SOL    HW158458   2.511   2.160   1.297
15610SOL    HW258459   2.607   2.261   1.239
15611SOL     OW58460   0.746   4.408   6.791
15611SOL    HW158461   0.811   4.434   6.725
15611SOL    HW258462   0.793   4.412   6.874
15612SOL     OW58463   2.616   0.184   9.881
15612SOL    HW158464   2.610   0.279   9.867
15612SOL    HW258465   2.710   0.166   9.883
15613SOL     OW58466   0.350   1.954   5.567
15613SOL    HW158467   0.423   1.892   5.572
15613SOL    HW258468   0.314   1.941   5.479
15614SOL     OW58469   0.589   2.680   6.647
15614SOL    HW158470   0.499   2.671   6.680
15614SOL    HW258471   0.636   2.724   6.718
15615SOL     OW58472   1.932   1.609  26.434
15615SOL    HW158473   1.900   1.625  26.345
15615SOL    HW258474   2.003   1.672  26.446
15616SOL     OW58475   2.287   4.385   6.205
15616SOL    HW158476   2.263   4.477   6.193
15616SOL    HW258477   2.217   4.348   6.259
15617SOL     OW58478   3.708   1.688  20.128
15617SOL    HW158479   3.674   1.776  20.143
15617SOL    HW258480   3.649   1.650  20.063
15618SOL     OW58481   2.902   1.216   3.061
15618SOL    HW158482   2.837   1.147   3.072
15618SOL    HW258483   2.853   1.297   3.073
15619SOL     OW58484   1.760   2.840  10.052
15619SOL    HW158485   1.823   2.912  10.047
15619SOL    HW258486   1.801   2.769  10.003
15620SOL     OW58487   2.534   0.928  26.644
15620SOL    HW158488   2.507   0.972  26.724
15620SOL    HW258489   2.556   0.839  26.672
15621SOL     OW58490   3.207   3.635   0.530
15621SOL    HW158491   3.148   3.622   0.456
15621SOL    HW258492   3.243   3.548   0.548
15622SOL     OW58493   4.033   1.865  26.306
15622SOL    HW158494   4.120   1.838  26.276
15622SOL    HW258495   3.974   1.798  26.271
15623SOL     OW58496   3.643   3.130   7.154
15623SOL    HW158497   3.632   3.132   7.249
15623SOL    HW258498   3.654   3.037   7.133
15624SOL     OW58499   1.241   1.647   2.204
15624SOL    HW158500   1.300   1.574   2.224
15624SOL    HW258501   1.284   1.693   2.131
15625SOL     OW58502   1.227   2.107   7.145
15625SOL    HW158503   1.295   2.143   7.089
15625SOL    HW258504   1.145   2.130   7.102
15626SOL     OW58505   2.473   2.587  25.140
15626SOL    HW158506   2.423   2.548  25.068
15626SOL    HW258507   2.478   2.518  25.206
15627SOL     OW58508   2.231   3.564  22.949
15627SOL    HW158509   2.197   3.567  22.860
15627SOL    HW258510   2.324   3.543  22.938
15628SOL     OW58511   0.325   0.768  28.362
15628SOL    HW158512   0.354   0.705  28.429
15628SOL    HW258513   0.403   0.785  28.310
15629SOL     OW58514   2.705   4.754   7.199
15629SOL    HW158515   2.726   4.661   7.188
15629SOL    HW258516   2.749   4.779   7.280
15630SOL     OW58517   0.545   1.209  10.090
15630SOL    HW158518   0.575   1.148  10.022
15630SOL    HW258519   0.626   1.238  10.133
15631SOL     OW58520   0.723   0.423   8.060
15631SOL    HW158521   0.752   0.450   8.147
15631SOL    HW258522   0.649   0.480   8.041
15632SOL     OW58523   0.655   3.308  27.996
15632SOL    HW158524   0.594   3.379  28.016
15632SOL    HW258525   0.742   3.347  28.004
15633SOL     OW58526   1.040   3.422  22.146
15633SOL    HW158527   1.059   3.514  22.161
15633SOL    HW258528   1.083   3.376  22.218
15634SOL     OW58529   2.498   1.219  25.152
15634SOL    HW158530   2.515   1.268  25.071
15634SOL    HW258531   2.413   1.252  25.183
15635SOL     OW58532   4.335   2.295  27.879
15635SOL    HW158533   4.257   2.254  27.842
15635SOL    HW258534   4.377   2.338  27.804
15636SOL     OW58535   3.036   1.175  24.362
15636SOL    HW158536   3.008   1.133  24.280
15636SOL    HW258537   2.967   1.239  24.380
15637SOL     OW58538   4.670   3.665  11.101
15637SOL    HW158539   4.698   3.599  11.165
15637SOL    HW258540   4.575   3.668  11.109
15638SOL     OW58541   1.146   2.931  25.266
15638SOL    HW158542   1.222   2.898  25.218
15638SOL    HW258543   1.114   3.004  25.213
15639SOL     OW58544   1.265   0.420  22.140
15639SOL    HW158545   1.188   0.365  22.152
15639SOL    HW258546   1.327   0.389  22.206
15640SOL     OW58547   1.964   4.051  20.451
15640SOL    HW158548   1.981   3.967  20.408
15640SOL    HW258549   2.027   4.055  20.523
15641SOL     OW58550   2.658   2.914   0.588
15641SOL    HW158551   2.665   2.918   0.683
15641SOL    HW258552   2.583   2.857   0.572
15642SOL     OW58553   0.048   0.012  11.776
15642SOL    HW158554   4.747   4.779  11.826
15642SOL    HW258555   0.108   4.727  11.811
15643SOL     OW58556   2.222   4.279  24.175
15643SOL    HW158557   2.173   4.294  24.094
15643SOL    HW258558   2.298   4.337  24.167
15644SOL     OW58559   3.029   1.738  27.804
15644SOL    HW158560   3.097   1.794  27.842
15644SOL    HW258561   3.001   1.682  27.876
15645SOL     OW58562   2.921   1.157   4.423
15645SOL    HW158563   2.968   1.137   4.342
15645SOL    HW258564   2.836   1.189   4.394
15646SOL     OW58565   0.934   1.248  27.372
15646SOL    HW158566   0.839   1.248  27.360
15646SOL    HW258567   0.961   1.161  27.345
15647SOL     OW58568   0.070   1.739   6.528
15647SOL    HW158569   0.060   1.802   6.600
15647SOL    HW258570   0.061   1.653   6.570
15648SOL     OW58571   2.873   3.548   4.262
15648SOL    HW158572   2.926   3.541   4.341
15648SOL    HW258573   2.924   3.503   4.195
15649SOL     OW58574   3.653   0.804   6.587
15649SOL    HW158575   3.560   0.798   6.609
15649SOL    HW258576   3.689   0.866   6.650
15650SOL     OW58577   4.723   1.351  23.177
15650SOL    HW158578   4.750   1.336  23.086
15650SOL    HW258579   0.024   1.351  23.226
15651SOL     OW58580   1.715   0.894   8.188
15651SOL    HW158581   1.788   0.853   8.233
15651SOL    HW258582   1.637   0.857   8.229
15652SOL     OW58583   4.598   0.693  24.626
15652SOL    HW158584   4.539   0.768  24.615
15652SOL    HW258585   4.614   0.662  24.537
15653SOL     OW58586   1.852   3.092  22.426
15653SOL    HW158587   1.928   3.035  22.441
15653SOL    HW258588   1.816   3.062  22.343
15654SOL     OW58589   4.620   0.314  26.446
15654SOL    HW158590   4.711   0.336  26.425
15654SOL    HW258591   4.585   0.393  26.488
15655SOL     OW58592   2.816   2.228  20.007
15655SOL    HW158593   2.907   2.200  20.015
15655SOL    HW258594   2.779   2.172  19.938
15656SOL     OW58595   3.964   1.703  23.356
15656SOL    HW158596   3.869   1.696  23.368
15656SOL    HW258597   4.000   1.703  23.445
15657SOL     OW58598   0.163   2.963  22.131
15657SOL    HW158599   0.210   2.966  22.214
15657SOL    HW258600   0.149   3.055  22.109
15658SOL     OW58601   4.068   2.468  22.456
15658SOL    HW158602   3.993   2.412  22.476
15658SOL    HW258603   4.133   2.409  22.417
15659SOL     OW58604   0.196   4.124   2.408
15659SOL    HW158605   0.214   4.106   2.500
15659SOL    HW258606   0.283   4.131   2.368
15660SOL     OW58607   0.678   2.490  27.630
15660SOL    HW158608   0.687   2.584  27.648
15660SOL    HW258609   0.584   2.476  27.623
15661SOL     OW58610   1.853   3.775  20.620
15661SOL    HW158611   1.820   3.722  20.548
15661SOL    HW258612   1.799   3.854  20.618
15662SOL     OW58613   0.439   1.690  27.097
15662SOL    HW158614   0.390   1.663  27.175
15662SOL    HW258615   0.470   1.608  27.058
15663SOL     OW58616   2.915   3.343  10.155
15663SOL    HW158617   2.845   3.302  10.105
15663SOL    HW258618   2.907   3.436  10.135
15664SOL     OW58619   4.171   0.706   2.918
15664SOL    HW158620   4.246   0.756   2.949
15664SOL    HW258621   4.114   0.697   2.995
15665SOL     OW58622   1.094   3.467   6.132
15665SOL    HW158623   1.084   3.559   6.155
15665SOL    HW258624   1.125   3.425   6.213
15666SOL     OW58625   4.665   4.545   0.671
15666SOL    HW158626   4.661   4.629   0.716
15666SOL    HW258627   4.754   4.513   0.687
15667SOL     OW58628   1.148   4.112  24.723
15667SOL    HW158629   1.136   4.146  24.634
15667SOL    HW258630   1.077   4.151  24.774
15668SOL     OW58631   2.001   3.880  22.494
15668SOL    HW158632   1.912   3.868  22.528
15668SOL    HW258633   2.024   3.970  22.518
15669SOL     OW58634   2.884   1.061  25.039
15669SOL    HW158635   2.946   1.105  24.981
15669SOL    HW258636   2.802   1.059  24.990
15670SOL     OW58637   4.617   1.193  22.434
15670SOL    HW158638   4.532   1.151  22.446
15670SOL    HW258639   4.598   1.270  22.380
15671SOL     OW58640   2.070   2.846   9.979
15671SOL    HW158641   2.061   2.776   9.914
15671SOL    HW258642   2.121   2.913   9.934
15672SOL     OW58643   3.611   4.597   8.052
15672SOL    HW158644   3.554   4.659   8.006
15672SOL    HW258645   3.583   4.511   8.022
15673SOL     OW58646   3.384   3.505  24.381
15673SOL    HW158647   3.387   3.437  24.448
15673SOL    HW258648   3.297   3.497  24.341
15674SOL     OW58649   3.738   3.767  20.572
15674SOL    HW158650   3.668   3.778  20.636
15674SOL    HW258651   3.694   3.775  20.487
15675SOL     OW58652   2.593   1.963   2.735
15675SOL    HW158653   2.506   1.939   2.768
15675SOL    HW258654   2.592   2.059   2.730
15676SOL     OW58655   2.765   2.075   6.666
15676SOL    HW158656   2.775   2.035   6.752
15676SOL    HW258657   2.757   2.169   6.684
15677SOL     OW58658   3.046   4.061  28.340
15677SOL    HW158659   3.130   4.104  28.327
15677SOL    HW258660   3.024   4.077  28.432
15678SOL     OW58661   1.429   2.463   8.717
15678SOL    HW158662   1.452   2.370   8.713
15678SOL    HW258663   1.392   2.482   8.631
15679SOL     OW58664   0.622   4.389  25.251
15679SOL    HW158665   0.659   4.476  25.264
15679SOL    HW258666   0.696   4.330  25.267
15680SOL     OW58667   4.252   4.011   7.100
15680SOL    HW158668   4.338   3.971   7.092
15680SOL    HW258669   4.219   4.016   7.010
15681SOL     OW58670   2.668   3.966  24.688
15681SOL    HW158671   2.581   3.977  24.649
15681SOL    HW258672   2.720   3.924  24.620
15682SOL     OW58673   0.865   1.255  25.333
15682SOL    HW158674   0.804   1.184  25.353
15682SOL    HW258675   0.809   1.326  25.300
15683SOL     OW58676   2.942   4.416  28.202
15683SOL    HW158677   2.899   4.370  28.130
15683SOL    HW258678   3.014   4.464  28.161
15684SOL     OW58679   4.705   3.950  19.337
15684SOL    HW158680   4.647   3.885  19.297
15684SOL    HW258681   4.751   3.991  19.264
15685SOL     OW58682   1.749   1.110   0.051
15685SOL    HW158683   1.754   1.111   0.147
15685SOL    HW258684   1.667   1.154   0.031
15686SOL     OW58685   3.444   3.828  25.025
15686SOL    HW158686   3.490   3.745  25.035
15686SOL    HW258687   3.482   3.868  24.947
15687SOL     OW58688   0.728   3.563  18.619
15687SOL    HW158689   0.673   3.636  18.646
15687SOL    HW258690   0.790   3.551  18.691
15688SOL     OW58691   2.720   0.092   0.665
15688SOL    HW158692   2.729   0.176   0.619
15688SOL    HW258693   2.629   0.091   0.696
15689SOL     OW58694   4.461   2.840  27.714
15689SOL    HW158695   4.483   2.912  27.654
15689SOL    HW258696   4.524   2.849  27.786
15690SOL     OW58697   1.383   4.714  26.763
15690SOL    HW158698   1.325   4.651  26.721
15690SOL    HW258699   1.439   4.746  26.692
15691SOL     OW58700   4.634   2.709  27.212
15691SOL    HW158701   4.703   2.744  27.269
15691SOL    HW258702   4.643   2.614  27.221
15692SOL     OW58703   0.419   0.895   3.194
15692SOL    HW158704   0.483   0.877   3.263
15692SOL    HW258705   0.347   0.939   3.239
15693SOL     OW58706   0.965   3.222   6.537
15693SOL    HW158707   0.991   3.296   6.482
15693SOL    HW258708   0.963   3.147   6.478
15694SOL     OW58709   3.947   3.597  26.744
15694SOL    HW158710   3.952   3.673  26.802
15694SOL    HW258711   3.924   3.524  26.801
15695SOL     OW58712   1.505   2.991  24.943
15695SOL    HW158713   1.511   3.048  25.020
15695SOL    HW258714   1.595   2.961  24.929
15696SOL     OW58715   2.550   0.837  25.933
15696SOL    HW158716   2.612   0.863  25.864
15696SOL    HW258717   2.605   0.800  26.002
15697SOL     OW58718   4.652   3.977  10.307
15697SOL    HW158719   4.647   3.907  10.372
15697SOL    HW258720   4.712   4.041  10.345
15698SOL     OW58721   3.222   1.475   5.759
15698SOL    HW158722   3.139   1.460   5.713
15698SOL    HW258723   3.275   1.525   5.697
15699SOL     OW58724   0.863   0.272  21.565
15699SOL    HW158725   0.780   0.316  21.583
15699SOL    HW258726   0.854   0.186  21.606
15700SOL     OW58727   2.221   0.155   6.427
15700SOL    HW158728   2.289   0.162   6.360
15700SOL    HW258729   2.225   0.238   6.475
15701SOL     OW58730   3.445   0.410   3.519
15701SOL    HW158731   3.469   0.486   3.571
15701SOL    HW258732   3.528   0.369   3.497
15702SOL     OW58733   0.173   0.182   9.621
15702SOL    HW158734   0.136   0.098   9.594
15702SOL    HW258735   0.159   0.240   9.546
15703SOL     OW58736   2.871   2.024   7.612
15703SOL    HW158737   2.959   2.060   7.604
15703SOL    HW258738   2.838   2.060   7.694
15704SOL     OW58739   3.026   3.688   3.099
15704SOL    HW158740   2.972   3.622   3.143
15704SOL    HW258741   2.982   3.771   3.119
15705SOL     OW58742   2.541   1.760  27.122
15705SOL    HW158743   2.613   1.712  27.163
15705SOL    HW258744   2.516   1.826  27.187
15706SOL     OW58745   4.162   2.676  21.066
15706SOL    HW158746   4.141   2.601  21.011
15706SOL    HW258747   4.240   2.649  21.114
15707SOL     OW58748   3.833   0.723  26.088
15707SOL    HW158749   3.870   0.662  26.152
15707SOL    HW258750   3.880   0.704  26.007
15708SOL     OW58751   4.473   3.731  19.213
15708SOL    HW158752   4.452   3.644  19.246
15708SOL    HW258753   4.514   3.715  19.128
15709SOL     OW58754   1.004   2.401   0.351
15709SOL    HW158755   0.911   2.408   0.373
15709SOL    HW258756   1.013   2.449   0.269
15710SOL     OW58757   2.214   3.147  24.063
15710SOL    HW158758   2.139   3.193  24.025
15710SOL    HW258759   2.207   3.058  24.029
15711SOL     OW58760   2.353   1.540   9.456
15711SOL    HW158761   2.324   1.495   9.536
15711SOL    HW258762   2.447   1.553   9.468
15712SOL     OW58763   1.540   0.022  24.407
15712SOL    HW158764   1.611   4.756  24.363
15712SOL    HW258765   1.554   0.114  24.385
15713SOL     OW58766   0.167   1.461  10.248
15713SOL    HW158767   0.231   1.497  10.310
15713SOL    HW258768   0.219   1.409  10.187
15714SOL     OW58769   3.122   2.393  24.122
15714SOL    HW158770   3.044   2.337  24.118
15714SOL    HW258771   3.176   2.364  24.048
15715SOL     OW58772   1.275   1.142  26.875
15715SOL    HW158773   1.334   1.203  26.831
15715SOL    HW258774   1.210   1.198  26.917
15716SOL     OW58775   4.446   4.250  26.791
15716SOL    HW158776   4.470   4.336  26.758
15716SOL    HW258777   4.366   4.265  26.841
15717SOL     OW58778   4.012   4.217  23.591
15717SOL    HW158779   4.072   4.187  23.660
15717SOL    HW258780   4.037   4.166  23.514
15718SOL     OW58781   3.970   4.559   3.496
15718SOL    HW158782   3.917   4.631   3.461
15718SOL    HW258783   4.059   4.578   3.467
15719SOL     OW58784   1.800   1.558  23.441
15719SOL    HW158785   1.849   1.555  23.523
15719SOL    HW258786   1.737   1.629  23.454
15720SOL     OW58787   1.187   2.670  27.365
15720SOL    HW158788   1.131   2.716  27.303
15720SOL    HW258789   1.271   2.716  27.360
15721SOL     OW58790   3.121   1.152  10.586
15721SOL    HW158791   3.094   1.244  10.591
15721SOL    HW258792   3.039   1.102  10.591
15722SOL     OW58793   4.755   0.388   9.504
15722SOL    HW158794   4.757   0.473   9.460
15722SOL    HW258795   4.739   0.408   9.596
15723SOL     OW58796   4.476   3.188  25.916
15723SOL    HW158797   4.443   3.165  25.829
15723SOL    HW258798   4.421   3.261  25.945
15724SOL     OW58799   0.110   0.895   7.068
15724SOL    HW158800   0.154   0.962   7.120
15724SOL    HW258801   0.077   0.833   7.133
15725SOL     OW58802   4.315   0.332   1.641
15725SOL    HW158803   4.272   0.336   1.556
15725SOL    HW258804   4.260   0.273   1.693
15726SOL     OW58805   1.672   0.801  27.668
15726SOL    HW158806   1.607   0.804  27.598
15726SOL    HW258807   1.670   0.889  27.706
15727SOL     OW58808   3.677   0.699   0.047
15727SOL    HW158809   3.719   0.785   0.038
15727SOL    HW258810   3.672   0.665  28.477
15728SOL     OW58811   1.635   2.779  27.579
15728SOL    HW158812   1.693   2.744  27.511
15728SOL    HW258813   1.556   2.805  27.532
15729SOL     OW58814   2.687   3.844  27.141
15729SOL    HW158815   2.653   3.922  27.097
15729SOL    HW258816   2.782   3.849  27.129
15730SOL     OW58817   0.129   3.262  26.574
15730SOL    HW158818   0.053   3.303  26.616
15730SOL    HW258819   0.190   3.334  26.559
15731SOL     OW58820   3.169   2.693  24.369
15731SOL    HW158821   3.124   2.756  24.426
15731SOL    HW258822   3.254   2.679  24.411
15732SOL     OW58823   2.525   2.789  25.768
15732SOL    HW158824   2.491   2.876  25.789
15732SOL    HW258825   2.620   2.801  25.766
15733SOL     OW58826   0.662   3.877   5.328
15733SOL    HW158827   0.577   3.921   5.334
15733SOL    HW258828   0.644   3.787   5.356
15734SOL     OW58829   4.251   2.354  18.976
15734SOL    HW158830   4.178   2.372  19.035
15734SOL    HW258831   4.254   2.430  18.918
15735SOL     OW58832   0.832   4.288  23.177
15735SOL    HW158833   0.901   4.265  23.239
15735SOL    HW258834   0.767   4.219  23.187
15736SOL     OW58835   1.055   0.854   1.058
15736SOL    HW158836   1.004   0.893   0.987
15736SOL    HW258837   1.109   0.788   1.015
15737SOL     OW58838   1.422   4.358   3.011
15737SOL    HW158839   1.384   4.428   2.958
15737SOL    HW258840   1.493   4.401   3.059
15738SOL     OW58841   4.537   1.901   2.919
15738SOL    HW158842   4.586   1.826   2.953
15738SOL    HW258843   4.446   1.884   2.944
15739SOL     OW58844   4.727   3.353  22.984
15739SOL    HW158845   4.692   3.381  23.069
15739SOL    HW258846   4.745   3.435  22.938
15740SOL     OW58847   1.760   0.438  12.975
15740SOL    HW158848   1.828   0.501  12.999
15740SOL    HW258849   1.777   0.418  12.883
15741SOL     OW58850   1.975   4.699  19.981
15741SOL    HW158851   2.025   4.638  20.036
15741SOL    HW258852   2.005   4.681  19.892
15742SOL     OW58853   4.509   1.839  25.103
15742SOL    HW158854   4.480   1.922  25.066
15742SOL    HW258855   4.520   1.781  25.027
15743SOL     OW58856   2.953   0.012  18.026
15743SOL    HW158857   2.913   4.709  18.001
15743SOL    HW258858   3.038   0.012  17.982
15744SOL     OW58859   2.674   0.962  28.053
15744SOL    HW158860   2.612   0.968  28.125
15744SOL    HW258861   2.751   1.010  28.083
15745SOL     OW58862   2.324   1.655   8.326
15745SOL    HW158863   2.279   1.650   8.410
15745SOL    HW258864   2.417   1.646   8.348
15746SOL     OW58865   3.961   2.932   2.607
15746SOL    HW158866   4.028   2.894   2.665
15746SOL    HW258867   3.926   2.857   2.559
15747SOL     OW58868   2.034   3.069  20.069
15747SOL    HW158869   2.123   3.074  20.033
15747SOL    HW258870   2.029   2.982  20.109
15748SOL     OW58871   1.595   1.460   3.332
15748SOL    HW158872   1.593   1.512   3.252
15748SOL    HW258873   1.586   1.370   3.302
15749SOL     OW58874   4.066   3.076  24.527
15749SOL    HW158875   4.025   3.045  24.446
15749SOL    HW258876   4.157   3.048  24.519
15750SOL     OW58877   2.391   2.648   0.263
15750SOL    HW158878   2.309   2.680   0.226
15750SOL    HW258879   2.450   2.640   0.188
15751SOL     OW58880   0.798   1.119   6.156
15751SOL    HW158881   0.871   1.153   6.208
15751SOL    HW258882   0.810   1.024   6.157
15752SOL     OW58883   1.348   4.032   7.475
15752SOL    HW158884   1.407   3.983   7.532
15752SOL    HW258885   1.370   4.124   7.491
15753SOL     OW58886   3.256   0.119  25.859
15753SOL    HW158887   3.230   0.086  25.773
15753SOL    HW258888   3.346   0.150  25.847
15754SOL     OW58889   3.006   2.020  28.083
15754SOL    HW158890   2.958   2.103  28.079
15754SOL    HW258891   2.969   1.974  28.158
15755SOL     OW58892   2.333   1.836  21.172
15755SOL    HW158893   2.327   1.745  21.142
15755SOL    HW258894   2.271   1.841  21.245
15756SOL     OW58895   2.622   2.478   1.189
15756SOL    HW158896   2.658   2.536   1.256
15756SOL    HW258897   2.698   2.431   1.155
15757SOL     OW58898   4.526   3.901  28.392
15757SOL    HW158899   4.552   3.986  28.355
15757SOL    HW258900   4.485   3.923  28.476
15758SOL     OW58901   4.542   3.548  22.753
15758SOL    HW158902   4.508   3.551  22.843
15758SOL    HW258903   4.628   3.589  22.758
15759SOL     OW58904   0.340   1.569   5.819
15759SOL    HW158905   0.283   1.646   5.817
15759SOL    HW258906   0.281   1.496   5.838
15760SOL     OW58907   4.271   3.051  24.299
15760SOL    HW158908   4.179   3.056  24.272
15760SOL    HW258909   4.304   2.970  24.260
15761SOL     OW58910   1.390   0.094  26.067
15761SOL    HW158911   1.358   0.044  25.992
15761SOL    HW258912   1.435   0.030  26.122
15762SOL     OW58913   0.053   2.868  27.585
15762SOL    HW158914   0.065   2.902  27.674
15762SOL    HW258915   0.060   2.773  27.594
15763SOL     OW58916   3.439   4.470  23.460
15763SOL    HW158917   3.447   4.378  23.436
15763SOL    HW258918   3.522   4.490  23.503
15764SOL     OW58919   0.498   3.009   1.678
15764SOL    HW158920   0.456   2.931   1.714
15764SOL    HW258921   0.535   3.053   1.754
15765SOL     OW58922   4.752   3.781   0.411
15765SOL    HW158923   4.725   3.744   0.495
15765SOL    HW258924   0.024   3.858   0.434
15766SOL     OW58925   2.239   3.899   6.204
15766SOL    HW158926   2.164   3.844   6.181
15766SOL    HW258927   2.251   3.957   6.129
15767SOL     OW58928   2.917   1.899  18.859
15767SOL    HW158929   2.979   1.826  18.859
15767SOL    HW258930   2.952   1.960  18.794
15768SOL     OW58931   1.866   1.853   3.192
15768SOL    HW158932   1.959   1.870   3.177
15768SOL    HW258933   1.828   1.939   3.208
15769SOL     OW58934   0.731   3.346  25.635
15769SOL    HW158935   0.796   3.413  25.655
15769SOL    HW258936   0.727   3.292  25.714
15770SOL     OW58937   2.008   3.782   8.993
15770SOL    HW158938   2.092   3.740   9.013
15770SOL    HW258939   2.019   3.873   9.021
15771SOL     OW58940   0.449   1.575  25.891
15771SOL    HW158941   0.521   1.629  25.859
15771SOL    HW258942   0.391   1.636  25.936
15772SOL     OW58943   0.667   4.247   4.645
15772SOL    HW158944   0.577   4.246   4.679
15772SOL    HW258945   0.719   4.281   4.718
15773SOL     OW58946   0.636   3.264   7.658
15773SOL    HW158947   0.721   3.230   7.685
15773SOL    HW258948   0.651   3.358   7.644
15774SOL     OW58949   4.723   0.401   5.922
15774SOL    HW158950   4.703   0.495   5.922
15774SOL    HW258951   4.727   0.377   6.015
15775SOL     OW58952   1.443   0.085  26.527
15775SOL    HW158953   1.507   0.153  26.509
15775SOL    HW258954   1.358   0.129  26.518
15776SOL     OW58955   2.059   1.707   7.377
15776SOL    HW158956   2.053   1.650   7.454
15776SOL    HW258957   2.105   1.654   7.311
15777SOL     OW58958   3.835   1.461  24.477
15777SOL    HW158959   3.894   1.394  24.443
15777SOL    HW258960   3.834   1.446  24.572
15778SOL     OW58961   2.487   3.124  25.848
15778SOL    HW158962   2.494   3.088  25.760
15778SOL    HW258963   2.526   3.211  25.841
15779SOL     OW58964   4.304   1.193   5.587
15779SOL    HW158965   4.378   1.139   5.614
15779SOL    HW258966   4.320   1.210   5.494
15780SOL     OW58967   2.695   0.331   5.152
15780SOL    HW158968   2.627   0.327   5.085
15780SOL    HW258969   2.739   0.414   5.136
15781SOL     OW58970   3.520   2.988   5.629
15781SOL    HW158971   3.565   3.003   5.712
15781SOL    HW258972   3.570   2.918   5.587
15782SOL     OW58973   2.726   2.702  20.221
15782SOL    HW158974   2.788   2.760  20.176
15782SOL    HW258975   2.729   2.620  20.172
15783SOL     OW58976   0.374   1.377  26.671
15783SOL    HW158977   0.427   1.405  26.596
15783SOL    HW258978   0.291   1.348  26.632
15784SOL     OW58979   0.612   4.208  11.791
15784SOL    HW158980   0.630   4.163  11.873
15784SOL    HW258981   0.539   4.160  11.752
15785SOL     OW58982   3.275   1.811   1.104
15785SOL    HW158983   3.342   1.810   1.172
15785SOL    HW258984   3.314   1.862   1.033
15786SOL     OW58985   0.330   4.132   6.426
15786SOL    HW158986   0.389   4.173   6.489
15786SOL    HW258987   0.385   4.071   6.377
15787SOL     OW58988   3.170   2.406  24.371
15787SOL    HW158989   3.163   2.501  24.383
15787SOL    HW258990   3.141   2.391  24.281
15788SOL     OW58991   0.800   0.381  20.244
15788SOL    HW158992   0.846   0.429  20.313
15788SOL    HW258993   0.713   0.364  20.281
15789SOL     OW58994   0.499   3.384  27.459
15789SOL    HW158995   0.432   3.446  27.430
15789SOL    HW258996   0.449   3.308  27.488
15790SOL     OW58997   3.847   2.085  19.438
15790SOL    HW158998   3.940   2.088  19.459
15790SOL    HW258999   3.833   1.997  19.404
15791SOL     OW59000   0.977   0.954  26.742
15791SOL    HW159001   1.052   0.908  26.780
15791SOL    HW259002   0.907   0.942  26.806
15792SOL     OW59003   0.490   2.912   6.953
15792SOL    HW159004   0.458   2.915   7.043
15792SOL    HW259005   0.579   2.878   6.960
15793SOL     OW59006   2.727   1.892   6.222
15793SOL    HW159007   2.762   1.834   6.154
15793SOL    HW259008   2.699   1.833   6.292
15794SOL     OW59009   3.899   2.325   2.898
15794SOL    HW159010   3.890   2.312   2.992
15794SOL    HW259011   3.949   2.249   2.868
15795SOL     OW59012   0.985   0.474  20.971
15795SOL    HW159013   0.923   0.546  20.962
15795SOL    HW259014   0.956   0.428  21.050
15796SOL     OW59015   1.314   4.144  27.749
15796SOL    HW159016   1.291   4.053  27.730
15796SOL    HW259017   1.315   4.187  27.664
15797SOL     OW59018   0.052   0.763  20.135
15797SOL    HW159019   4.770   0.725  20.073
15797SOL    HW259020   0.012   0.846  20.162
15798SOL     OW59021   0.781   4.298   3.573
15798SOL    HW159022   0.736   4.381   3.556
15798SOL    HW259023   0.711   4.237   3.598
15799SOL     OW59024   0.463   0.856   0.621
15799SOL    HW159025   0.384   0.902   0.594
15799SOL    HW259026   0.533   0.921   0.613
15800SOL     OW59027   0.360   3.280  20.702
15800SOL    HW159028   0.314   3.199  20.725
15800SOL    HW259029   0.404   3.261  20.619
15801SOL     OW59030   3.065   0.886   5.448
15801SOL    HW159031   3.097   0.799   5.425
15801SOL    HW259032   3.078   0.892   5.543
15802SOL     OW59033   0.731   0.353  24.849
15802SOL    HW159034   0.783   0.406  24.788
15802SOL    HW259035   0.641   0.363  24.818
15803SOL     OW59036   2.469   2.493  23.375
15803SOL    HW159037   2.407   2.435  23.331
15803SOL    HW259038   2.483   2.565  23.314
15804SOL     OW59039   2.788   0.540  11.724
15804SOL    HW159040   2.794   0.474  11.655
15804SOL    HW259041   2.822   0.620  11.684
15805SOL     OW59042   0.645   2.840   5.298
15805SOL    HW159043   0.589   2.840   5.220
15805SOL    HW259044   0.585   2.825   5.371
15806SOL     OW59045   3.529   3.809   9.605
15806SOL    HW159046   3.532   3.827   9.699
15806SOL    HW259047   3.571   3.724   9.596
15807SOL     OW59048   4.276   0.683  21.936
15807SOL    HW159049   4.182   0.679  21.954
15807SOL    HW259050   4.310   0.746  22.000
15808SOL     OW59051   2.509   2.247   7.257
15808SOL    HW159052   2.452   2.323   7.247
15808SOL    HW259053   2.459   2.174   7.220
15809SOL     OW59054   3.070   2.588   4.806
15809SOL    HW159055   2.980   2.560   4.820
15809SOL    HW259056   3.108   2.590   4.894
15810SOL     OW59057   4.103   0.081   8.374
15810SOL    HW159058   4.046   0.099   8.299
15810SOL    HW259059   4.055   0.115   8.450
15811SOL     OW59060   4.334   4.527   9.755
15811SOL    HW159061   4.374   4.444   9.728
15811SOL    HW259062   4.345   4.585   9.679
15812SOL     OW59063   1.033   2.185  21.358
15812SOL    HW159064   1.087   2.193  21.280
15812SOL    HW259065   1.093   2.153  21.425
15813SOL     OW59066   1.290   2.642  25.057
15813SOL    HW159067   1.283   2.733  25.086
15813SOL    HW259068   1.298   2.647  24.962
15814SOL     OW59069   0.090   3.628  22.036
15814SOL    HW159070   0.177   3.601  22.007
15814SOL    HW259071   0.046   3.658  21.956
15815SOL     OW59072   0.761   4.736  27.824
15815SOL    HW159073   0.813   4.729  27.904
15815SOL    HW259074   0.812   0.012  27.767
15816SOL     OW59075   4.297   3.480  27.624
15816SOL    HW159076   4.281   3.567  27.660
15816SOL    HW259077   4.347   3.496  27.544
15817SOL     OW59078   2.369   4.521   3.140
15817SOL    HW159079   2.355   4.609   3.176
15817SOL    HW259080   2.422   4.477   3.206
15818SOL     OW59081   0.179   2.361   3.086
15818SOL    HW159082   0.226   2.433   3.044
15818SOL    HW259083   0.116   2.332   3.020
15819SOL     OW59084   4.254   1.600  26.148
15819SOL    HW159085   4.209   1.537  26.091
15819SOL    HW259086   4.308   1.652  26.088
15820SOL     OW59087   1.161   1.225  23.165
15820SOL    HW159088   1.121   1.214  23.251
15820SOL    HW259089   1.255   1.215  23.181
15821SOL     OW59090   2.945   3.204  19.847
15821SOL    HW159091   2.935   3.237  19.936
15821SOL    HW259092   2.901   3.119  19.847
15822SOL     OW59093   4.388   1.054  27.566
15822SOL    HW159094   4.469   1.053  27.514
15822SOL    HW259095   4.369   1.147  27.577
15823SOL     OW59096   2.820   3.305  24.339
15823SOL    HW159097   2.852   3.282  24.426
15823SOL    HW259098   2.771   3.386  24.352
15824SOL     OW59099   1.131   0.954   7.241
15824SOL    HW159100   1.073   1.030   7.249
15824SOL    HW259101   1.127   0.931   7.148
15825SOL     OW59102   4.437   4.301   7.337
15825SOL    HW159103   4.459   4.222   7.386
15825SOL    HW259104   4.522   4.343   7.321
15826SOL     OW59105   0.962   0.624  13.320
15826SOL    HW159106   1.001   0.679  13.387
15826SOL    HW259107   1.025   0.554  13.306
15827SOL     OW59108   0.219   1.821  25.635
15827SOL    HW159109   0.213   1.903  25.684
15827SOL    HW259110   0.303   1.827  25.590
15828SOL     OW59111   0.040   2.156   2.296
15828SOL    HW159112   4.734   2.171   2.334
15828SOL    HW259113   0.099   2.149   2.371
15829SOL     OW59114   3.475   1.116  24.696
15829SOL    HW159115   3.433   1.035  24.726
15829SOL    HW259116   3.409   1.184  24.709
15830SOL     OW59117   4.742   0.689  23.364
15830SOL    HW159118   4.647   0.700  23.365
15830SOL    HW259119   4.771   0.729  23.446
15831SOL     OW59120   1.974   4.571  20.645
15831SOL    HW159121   2.054   4.611  20.611
15831SOL    HW259122   2.002   4.485  20.677
15832SOL     OW59123   1.365   0.380   6.688
15832SOL    HW159124   1.407   0.355   6.606
15832SOL    HW259125   1.374   0.475   6.692
15833SOL     OW59126   3.272   2.570   0.206
15833SOL    HW159127   3.300   2.592   0.295
15833SOL    HW259128   3.196   2.514   0.218
15834SOL     OW59129   3.851   2.909  23.463
15834SOL    HW159130   3.808   2.905  23.377
15834SOL    HW259131   3.907   2.986  23.458
15835SOL     OW59132   0.109   3.084   5.846
15835SOL    HW159133   0.150   3.002   5.874
15835SOL    HW259134   0.054   3.111   5.920
15836SOL     OW59135   0.424   0.035   3.864
15836SOL    HW159136   0.377   0.042   3.781
15836SOL    HW259137   0.490   0.104   3.859
15837SOL     OW59138   4.228   0.289   9.254
15837SOL    HW159139   4.321   0.280   9.232
15837SOL    HW259140   4.221   0.258   9.344
15838SOL     OW59141   3.541   3.480   3.284
15838SOL    HW159142   3.495   3.396   3.279
15838SOL    HW259143   3.471   3.546   3.283
15839SOL     OW59144   0.810   2.611   8.750
15839SOL    HW159145   0.721   2.606   8.786
15839SOL    HW259146   0.866   2.577   8.819
15840SOL     OW59147   0.503   3.046  21.942
15840SOL    HW159148   0.597   3.031  21.947
15840SOL    HW259149   0.465   2.960  21.923
15841SOL     OW59150   0.745   2.295   5.094
15841SOL    HW159151   0.747   2.277   5.188
15841SOL    HW259152   0.754   2.209   5.053
15842SOL     OW59153   1.617   3.719   0.519
15842SOL    HW159154   1.696   3.769   0.500
15842SOL    HW259155   1.547   3.764   0.472
15843SOL     OW59156   3.500   1.780   8.481
15843SOL    HW159157   3.436   1.799   8.413
15843SOL    HW259158   3.583   1.812   8.445
15844SOL     OW59159   1.283   2.238   4.386
15844SOL    HW159160   1.245   2.200   4.307
15844SOL    HW259161   1.228   2.314   4.405
15845SOL     OW59162   0.280   3.651  24.193
15845SOL    HW159163   0.309   3.740  24.215
15845SOL    HW259164   0.243   3.659  24.105
15846SOL     OW59165   1.536   2.181   5.059
15846SOL    HW159166   1.555   2.248   5.125
15846SOL    HW259167   1.487   2.114   5.106
15847SOL     OW59168   4.572   0.330   7.887
15847SOL    HW159169   4.490   0.280   7.884
15847SOL    HW259170   4.598   0.326   7.979
15848SOL     OW59171   1.148   2.064  21.558
15848SOL    HW159172   1.208   2.093  21.627
15848SOL    HW259173   1.182   1.979  21.530
15849SOL     OW59174   1.990   0.095   8.999
15849SOL    HW159175   2.085   0.086   8.998
15849SOL    HW259176   1.957   0.009   8.972
15850SOL     OW59177   1.153   0.864  25.017
15850SOL    HW159178   1.122   0.893  25.103
15850SOL    HW259179   1.246   0.888  25.015
15851SOL     OW59180   1.384   0.858  28.335
15851SOL    HW159181   1.461   0.812  28.369
15851SOL    HW259182   1.356   0.805  28.261
15852SOL     OW59183   2.354   2.148  22.363
15852SOL    HW159184   2.354   2.234  22.406
15852SOL    HW259185   2.401   2.162  22.281
15853SOL     OW59186   4.183   3.816   1.272
15853SOL    HW159187   4.109   3.756   1.285
15853SOL    HW259188   4.237   3.773   1.205
15854SOL     OW59189   4.507   1.322   0.344
15854SOL    HW159190   4.496   1.267   0.421
15854SOL    HW259191   4.490   1.411   0.375
15855SOL     OW59192   2.236   0.114   8.584
15855SOL    HW159193   2.243   0.019   8.595
15855SOL    HW259194   2.154   0.137   8.627
15856SOL     OW59195   2.831   4.565  12.644
15856SOL    HW159196   2.817   4.505  12.717
15856SOL    HW259197   2.920   4.598  12.656
15857SOL     OW59198   3.864   2.140   5.704
15857SOL    HW159199   3.805   2.133   5.629
15857SOL    HW259200   3.814   2.189   5.769
15858SOL     OW59201   2.019   3.441   6.169
15858SOL    HW159202   1.940   3.471   6.215
15858SOL    HW259203   2.066   3.389   6.234
15859SOL     OW59204   3.148   2.706   7.235
15859SOL    HW159205   3.211   2.636   7.251
15859SOL    HW259206   3.179   2.749   7.156
15860SOL     OW59207   4.099   0.381  24.105
15860SOL    HW159208   4.061   0.316  24.046
15860SOL    HW259209   4.193   0.361  24.105
15861SOL     OW59210   4.413   1.927  11.745
15861SOL    HW159211   4.324   1.961  11.742
15861SOL    HW259212   4.417   1.862  11.674
15862SOL     OW59213   4.566   0.517  20.096
15862SOL    HW159214   4.633   0.458  20.130
15862SOL    HW259215   4.594   0.536  20.006
15863SOL     OW59216   0.575   4.439  25.752
15863SOL    HW159217   0.488   4.473  25.774
15863SOL    HW259218   0.568   4.413  25.660
15864SOL     OW59219   2.944   2.925  10.964
15864SOL    HW159220   2.975   2.956  10.879
15864SOL    HW259221   3.017   2.875  11.000
15865SOL     OW59222   1.593   2.545  20.862
15865SOL    HW159223   1.529   2.480  20.833
15865SOL    HW259224   1.582   2.618  20.801
15866SOL     OW59225   0.016   0.675   4.903
15866SOL    HW159226   0.028   0.763   4.939
15866SOL    HW259227   0.082   0.669   4.834
15867SOL     OW59228   3.110   4.276   2.369
15867SOL    HW159229   3.036   4.226   2.335
15867SOL    HW259230   3.112   4.255   2.462
15868SOL     OW59231   1.897   3.028   5.690
15868SOL    HW159232   1.938   3.003   5.773
15868SOL    HW259233   1.847   3.107   5.711
15869SOL     OW59234   4.736   4.592   8.070
15869SOL    HW159235   0.027   4.651   8.093
15869SOL    HW259236   4.714   4.615   7.980
15870SOL     OW59237   1.667   2.462   8.154
15870SOL    HW159238   1.586   2.502   8.186
15870SOL    HW259239   1.714   2.436   8.233
15871SOL     OW59240   3.359   3.846   0.641
15871SOL    HW159241   3.318   3.771   0.599
15871SOL    HW259242   3.287   3.894   0.681
15872SOL     OW59243   0.913   1.864   6.950
15872SOL    HW159244   0.976   1.915   7.001
15872SOL    HW259245   0.955   1.853   6.865
15873SOL     OW59246   0.259   1.912  24.713
15873SOL    HW159247   0.169   1.920  24.745
15873SOL    HW259248   0.269   1.985  24.653
15874SOL     OW59249   3.438   3.650   9.133
15874SOL    HW159250   3.526   3.616   9.116
15874SOL    HW259251   3.381   3.573   9.128
15875SOL     OW59252   0.221   3.412   5.456
15875SOL    HW159253   0.160   3.349   5.418
15875SOL    HW259254   0.242   3.376   5.542
15876SOL     OW59255   3.536   4.127  24.599
15876SOL    HW159256   3.576   4.212  24.617
15876SOL    HW259257   3.497   4.136  24.512
15877SOL     OW59258   3.043   4.529  23.247
15877SOL    HW159259   3.056   4.623  23.259
15877SOL    HW259260   3.051   4.516  23.152
15878SOL     OW59261   0.866   1.874  24.285
15878SOL    HW159262   0.881   1.812  24.357
15878SOL    HW259263   0.943   1.864  24.229
15879SOL     OW59264   0.640   3.519   0.930
15879SOL    HW159265   0.698   3.508   0.855
15879SOL    HW259266   0.658   3.608   0.961
15880SOL     OW59267   2.628   2.661   8.263
15880SOL    HW159268   2.654   2.570   8.247
15880SOL    HW259269   2.645   2.674   8.356
15881SOL     OW59270   0.431   3.655  11.765
15881SOL    HW159271   0.353   3.705  11.790
15881SOL    HW259272   0.442   3.590  11.835
15882SOL     OW59273   2.502   3.412   0.779
15882SOL    HW159274   2.514   3.489   0.834
15882SOL    HW259275   2.590   3.376   0.769
15883SOL     OW59276   3.484   0.695   3.588
15883SOL    HW159277   3.394   0.729   3.584
15883SOL    HW259278   3.517   0.725   3.673
15884SOL     OW59279   0.146   1.866   8.973
15884SOL    HW159280   0.067   1.812   8.981
15884SOL    HW259281   0.127   1.945   9.024
15885SOL     OW59282   4.337   3.212  22.918
15885SOL    HW159283   4.300   3.284  22.969
15885SOL    HW259284   4.425   3.242  22.895
15886SOL     OW59285   3.619   0.899   6.266
15886SOL    HW159286   3.712   0.875   6.264
15886SOL    HW259287   3.610   0.953   6.344
15887SOL     OW59288   2.547   2.702  18.634
15887SOL    HW159289   2.587   2.789  18.635
15887SOL    HW259290   2.459   2.717  18.601
15888SOL     OW59291   2.759   0.868   2.509
15888SOL    HW159292   2.682   0.900   2.557
15888SOL    HW259293   2.723   0.811   2.441
15889SOL     OW59294   0.461   4.371  19.853
15889SOL    HW159295   0.404   4.309  19.899
15889SOL    HW259296   0.519   4.405  19.921
15890SOL     OW59297   2.176   1.124   7.759
15890SOL    HW159298   2.124   1.132   7.679
15890SOL    HW259299   2.183   1.030   7.773
15891SOL     OW59300   1.012   0.590   3.124
15891SOL    HW159301   1.015   0.521   3.058
15891SOL    HW259302   1.029   0.545   3.207
15892SOL     OW59303   2.253   2.736  20.828
15892SOL    HW159304   2.314   2.707  20.896
15892SOL    HW259305   2.265   2.674  20.757
15893SOL     OW59306   1.563   1.596   8.244
15893SOL    HW159307   1.497   1.534   8.213
15893SOL    HW259308   1.623   1.543   8.297
15894SOL     OW59309   3.493   4.159  20.794
15894SOL    HW159310   3.416   4.166  20.851
15894SOL    HW259311   3.531   4.247  20.795
15895SOL     OW59312   0.124   1.558   2.788
15895SOL    HW159313   0.118   1.507   2.869
15895SOL    HW259314   0.218   1.573   2.776
15896SOL     OW59315   3.047   3.890  22.828
15896SOL    HW159316   3.014   3.948  22.896
15896SOL    HW259317   3.142   3.891  22.840
15897SOL     OW59318   2.700   0.560   8.981
15897SOL    HW159319   2.673   0.500   8.911
15897SOL    HW259320   2.795   0.552   8.983
15898SOL     OW59321   0.316   0.945  11.702
15898SOL    HW159322   0.343   0.906  11.785
15898SOL    HW259323   0.296   1.036  11.724
15899SOL     OW59324   1.401   0.229   7.117
15899SOL    HW159325   1.345   0.254   7.043
15899SOL    HW259326   1.486   0.211   7.078
15900SOL     OW59327   0.463   1.800  20.603
15900SOL    HW159328   0.410   1.873  20.635
15900SOL    HW259329   0.465   1.812  20.508
15901SOL     OW59330   2.954   3.930  26.357
15901SOL    HW159331   3.037   3.948  26.400
15901SOL    HW259332   2.907   3.873  26.418
15902SOL     OW59333   3.447   3.224   5.178
15902SOL    HW159334   3.488   3.204   5.262
15902SOL    HW259335   3.464   3.147   5.124
15903SOL     OW59336   2.497   0.078   0.347
15903SOL    HW159337   2.432   0.032   0.400
15903SOL    HW259338   2.579   0.033   0.366
15904SOL     OW59339   2.025   3.737  21.911
15904SOL    HW159340   1.951   3.735  21.972
15904SOL    HW259341   2.005   3.669  21.846
15905SOL     OW59342   1.164   3.452   1.865
15905SOL    HW159343   1.250   3.479   1.834
15905SOL    HW259344   1.181   3.412   1.950
15906SOL     OW59345   0.215   1.547   3.654
15906SOL    HW159346   0.174   1.531   3.739
15906SOL    HW259347   0.294   1.597   3.674
15907SOL     OW59348   3.021   2.044  18.372
15907SOL    HW159349   2.983   1.960  18.348
15907SOL    HW259350   2.971   2.109  18.322
15908SOL     OW59351   3.914   0.509  28.109
15908SOL    HW159352   3.870   0.594  28.114
15908SOL    HW259353   3.848   0.446  28.139
15909SOL     OW59354   2.519   4.678   4.929
15909SOL    HW159355   2.604   4.653   4.965
15909SOL    HW259356   2.492   4.754   4.980
15910SOL     OW59357   3.504   3.195   4.179
15910SOL    HW159358   3.464   3.263   4.234
15910SOL    HW259359   3.438   3.126   4.175
15911SOL     OW59360   0.420   2.891   8.201
15911SOL    HW159361   0.515   2.900   8.189
15911SOL    HW259362   0.392   2.838   8.126
15912SOL     OW59363   3.583   4.263   5.536
15912SOL    HW159364   3.636   4.324   5.485
15912SOL    HW259365   3.608   4.280   5.627
15913SOL     OW59366   4.166   0.375  28.418
15913SOL    HW159367   4.172   0.419  28.333
15913SOL    HW259368   4.096   0.422  28.464
15914SOL     OW59369   3.604   3.775   0.567
15914SOL    HW159370   3.528   3.788   0.624
15914SOL    HW259371   3.590   3.836   0.495
15915SOL     OW59372   4.201   0.104  22.231
15915SOL    HW159373   4.291   0.123  22.256
15915SOL    HW259374   4.166   0.052  22.303
15916SOL     OW59375   2.766   4.177   7.596
15916SOL    HW159376   2.706   4.106   7.575
15916SOL    HW259377   2.711   4.255   7.599
15917SOL     OW59378   0.150   0.963  10.410
15917SOL    HW159379   0.207   1.039  10.418
15917SOL    HW259380   0.071   0.997  10.368
15918SOL     OW59381   3.036   0.775   7.541
15918SOL    HW159382   3.099   0.811   7.603
15918SOL    HW259383   2.960   0.833   7.548
15919SOL     OW59384   1.577   2.846   2.964
15919SOL    HW159385   1.667   2.845   2.997
15919SOL    HW259386   1.523   2.862   3.041
15920SOL     OW59387   3.852   1.660   0.628
15920SOL    HW159388   3.811   1.586   0.673
15920SOL    HW259389   3.944   1.636   0.620
15921SOL     OW59390   3.121   3.672  26.262
15921SOL    HW159391   3.153   3.638  26.346
15921SOL    HW259392   3.092   3.761  26.281
15922SOL     OW59393   0.181   4.237  26.809
15922SOL    HW159394   0.184   4.145  26.784
15922SOL    HW259395   0.129   4.238  26.890
15923SOL     OW59396   1.235   0.162  20.470
15923SOL    HW159397   1.316   0.167  20.520
15923SOL    HW259398   1.260   0.122  20.387
15924SOL     OW59399   0.405   1.036   1.529
15924SOL    HW159400   0.387   1.097   1.601
15924SOL    HW259401   0.478   1.075   1.481
15925SOL     OW59402   2.723   1.884   1.450
15925SOL    HW159403   2.641   1.875   1.402
15925SOL    HW259404   2.789   1.846   1.392
15926SOL     OW59405   1.770   1.954  26.149
15926SOL    HW159406   1.708   1.926  26.216
15926SOL    HW259407   1.776   2.049  26.160
15927SOL     OW59408   3.478   1.378   1.063
15927SOL    HW159409   3.384   1.395   1.068
15927SOL    HW259410   3.518   1.465   1.058
15928SOL     OW59411   0.053   3.042   4.386
15928SOL    HW159412   4.779   3.004   4.317
15928SOL    HW259413   0.141   3.043   4.348
15929SOL     OW59414   2.126   3.693  28.270
15929SOL    HW159415   2.051   3.637  28.250
15929SOL    HW259416   2.195   3.632  28.295
15930SOL     OW59417   0.595   3.886   0.052
15930SOL    HW159418   0.557   3.960   0.005
15930SOL    HW259419   0.643   3.926   0.125
15931SOL     OW59420   3.929   1.845  22.294
15931SOL    HW159421   3.855   1.785  22.284
15931SOL    HW259422   3.963   1.856  22.205
15932SOL     OW59423   2.237   4.548   6.800
15932SOL    HW159424   2.262   4.624   6.747
15932SOL    HW259425   2.230   4.476   6.737
15933SOL     OW59426   2.424   1.914  23.177
15933SOL    HW159427   2.493   1.860  23.138
15933SOL    HW259428   2.400   1.868  23.258
15934SOL     OW59429   2.220   0.600  22.485
15934SOL    HW159430   2.158   0.527  22.477
15934SOL    HW259431   2.165   0.678  22.486
15935SOL     OW59432   4.079   4.246  24.225
15935SOL    HW159433   4.174   4.240  24.223
15935SOL    HW259434   4.049   4.177  24.165
15936SOL     OW59435   3.332   2.275   8.041
15936SOL    HW159436   3.335   2.201   8.101
15936SOL    HW259437   3.420   2.312   8.043
15937SOL     OW59438   0.739   4.036   6.797
15937SOL    HW159439   0.719   3.958   6.745
15937SOL    HW259440   0.783   4.095   6.736
15938SOL     OW59441   3.409   3.501   4.697
15938SOL    HW159442   3.334   3.560   4.703
15938SOL    HW259443   3.371   3.414   4.685
15939SOL     OW59444   1.454   4.485   1.516
15939SOL    HW159445   1.419   4.398   1.496
15939SOL    HW259446   1.510   4.506   1.441
15940SOL     OW59447   1.700   2.363  10.686
15940SOL    HW159448   1.633   2.295  10.684
15940SOL    HW259449   1.778   2.322  10.648
15941SOL     OW59450   0.039   3.467   7.312
15941SOL    HW159451   0.008   3.422   7.391
15941SOL    HW259452   0.076   3.397   7.257
15942SOL     OW59453   2.540   4.130  25.806
15942SOL    HW159454   2.566   4.039  25.819
15942SOL    HW259455   2.451   4.134  25.841
15943SOL     OW59456   1.758   3.226  10.888
15943SOL    HW159457   1.822   3.282  10.845
15943SOL    HW259458   1.741   3.269  10.972
15944SOL     OW59459   3.008   3.853   9.373
15944SOL    HW159460   3.046   3.927   9.421
15944SOL    HW259461   2.961   3.893   9.300
15945SOL     OW59462   3.763   3.736  28.225
15945SOL    HW159463   3.822   3.733  28.300
15945SOL    HW259464   3.807   3.792  28.161
15946SOL     OW59465   3.168   1.066   9.411
15946SOL    HW159466   3.179   0.973   9.390
15946SOL    HW259467   3.171   1.069   9.507
15947SOL     OW59468   2.280   2.911   9.735
15947SOL    HW159469   2.272   2.981   9.799
15947SOL    HW259470   2.348   2.942   9.674
15948SOL     OW59471   0.429   4.506  27.182
15948SOL    HW159472   0.418   4.565  27.256
15948SOL    HW259473   0.520   4.477  27.188
15949SOL     OW59474   1.979   1.609   0.925
15949SOL    HW159475   1.992   1.531   0.872
15949SOL    HW259476   1.887   1.606   0.950
15950SOL     OW59477   3.377   2.311   7.573
15950SOL    HW159478   3.462   2.283   7.606
15950SOL    HW259479   3.380   2.407   7.576
15951SOL     OW59480   2.699   2.495   2.532
15951SOL    HW159481   2.628   2.432   2.545
15951SOL    HW259482   2.777   2.441   2.521
15952SOL     OW59483   1.713   1.517  10.501
15952SOL    HW159484   1.681   1.433  10.534
15952SOL    HW259485   1.765   1.553  10.573
15953SOL     OW59486   1.474   1.184  11.167
15953SOL    HW159487   1.390   1.164  11.209
15953SOL    HW259488   1.528   1.221  11.237
15954SOL     OW59489   1.188   3.923   1.405
15954SOL    HW159490   1.103   3.950   1.371
15954SOL    HW259491   1.184   3.827   1.406
15955SOL     OW59492   1.780   2.679  11.332
15955SOL    HW159493   1.814   2.591  11.351
15955SOL    HW259494   1.706   2.689  11.391
15956SOL     OW59495   4.732   0.174   5.124
15956SOL    HW159496   0.002   0.094   5.137
15956SOL    HW259497   0.016   0.244   5.132
15957SOL     OW59498   1.608   4.103  28.480
15957SOL    HW159499   1.638   4.157  28.407
15957SOL    HW259500   1.681   4.104   0.023
15958SOL     OW59501   2.214   2.575  12.157
15958SOL    HW159502   2.171   2.490  12.155
15958SOL    HW259503   2.217   2.599  12.250
15959SOL     OW59504   1.978   1.642  23.274
15959SOL    HW159505   1.922   1.709  23.234
15959SOL    HW259506   1.918   1.587  23.324
15960SOL     OW59507   1.391   0.273  10.908
15960SOL    HW159508   1.380   0.188  10.951
15960SOL    HW259509   1.465   0.260  10.848
15961SOL     OW59510   4.379   4.532   7.486
15961SOL    HW159511   4.469   4.519   7.516
15961SOL    HW259512   4.363   4.459   7.427
15962SOL     OW59513   3.906   0.209  22.990
15962SOL    HW159514   3.838   0.222  22.924
15962SOL    HW259515   3.866   0.239  23.072
15963SOL     OW59516   1.728   1.972   8.130
15963SOL    HW159517   1.711   2.054   8.084
15963SOL    HW259518   1.705   1.990   8.221
15964SOL     OW59519   1.915   4.203  26.917
15964SOL    HW159520   1.934   4.144  26.990
15964SOL    HW259521   1.837   4.251  26.945
15965SOL     OW59522   1.941   1.470   8.490
15965SOL    HW159523   1.997   1.394   8.478
15965SOL    HW259524   1.993   1.530   8.544
15966SOL     OW59525   4.620   0.319  21.950
15966SOL    HW159526   4.702   0.328  21.998
15966SOL    HW259527   4.598   0.408  21.921
15967SOL     OW59528   2.557   0.867   9.952
15967SOL    HW159529   2.517   0.898   9.871
15967SOL    HW259530   2.484   0.858  10.013
15968SOL     OW59531   3.795   3.329   7.503
15968SOL    HW159532   3.732   3.401   7.508
15968SOL    HW259533   3.868   3.357   7.559
15969SOL     OW59534   1.847   2.478  26.938
15969SOL    HW159535   1.916   2.436  26.887
15969SOL    HW259536   1.767   2.460  26.889
15970SOL     OW59537   1.433   3.748  20.986
15970SOL    HW159538   1.462   3.713  20.902
15970SOL    HW259539   1.479   3.832  20.994
15971SOL     OW59540   2.749   2.086  12.233
15971SOL    HW159541   2.802   2.129  12.300
15971SOL    HW259542   2.672   2.143  12.223
15972SOL     OW59543   0.324   4.678  22.411
15972SOL    HW159544   0.239   4.718  22.429
15972SOL    HW259545   0.372   4.746  22.363
15973SOL     OW59546   0.613   4.511   3.589
15973SOL    HW159547   0.585   4.532   3.500
15973SOL    HW259548   0.647   4.594   3.624
15974SOL     OW59549   0.724   3.238   7.090
15974SOL    HW159550   0.698   3.323   7.053
15974SOL    HW259551   0.793   3.207   7.031
15975SOL     OW59552   3.839   1.181   5.844
15975SOL    HW159553   3.911   1.155   5.901
15975SOL    HW259554   3.868   1.157   5.756
15976SOL     OW59555   1.740   0.981  24.230
15976SOL    HW159556   1.743   0.963  24.136
15976SOL    HW259557   1.647   0.984  24.251
15977SOL     OW59558   4.473   0.498  26.571
15977SOL    HW159559   4.438   0.582  26.601
15977SOL    HW259560   4.396   0.441  26.565
15978SOL     OW59561   2.402   2.694   3.562
15978SOL    HW159562   2.347   2.746   3.620
15978SOL    HW259563   2.472   2.754   3.536
15979SOL     OW59564   2.670   0.962  22.664
15979SOL    HW159565   2.615   0.940  22.739
15979SOL    HW259566   2.632   0.913  22.591
15980SOL     OW59567   4.669   4.000   7.747
15980SOL    HW159568   4.731   3.998   7.674
15980SOL    HW259569   4.612   3.925   7.731
15981SOL     OW59570   1.497   2.780  22.933
15981SOL    HW159571   1.511   2.872  22.955
15981SOL    HW259572   1.413   2.758  22.974
15982SOL     OW59573   4.322   3.814   7.439
15982SOL    HW159574   4.233   3.780   7.435
15982SOL    HW259575   4.356   3.803   7.350
15983SOL     OW59576   0.836   4.111  23.912
15983SOL    HW159577   0.834   4.061  23.994
15983SOL    HW259578   0.812   4.048  23.844
15984SOL     OW59579   1.007   1.040  11.247
15984SOL    HW159580   0.974   0.952  11.227
15984SOL    HW259581   0.932   1.097  11.234
15985SOL     OW59582   1.155   3.005  27.322
15985SOL    HW159583   1.108   3.082  27.355
15985SOL    HW259584   1.246   3.033  27.316
15986SOL     OW59585   3.401   0.255   6.369
15986SOL    HW159586   3.426   0.212   6.287
15986SOL    HW259587   3.464   0.326   6.379
15987SOL     OW59588   0.927   4.353  11.426
15987SOL    HW159589   0.916   4.290  11.497
15987SOL    HW259590   0.990   4.416  11.460
15988SOL     OW59591   3.764   4.195  19.848
15988SOL    HW159592   3.842   4.242  19.877
15988SOL    HW259593   3.713   4.183  19.928
15989SOL     OW59594   2.152   0.619  20.999
15989SOL    HW159595   2.063   0.654  21.001
15989SOL    HW259596   2.167   0.587  21.088
15990SOL     OW59597   3.236   3.983  25.453
15990SOL    HW159598   3.243   4.022  25.366
15990SOL    HW259599   3.302   3.914  25.454
15991SOL     OW59600   1.230   3.050  25.748
15991SOL    HW159601   1.265   3.045  25.659
15991SOL    HW259602   1.141   3.016  25.741
15992SOL     OW59603   3.342   2.575   7.607
15992SOL    HW159604   3.251   2.546   7.608
15992SOL    HW259605   3.342   2.656   7.658
15993SOL     OW59606   1.033   3.452   2.526
15993SOL    HW159607   1.128   3.440   2.532
15993SOL    HW259608   1.005   3.464   2.617
15994SOL     OW59609   0.577   4.766   2.632
15994SOL    HW159610   0.497   4.714   2.621
15994SOL    HW259611   0.645   4.715   2.587
15995SOL     OW59612   4.633   4.767   2.088
15995SOL    HW159613   4.661   4.699   2.027
15995SOL    HW259614   4.539   4.775   2.074
15996SOL     OW59615   0.056   4.277  11.428
15996SOL    HW159616   0.071   4.187  11.457
15996SOL    HW259617   4.742   4.282  11.415
15997SOL     OW59618   0.082   1.634   8.676
15997SOL    HW159619   4.771   1.641   8.703
15997SOL    HW259620   0.129   1.612   8.756
15998SOL     OW59621   3.833   4.488   2.255
15998SOL    HW159622   3.742   4.460   2.245
15998SOL    HW259623   3.828   4.583   2.261
15999SOL     OW59624   1.447   4.055   3.041
15999SOL    HW159625   1.430   4.149   3.031
15999SOL    HW259626   1.365   4.013   3.015
16000SOL     OW59627   2.482   0.147   5.049
16000SOL    HW159628   2.398   0.180   5.080
16000SOL    HW259629   2.540   0.156   5.124
16001SOL     OW59630   4.156   0.687  10.967
16001SOL    HW159631   4.089   0.627  11.001
16001SOL    HW259632   4.221   0.630  10.926
16002SOL     OW59633   4.027   3.456  12.429
16002SOL    HW159634   4.014   3.407  12.510
16002SOL    HW259635   4.104   3.510  12.446
16003SOL     OW59636   4.734   0.881   8.245
16003SOL    HW159637   0.019   0.946   8.220
16003SOL    HW259638   4.672   0.879   8.172
16004SOL     OW59639   3.883   1.961   7.165
16004SOL    HW159640   3.940   2.007   7.103
16004SOL    HW259641   3.902   2.001   7.250
16005SOL     OW59642   2.308   0.187  21.789
16005SOL    HW159643   2.320   0.276  21.756
16005SOL    HW259644   2.277   0.137  21.713
16006SOL     OW59645   1.991   3.179   7.498
16006SOL    HW159646   1.899   3.203   7.488
16006SOL    HW259647   1.990   3.097   7.547
16007SOL     OW59648   3.484   2.013   4.735
16007SOL    HW159649   3.560   2.050   4.690
16007SOL    HW259650   3.447   1.951   4.673
16008SOL     OW59651   1.285   0.178   7.651
16008SOL    HW159652   1.233   0.112   7.605
16008SOL    HW259653   1.353   0.203   7.588
16009SOL     OW59654   4.730   2.678   2.092
16009SOL    HW159655   4.714   2.704   2.183
16009SOL    HW259656   4.743   2.761   2.045
16010SOL     OW59657   1.876   3.430  21.073
16010SOL    HW159658   1.923   3.348  21.089
16010SOL    HW259659   1.921   3.470  20.999
16011SOL     OW59660   1.369   1.896  18.100
16011SOL    HW159661   1.368   1.981  18.144
16011SOL    HW259662   1.344   1.916  18.010
16012SOL     OW59663   2.617   1.486  20.656
16012SOL    HW159664   2.573   1.401  20.650
16012SOL    HW259665   2.549   1.550  20.634
16013SOL     OW59666   4.188   2.052  25.302
16013SOL    HW159667   4.145   2.015  25.224
16013SOL    HW259668   4.150   2.003  25.375
16014SOL     OW59669   1.166   3.126  21.655
16014SOL    HW159670   1.153   3.162  21.743
16014SOL    HW259671   1.122   3.041  21.658
16015SOL     OW59672   1.196   2.392  12.710
16015SOL    HW159673   1.201   2.374  12.804
16015SOL    HW259674   1.194   2.305  12.669
16016SOL     OW59675   1.818   3.217  19.278
16016SOL    HW159676   1.860   3.293  19.238
16016SOL    HW259677   1.889   3.170  19.322
16017SOL     OW59678   2.147   3.929   5.417
16017SOL    HW159679   2.107   3.993   5.476
16017SOL    HW259680   2.084   3.919   5.345
16018SOL     OW59681   0.026   4.024   2.814
16018SOL    HW159682   0.029   4.021   2.910
16018SOL    HW259683   0.111   4.060   2.788
16019SOL     OW59684   4.324   1.800   3.597
16019SOL    HW159685   4.340   1.815   3.690
16019SOL    HW259686   4.317   1.888   3.560
16020SOL     OW59687   3.418   2.767  17.297
16020SOL    HW159688   3.504   2.771  17.256
16020SOL    HW259689   3.387   2.678  17.280
16021SOL     OW59690   3.936   4.216  12.451
16021SOL    HW159691   3.949   4.219  12.546
16021SOL    HW259692   3.906   4.127  12.433
16022SOL     OW59693   4.296   0.438  12.274
16022SOL    HW159694   4.374   0.385  12.290
16022SOL    HW259695   4.302   0.510  12.337
16023SOL     OW59696   1.133   1.189  11.050
16023SOL    HW159697   1.078   1.267  11.057
16023SOL    HW259698   1.095   1.127  11.112
16024SOL     OW59699   0.068   2.430  11.063
16024SOL    HW159700   0.146   2.485  11.060
16024SOL    HW259701   0.053   2.405  10.972
16025SOL     OW59702   1.242   2.833  13.806
16025SOL    HW159703   1.226   2.890  13.881
16025SOL    HW259704   1.166   2.846  13.749
16026SOL     OW59705   2.421   0.167  13.740
16026SOL    HW159706   2.480   0.226  13.787
16026SOL    HW259707   2.343   0.163  13.795
16027SOL     OW59708   0.190   3.587  13.037
16027SOL    HW159709   0.149   3.544  13.112
16027SOL    HW259710   0.141   3.556  12.961
16028SOL     OW59711   1.437   0.030  11.049
16028SOL    HW159712   1.375   4.741  11.071
16028SOL    HW259713   1.505   0.024  11.116
16029SOL     OW59714   3.086   4.652  12.668
16029SOL    HW159715   3.120   4.679  12.753
16029SOL    HW259716   3.159   4.665  12.607
16030SOL     OW59717   2.188   4.661  13.289
16030SOL    HW159718   2.283   4.672  13.288
16030SOL    HW259719   2.155   4.740  13.332
16031SOL     OW59720   0.800   1.051  13.123
16031SOL    HW159721   0.813   0.956  13.125
16031SOL    HW259722   0.716   1.064  13.167
16032SOL     OW59723   2.613   4.727  13.550
16032SOL    HW159724   2.584   4.714  13.640
16032SOL    HW259725   2.618   0.042  13.540
16033SOL     OW59726   0.348   2.624  12.191
16033SOL    HW159727   0.361   2.600  12.283
16033SOL    HW259728   0.327   2.542  12.147
16034SOL     OW59729   0.705   0.943  12.742
16034SOL    HW159730   0.695   0.913  12.652
16034SOL    HW259731   0.783   0.897  12.774
16035SOL     OW59732   2.260   0.065  13.959
16035SOL    HW159733   2.200   0.015  13.904
16035SOL    HW259734   2.223   0.059  14.047
16036SOL     OW59735   0.565   3.059  13.817
16036SOL    HW159736   0.553   3.092  13.906
16036SOL    HW259737   0.496   2.994  13.806
16037SOL     OW59738   4.338   2.905  24.606
16037SOL    HW159739   4.305   2.895  24.695
16037SOL    HW259740   4.284   2.846  24.554
16038SOL     OW59741   0.689   0.573  13.393
16038SOL    HW159742   0.783   0.587  13.383
16038SOL    HW259743   0.682   0.514  13.468
16039SOL     OW59744   1.534   2.850  13.803
16039SOL    HW159745   1.447   2.876  13.773
16039SOL    HW259746   1.530   2.755  13.810
16040SOL     OW59747   1.708   2.804  10.905
16040SOL    HW159748   1.764   2.757  10.967
16040SOL    HW259749   1.695   2.742  10.833
16041SOL     OW59750   4.179   0.232  11.831
16041SOL    HW159751   4.158   0.241  11.738
16041SOL    HW259752   4.198   0.321  11.860
16042SOL     OW59753   0.068   1.274  10.932
16042SOL    HW159754   4.758   1.268  10.963
16042SOL    HW259755   0.068   1.350  10.874
16043SOL     OW59756   0.974   1.022  11.997
16043SOL    HW159757   0.936   0.965  12.064
16043SOL    HW259758   0.946   1.110  12.021
16044SOL     OW59759   4.537   0.242  12.839
16044SOL    HW159760   4.588   0.274  12.913
16044SOL    HW259761   4.447   0.242  12.870
16045SOL     OW59762   0.922   2.965  14.085
16045SOL    HW159763   0.891   3.045  14.042
16045SOL    HW259764   1.012   2.954  14.055
16046SOL     OW59765   0.217   4.575  13.211
16046SOL    HW159766   0.305   4.551  13.241
16046SOL    HW259767   0.158   4.521  13.264
16047SOL     OW59768   0.986   2.094  12.821
16047SOL    HW159769   1.037   2.050  12.889
16047SOL    HW259770   0.912   2.035  12.805
16048SOL     OW59771   0.002   0.296  13.767
16048SOL    HW159772   4.690   0.294  13.791
16048SOL    HW259773   0.022   0.389  13.758
16049SOL     OW59774   3.223   0.717  11.169
16049SOL    HW159775   3.155   0.764  11.217
16049SOL    HW259776   3.305   0.743  11.212
16050SOL     OW59777   4.279   1.868   2.317
16050SOL    HW159778   4.225   1.809   2.370
16050SOL    HW259779   4.369   1.849   2.345
16051SOL     OW59780   1.922   4.771  12.593
16051SOL    HW159781   1.932   4.720  12.674
16051SOL    HW259782   1.830   0.016  12.593
16052SOL     OW59783   1.318   1.177  11.559
16052SOL    HW159784   1.403   1.196  11.520
16052SOL    HW259785   1.309   1.243  11.628
16053SOL     OW59786   2.769   4.562  12.044
16053SOL    HW159787   2.730   4.552  12.131
16053SOL    HW259788   2.840   4.625  12.057
16054SOL     OW59789   0.556   1.879  12.938
16054SOL    HW159790   0.557   1.805  12.998
16054SOL    HW259791   0.603   1.847  12.861
16055SOL     OW59792   1.613   1.336  10.983
16055SOL    HW159793   1.542   1.286  11.023
16055SOL    HW259794   1.659   1.376  11.057
16056SOL     OW59795   2.997   4.672  13.978
16056SOL    HW159796   3.038   4.622  13.907
16056SOL    HW259797   2.947   4.740  13.933
16057SOL     OW59798   2.730   4.413  11.382
16057SOL    HW159799   2.674   4.483  11.349
16057SOL    HW259800   2.810   4.419  11.330
16058SOL     OW59801   2.601   4.661  12.562
16058SOL    HW159802   2.554   4.717  12.624
16058SOL    HW259803   2.679   4.633  12.609
16059SOL     OW59804   1.340   1.421  11.701
16059SOL    HW159805   1.278   1.493  11.695
16059SOL    HW259806   1.422   1.457  11.666
16060SOL     OW59807   0.453   1.185  10.350
16060SOL    HW159808   0.431   1.173  10.258
16060SOL    HW259809   0.512   1.260  10.351
16061SOL     OW59810   1.196   0.781  14.108
16061SOL    HW159811   1.275   0.832  14.091
16061SOL    HW259812   1.174   0.802  14.199
16062SOL     OW59813   4.457   1.398  13.525
16062SOL    HW159814   4.403   1.472  13.555
16062SOL    HW259815   4.475   1.348  13.604
16063SOL     OW59816   0.994   0.009  14.572
16063SOL    HW159817   1.067   4.750  14.620
16063SOL    HW259818   1.019   0.101  14.561
16064SOL     OW59819   1.007   1.460  13.827
16064SOL    HW159820   1.015   1.544  13.782
16064SOL    HW259821   0.977   1.482  13.915
16065SOL     OW59822   0.717   0.020  13.501
16065SOL    HW159823   0.661   0.093  13.530
16065SOL    HW259824   0.803   0.059  13.489
16066SOL     OW59825   0.156   2.160  14.906
16066SOL    HW159826   0.129   2.088  14.848
16066SOL    HW259827   0.197   2.224  14.847
16067SOL     OW59828   1.083   0.221  14.287
16067SOL    HW159829   1.160   0.274  14.268
16067SOL    HW259830   1.077   0.220  14.382
16068SOL     OW59831   1.117   1.230  13.718
16068SOL    HW159832   1.073   1.307  13.754
16068SOL    HW259833   1.128   1.250  13.625
16069SOL     OW59834   0.958   4.632  13.664
16069SOL    HW159835   1.015   4.663  13.593
16069SOL    HW259836   0.940   4.710  13.716
16070SOL     OW59837   1.368   0.656  13.274
16070SOL    HW159838   1.412   0.696  13.349
16070SOL    HW259839   1.438   0.609  13.228
16071SOL     OW59840   4.597   0.999  11.484
16071SOL    HW159841   4.566   1.031  11.569
16071SOL    HW259842   4.676   0.950  11.504
16072SOL     OW59843   1.968   0.646  12.958
16072SOL    HW159844   1.928   0.658  12.872
16072SOL    HW259845   2.062   0.638  12.940
16073SOL     OW59846   1.466   1.243  13.736
16073SOL    HW159847   1.396   1.301  13.706
16073SOL    HW259848   1.504   1.289  13.811
16074SOL     OW59849   1.177   0.459  13.274
16074SOL    HW159850   1.243   0.528  13.271
16074SOL    HW259851   1.226   0.380  13.296
16075SOL     OW59852   0.123   1.477  13.252
16075SOL    HW159853   0.180   1.459  13.326
16075SOL    HW259854   0.056   1.536  13.287
16076SOL     OW59855   1.148   0.002  14.834
16076SOL    HW159856   1.209   4.713  14.810
16076SOL    HW259857   1.204   0.078  14.852
16077SOL     OW59858   2.858   0.045  13.377
16077SOL    HW159859   2.802   0.102  13.430
16077SOL    HW259860   2.945   0.055  13.415
16078SOL     OW59861   0.847   0.558  13.667
16078SOL    HW159862   0.906   0.627  13.639
16078SOL    HW259863   0.872   0.540  13.758
16079SOL     OW59864   2.092   0.198  12.786
16079SOL    HW159865   2.079   0.133  12.855
16079SOL    HW259866   2.144   0.153  12.720
16080SOL     OW59867   1.617   3.101  15.532
16080SOL    HW159868   1.612   3.034  15.464
16080SOL    HW259869   1.702   3.088  15.573
16081SOL     OW59870   0.696   1.684  14.366
16081SOL    HW159871   0.667   1.671  14.276
16081SOL    HW259872   0.769   1.624  14.377
16082SOL     OW59873   0.977   0.353  14.064
16082SOL    HW159874   1.031   0.303  14.003
16082SOL    HW259875   1.019   0.341  14.149
16083SOL     OW59876   1.318   4.748  13.258
16083SOL    HW159877   1.358   0.048  13.291
16083SOL    HW259878   1.357   4.735  13.172
16084SOL     OW59879   0.126   2.072  15.160
16084SOL    HW159880   0.127   2.125  15.080
16084SOL    HW259881   0.194   2.111  15.215
16085SOL     OW59882   3.172   4.588  13.185
16085SOL    HW159883   3.221   4.535  13.248
16085SOL    HW259884   3.084   4.592  13.221
16086SOL     OW59885   2.631   2.172  13.278
16086SOL    HW159886   2.662   2.255  13.315
16086SOL    HW259887   2.701   2.146  13.218
16087SOL     OW59888   1.587   0.503  13.181
16087SOL    HW159889   1.601   0.439  13.251
16087SOL    HW259890   1.657   0.486  13.118
16088SOL     OW59891   1.769   3.912  14.496
16088SOL    HW159892   1.810   3.849  14.437
16088SOL    HW259893   1.744   3.861  14.573
16089SOL     OW59894   1.035   1.096  13.307
16089SOL    HW159895   1.072   1.011  13.332
16089SOL    HW259896   0.951   1.075  13.267
16090SOL     OW59897   0.005   0.224  13.378
16090SOL    HW159898   4.725   0.254  13.310
16090SOL    HW259899   4.774   0.287  13.449
16091SOL     OW59900   4.777   4.221  14.858
16091SOL    HW159901   4.685   4.245  14.869
16091SOL    HW259902   4.775   4.147  14.798
16092SOL     OW59903   1.855   4.464  14.531
16092SOL    HW159904   1.847   4.474  14.626
16092SOL    HW259905   1.905   4.383  14.520
16093SOL     OW59906   0.676   2.303  14.269
16093SOL    HW159907   0.661   2.209  14.258
16093SOL    HW259908   0.722   2.310  14.352
16094SOL     OW59909   0.790   0.269  15.697
16094SOL    HW159910   0.882   0.287  15.678
16094SOL    HW259911   0.787   0.175  15.716
16095SOL     OW59912   2.229   1.482  15.993
16095SOL    HW159913   2.171   1.410  15.968
16095SOL    HW259914   2.179   1.561  15.973
16096SOL     OW59915   2.464   0.791  16.739
16096SOL    HW159916   2.516   0.726  16.692
16096SOL    HW259917   2.478   0.873  16.692
16097SOL     OW59918   0.459   1.423  15.646
16097SOL    HW159919   0.528   1.442  15.583
16097SOL    HW259920   0.381   1.465  15.610
16098SOL     OW59921   2.629   0.339  16.617
16098SOL    HW159922   2.718   0.346  16.651
16098SOL    HW259923   2.640   0.325  16.523
16099SOL     OW59924   1.296   0.580  14.802
16099SOL    HW159925   1.266   0.502  14.756
16099SOL    HW259926   1.290   0.650  14.737
16100SOL     OW59927   1.750   1.526  15.641
16100SOL    HW159928   1.833   1.479  15.649
16100SOL    HW259929   1.683   1.459  15.655
16101SOL     OW59930   1.206   0.749  14.996
16101SOL    HW159931   1.119   0.715  14.977
16101SOL    HW259932   1.264   0.700  14.937
16102SOL     OW59933   1.921   1.289  16.248
16102SOL    HW159934   1.854   1.345  16.210
16102SOL    HW259935   1.983   1.274  16.177
16103SOL     OW59936   0.463   1.178  15.760
16103SOL    HW159937   0.456   1.261  15.713
16103SOL    HW259938   0.469   1.204  15.852
16104SOL     OW59939   1.160   1.138  15.197
16104SOL    HW159940   1.113   1.179  15.270
16104SOL    HW259941   1.152   1.044  15.213
16105SOL     OW59942   1.348   0.935  16.583
16105SOL    HW159943   1.309   0.964  16.500
16105SOL    HW259944   1.276   0.938  16.646
16106SOL     OW59945   1.160   1.050  15.537
16106SOL    HW159946   1.094   1.035  15.605
16106SOL    HW259947   1.113   1.035  15.455
16107SOL     OW59948   1.619   2.205  16.737
16107SOL    HW159949   1.570   2.149  16.797
16107SOL    HW259950   1.636   2.149  16.661
16108SOL     OW59951   1.936   0.957  16.067
16108SOL    HW159952   2.013   0.927  16.115
16108SOL    HW259953   1.969   0.977  15.979
16109SOL     OW59954   0.337   0.813  17.312
16109SOL    HW159955   0.364   0.902  17.334
16109SOL    HW259956   0.302   0.820  17.223
16110SOL     OW59957   2.518   0.609  15.809
16110SOL    HW159958   2.562   0.524  15.812
16110SOL    HW259959   2.575   0.667  15.860
16111SOL     OW59960   1.150   3.258  16.894
16111SOL    HW159961   1.207   3.181  16.894
16111SOL    HW259962   1.191   3.318  16.832
16112SOL     OW59963   1.033   0.363  15.637
16112SOL    HW159964   1.038   0.422  15.712
16112SOL    HW259965   1.108   0.387  15.583
16113SOL     OW59966   3.378   0.898  16.120
16113SOL    HW159967   3.335   0.970  16.074
16113SOL    HW259968   3.468   0.898  16.087
16114SOL     OW59969   1.306   0.212  14.834
16114SOL    HW159970   1.271   0.251  14.915
16114SOL    HW259971   1.289   0.278  14.767
16115SOL     OW59972   2.517   2.295  16.719
16115SOL    HW159973   2.589   2.270  16.661
16115SOL    HW259974   2.452   2.334  16.661
16116SOL     OW59975   1.559   1.407  16.480
16116SOL    HW159976   1.562   1.355  16.400
16116SOL    HW259977   1.490   1.366  16.533
16117SOL     OW59978   2.326   0.102  15.224
16117SOL    HW159979   2.359   0.061  15.144
16117SOL    HW259980   2.257   0.161  15.194
16118SOL     OW59981   1.020   1.245  16.678
16118SOL    HW159982   1.000   1.183  16.607
16118SOL    HW259983   1.099   1.210  16.719
16119SOL     OW59984   1.283   1.450  14.677
16119SOL    HW159985   1.368   1.470  14.717
16119SOL    HW259986   1.220   1.501  14.727
16120SOL     OW59987   1.207   1.447  16.554
16120SOL    HW159988   1.226   1.390  16.480
16120SOL    HW259989   1.117   1.425  16.580
16121SOL     OW59990   2.645   2.305  17.006
16121SOL    HW159991   2.588   2.381  17.015
16121SOL    HW259992   2.650   2.290  16.912
16122SOL     OW59993   1.786   1.258  15.403
16122SOL    HW159994   1.877   1.288  15.398
16122SOL    HW259995   1.760   1.247  15.312
16123SOL     OW59996   0.384   2.031  14.699
16123SOL    HW159997   0.293   2.016  14.724
16123SOL    HW259998   0.435   1.976  14.759
16124SOL     OW59999   0.441   4.777  17.129
16124SOL    HW160000   0.509   4.768  17.062
16124SOL    HW260001   0.363   4.738  17.090
16125SOL     OW60002   2.121   0.688  15.425
16125SOL    HW160003   2.203   0.679  15.473
16125SOL    HW260004   2.130   0.626  15.352
16126SOL     OW60005   1.666   2.092  16.507
16126SOL    HW160006   1.673   2.157  16.437
16126SOL    HW260007   1.658   2.008  16.461
16127SOL     OW60008   2.715   0.401  15.803
16127SOL    HW160009   2.793   0.433  15.757
16127SOL    HW260010   2.714   0.307  15.786
16128SOL     OW60011   0.104   0.767  14.652
16128SOL    HW160012   0.136   0.688  14.608
16128SOL    HW260013   0.014   0.745  14.677
16129SOL     OW60014   4.248   1.934  10.339
16129SOL    HW160015   4.255   1.991  10.415
16129SOL    HW260016   4.247   1.845  10.375
16130SOL     OW60017   2.178   1.708  16.371
16130SOL    HW160018   2.201   1.796  16.341
16130SOL    HW260019   2.229   1.650  16.315
16131SOL     OW60020   0.839   0.571  16.977
16131SOL    HW160021   0.887   0.637  16.927
16131SOL    HW260022   0.895   0.493  16.974
16132SOL     OW60023   2.781   3.263  18.027
16132SOL    HW160024   2.722   3.336  18.009
16132SOL    HW260025   2.869   3.300  18.016
16133SOL     OW60026   4.267   4.383  15.916
16133SOL    HW160027   4.246   4.290  15.917
16133SOL    HW260028   4.341   4.390  15.856
16134SOL     OW60029   2.038   1.015  15.817
16134SOL    HW160030   1.999   1.041  15.733
16134SOL    HW260031   2.063   0.923  15.804
16135SOL     OW60032   2.951   2.606   8.143
16135SOL    HW160033   3.033   2.574   8.180
16135SOL    HW260034   2.973   2.632   8.054
16136SOL     OW60035   3.252   3.602  18.951
16136SOL    HW160036   3.298   3.617  18.868
16136SOL    HW260037   3.296   3.526  18.989
16137SOL     OW60038   1.208   0.670  26.568
16137SOL    HW160039   1.229   0.763  26.558
16137SOL    HW260040   1.113   0.667  26.579
16138SOL     OW60041   2.330   0.130  15.528
16138SOL    HW160042   2.344   0.130  15.433
16138SOL    HW260043   2.284   0.212  15.545
16139SOL     OW60044   4.425   2.618  21.863
16139SOL    HW160045   4.374   2.626  21.783
16139SOL    HW260046   4.460   2.706  21.878
16140SOL     OW60047   3.955   4.146  17.413
16140SOL    HW160048   4.004   4.117  17.490
16140SOL    HW260049   4.012   4.127  17.339
16141SOL     OW60050   0.574   3.326  18.192
16141SOL    HW160051   0.579   3.364  18.280
16141SOL    HW260052   0.628   3.247  18.196
16142SOL     OW60053   3.993   1.370  24.214
16142SOL    HW160054   4.035   1.293  24.176
16142SOL    HW260055   3.905   1.372  24.176
16143SOL     OW60056   0.831   2.514  15.791
16143SOL    HW160057   0.829   2.610  15.793
16143SOL    HW260058   0.885   2.489  15.866
16144SOL     OW60059   3.833   3.085  16.026
16144SOL    HW160060   3.906   3.038  15.986
16144SOL    HW260061   3.873   3.163  16.064
16145SOL     OW60062   1.779   0.631  16.237
16145SOL    HW160063   1.858   0.684  16.251
16145SOL    HW260064   1.796   0.550  16.285
16146SOL     OW60065   4.121   0.729   5.752
16146SOL    HW160066   4.177   0.806   5.753
16146SOL    HW260067   4.117   0.701   5.844
16147SOL     OW60068   0.276   4.198  17.032
16147SOL    HW160069   0.224   4.259  17.084
16147SOL    HW260070   0.256   4.222  16.941
16148SOL     OW60071   3.683   4.045  17.388
16148SOL    HW160072   3.619   4.071  17.455
16148SOL    HW260073   3.746   4.117  17.386
16149SOL     OW60074   3.106   3.815  17.606
16149SOL    HW160075   3.138   3.746  17.548
16149SOL    HW260076   3.011   3.811  17.598
16150SOL     OW60077   1.595   0.728  16.408
16150SOL    HW160078   1.662   0.697  16.347
16150SOL    HW260079   1.600   0.823  16.403
16151SOL     OW60080   2.467   1.595  15.927
16151SOL    HW160081   2.504   1.518  15.884
16151SOL    HW260082   2.379   1.568  15.952
16152SOL     OW60083   2.978   3.201  19.520
16152SOL    HW160084   3.037   3.167  19.587
16152SOL    HW260085   3.035   3.250  19.461
16153SOL     OW60086   4.498   4.662  17.935
16153SOL    HW160087   4.554   4.739  17.929
16153SOL    HW260088   4.455   4.657  17.849
16154SOL     OW60089   0.537   1.025  15.281
16154SOL    HW160090   0.469   0.973  15.325
16154SOL    HW260091   0.517   1.016  15.188
16155SOL     OW60092   1.420   4.021   4.701
16155SOL    HW160093   1.456   4.098   4.745
16155SOL    HW260094   1.325   4.034   4.705
16156SOL     OW60095   3.066   4.481  17.939
16156SOL    HW160096   3.124   4.409  17.965
16156SOL    HW260097   3.102   4.513  17.857
16157SOL     OW60098   2.862   2.980   1.995
16157SOL    HW160099   2.830   3.069   2.009
16157SOL    HW260100   2.905   2.983   1.910
16158SOL     OW60101   2.727   1.266   3.377
16158SOL    HW160102   2.737   1.317   3.457
16158SOL    HW260103   2.713   1.176   3.407
16159SOL     OW60104   1.755   4.675  18.207
16159SOL    HW160105   1.684   4.714  18.259
16159SOL    HW260106   1.772   4.739  18.138
16160SOL     OW60107   1.296   0.561  28.391
16160SOL    HW160108   1.327   0.626  28.454
16160SOL    HW260109   1.349   0.483  28.408
16161SOL     OW60110   1.121   2.141  17.998
16161SOL    HW160111   1.102   2.185  17.915
16161SOL    HW260112   1.072   2.059  17.993
16162SOL     OW60113   0.433   0.675  17.035
16162SOL    HW160114   0.491   0.622  16.980
16162SOL    HW260115   0.468   0.764  17.028
16163SOL     OW60116   4.161   0.304  17.778
16163SOL    HW160117   4.167   0.214  17.745
16163SOL    HW260118   4.252   0.328  17.797
16164SOL     OW60119   1.048   1.761  17.372
16164SOL    HW160120   1.125   1.777  17.317
16164SOL    HW260121   0.979   1.816  17.335
16165SOL     OW60122   1.318   1.682  23.241
16165SOL    HW160123   1.230   1.658  23.212
16165SOL    HW260124   1.320   1.777  23.233
16166SOL     OW60125   1.109   2.166  16.955
16166SOL    HW160126   1.030   2.221  16.954
16166SOL    HW260127   1.154   2.189  16.874
16167SOL     OW60128   0.994   0.792  17.802
16167SOL    HW160129   1.014   0.845  17.724
16167SOL    HW260130   1.014   0.850  17.876
16168SOL     OW60131   2.717   3.478   0.120
16168SOL    HW160132   2.807   3.473   0.153
16168SOL    HW260133   2.672   3.537   0.181
16169SOL     OW60134   3.657   1.013  19.262
16169SOL    HW160135   3.673   1.094  19.214
16169SOL    HW260136   3.690   0.944  19.204
16170SOL     OW60137   0.547   2.612  26.195
16170SOL    HW160138   0.480   2.544  26.201
16170SOL    HW260139   0.630   2.565  26.194
16171SOL     OW60140   1.452   2.712  18.260
16171SOL    HW160141   1.536   2.692  18.219
16171SOL    HW260142   1.394   2.734  18.187
16172SOL     OW60143   0.179   3.707   3.068
16172SOL    HW160144   0.217   3.695   2.981
16172SOL    HW260145   0.110   3.641   3.073
16173SOL     OW60146   0.085   1.882  17.487
16173SOL    HW160147   0.136   1.824  17.544
16173SOL    HW260148   0.093   1.843  17.400
16174SOL     OW60149   2.255   1.368  17.546
16174SOL    HW160150   2.342   1.362  17.507
16174SOL    HW260151   2.196   1.376  17.471
16175SOL     OW60152   1.066   3.256  17.339
16175SOL    HW160153   1.085   3.173  17.295
16175SOL    HW260154   1.089   3.323  17.275
16176SOL     OW60155   2.198   3.484  10.140
16176SOL    HW160156   2.272   3.539  10.115
16176SOL    HW260157   2.174   3.438  10.059
16177SOL     OW60158   2.088   4.449  18.212
16177SOL    HW160159   2.060   4.540  18.210
16177SOL    HW260160   2.105   4.431  18.305
16178SOL     OW60161   3.698   4.490  17.305
16178SOL    HW160162   3.745   4.446  17.376
16178SOL    HW260163   3.612   4.448  17.303
16179SOL     OW60164   2.207   1.952  16.270
16179SOL    HW160165   2.115   1.979  16.268
16179SOL    HW260166   2.241   1.976  16.184
16180SOL     OW60167   1.390   2.323  16.590
16180SOL    HW160168   1.477   2.296  16.618
16180SOL    HW260169   1.389   2.305  16.496
16181SOL     OW60170   3.343   4.706   2.573
16181SOL    HW160171   3.435   4.714   2.549
16181SOL    HW260172   3.337   4.619   2.613
16182SOL     OW60173   2.638   4.626  19.461
16182SOL    HW160174   2.715   4.582  19.497
16182SOL    HW260175   2.605   4.566  19.395
16183SOL     OW60176   1.700   1.105  16.080
16183SOL    HW160177   1.777   1.051  16.097
16183SOL    HW260178   1.722   1.155  16.001
16184SOL     OW60179   1.277   0.058   0.865
16184SOL    HW160180   1.312   4.750   0.873
16184SOL    HW260181   1.182   0.046   0.866
16185SOL     OW60182   3.105   3.178   6.987
16185SOL    HW160183   3.098   3.098   7.039
16185SOL    HW260184   3.081   3.248   7.048
16186SOL     OW60185   3.105   1.027   8.015
16186SOL    HW160186   3.148   1.098   8.062
16186SOL    HW260187   3.078   1.066   7.932
16187SOL     OW60188   1.102   0.726  10.282
16187SOL    HW160189   1.145   0.698  10.201
16187SOL    HW260190   1.043   0.796  10.255
16188SOL     OW60191   2.204   0.402   7.350
16188SOL    HW160192   2.299   0.417   7.348
16188SOL    HW260193   2.178   0.428   7.438
16189SOL     OW60194   1.125   4.653  24.571
16189SOL    HW160195   1.219   4.665  24.582
16189SOL    HW260196   1.085   4.710  24.636
16190SOL     OW60197   3.582   1.572  17.104
16190SOL    HW160198   3.618   1.657  17.078
16190SOL    HW260199   3.491   1.575  17.076
16191SOL     OW60200   3.324   4.758  19.901
16191SOL    HW160201   3.351   4.670  19.875
16191SOL    HW260202   3.231   4.762  19.881
16192SOL     OW60203   0.328   0.139   9.349
16192SOL    HW160204   0.374   0.139   9.433
16192SOL    HW260205   0.375   0.203   9.295
16193SOL     OW60206   2.847   3.732  24.258
16193SOL    HW160207   2.909   3.804  24.267
16193SOL    HW260208   2.779   3.766  24.200
16194SOL     OW60209   0.897   0.845   0.384
16194SOL    HW160210   0.919   0.892   0.304
16194SOL    HW260211   0.906   0.753   0.360
16195SOL     OW60212   3.765   2.717   5.213
16195SOL    HW160213   3.754   2.645   5.151
16195SOL    HW260214   3.812   2.678   5.287
16196SOL     OW60215   2.639   2.400   3.208
16196SOL    HW160216   2.659   2.463   3.277
16196SOL    HW260217   2.721   2.352   3.194
16197SOL     OW60218   1.549   3.460   0.958
16197SOL    HW160219   1.543   3.519   0.883
16197SOL    HW260220   1.466   3.413   0.959
16198SOL     OW60221   4.003   2.356  10.796
16198SOL    HW160222   4.067   2.296  10.834
16198SOL    HW260223   3.983   2.320  10.710
16199SOL     OW60224   4.075   4.571  28.326
16199SOL    HW160225   4.076   4.659  28.288
16199SOL    HW260226   4.163   4.560  28.361
16200SOL     OW60227   4.277   0.024  26.219
16200SOL    HW160228   4.184   0.041  26.235
16200SOL    HW260229   4.310   4.771  26.302
16201SOL     OW60230   4.326   2.633   4.771
16201SOL    HW160231   4.336   2.550   4.818
16201SOL    HW260232   4.267   2.685   4.826
16202SOL     OW60233   2.857   0.516  16.678
16202SOL    HW160234   2.920   0.482  16.615
16202SOL    HW260235   2.824   0.597  16.638
16203SOL     OW60236   4.517   3.828   6.858
16203SOL    HW160237   4.480   3.880   6.787
16203SOL    HW260238   4.441   3.798   6.908
16204SOL     OW60239   1.501   3.262   6.424
16204SOL    HW160240   1.576   3.203   6.420
16204SOL    HW260241   1.442   3.222   6.488
16205SOL     OW60242   2.295   3.782  27.166
16205SOL    HW160243   2.390   3.775  27.168
16205SOL    HW260244   2.265   3.728  27.239
16206SOL     OW60245   0.944   4.587  26.327
16206SOL    HW160246   0.867   4.637  26.353
16206SOL    HW260247   1.010   4.653  26.305
16207SOL     OW60248   2.658   1.151  19.792
16207SOL    HW160249   2.715   1.075  19.803
16207SOL    HW260250   2.686   1.190  19.709
16208SOL     OW60251   4.704   4.358   6.613
16208SOL    HW160252   4.774   4.376   6.550
16208SOL    HW260253   4.749   4.318   6.687
16209SOL     OW60254   0.679   0.757   7.041
16209SOL    HW160255   0.668   0.833   7.099
16209SOL    HW260256   0.604   0.700   7.061
16210SOL     OW60257   0.196   2.763   3.362
16210SOL    HW160258   0.224   2.675   3.386
16210SOL    HW260259   0.276   2.807   3.332
16211SOL     OW60260   1.095   1.110   6.807
16211SOL    HW160261   1.046   1.161   6.742
16211SOL    HW260262   1.161   1.171   6.840
16212SOL     OW60263   4.664   1.427   7.408
16212SOL    HW160264   4.736   1.489   7.417
16212SOL    HW260265   4.706   1.344   7.388
16213SOL     OW60266   2.905   3.271   6.282
16213SOL    HW160267   2.931   3.362   6.271
16213SOL    HW260268   2.972   3.233   6.339
16214SOL     OW60269   0.359   2.697  24.447
16214SOL    HW160270   0.385   2.782  24.412
16214SOL    HW260271   0.300   2.718  24.519
16215SOL     OW60272   2.065   2.449   0.374
16215SOL    HW160273   2.054   2.481   0.284
16215SOL    HW260274   1.977   2.425   0.402
16216SOL     OW60275   3.787   1.608  18.042
16216SOL    HW160276   3.877   1.594  18.011
16216SOL    HW260277   3.791   1.588  18.136
16217SOL     OW60278   2.223   2.033   0.303
16217SOL    HW160279   2.174   2.003   0.227
16217SOL    HW260280   2.295   2.085   0.266
16218SOL     OW60281   4.146   3.728   6.969
16218SOL    HW160282   4.137   3.633   6.959
16218SOL    HW260283   4.058   3.762   6.952
16219SOL     OW60284   1.225   0.423  21.752
16219SOL    HW160285   1.250   0.343  21.706
16219SOL    HW260286   1.189   0.480  21.684
16220SOL     OW60287   0.897   2.417  19.968
16220SOL    HW160288   0.888   2.351  20.037
16220SOL    HW260289   0.860   2.376  19.890
16221SOL     OW60290   3.878   2.603   2.858
16221SOL    HW160291   3.912   2.513   2.853
16221SOL    HW260292   3.953   2.655   2.886
16222SOL     OW60293   0.950   1.003  19.884
16222SOL    HW160294   0.877   0.998  19.946
16222SOL    HW260295   0.986   1.091  19.896
16223SOL     OW60296   1.501   3.542  22.028
16223SOL    HW160297   1.435   3.472  22.034
16223SOL    HW260298   1.499   3.569  21.936
16224SOL     OW60299   2.198   0.425   0.265
16224SOL    HW160300   2.144   0.376   0.203
16224SOL    HW260301   2.192   0.516   0.236
16225SOL     OW60302   0.514   0.031  17.487
16225SOL    HW160303   0.467   4.758  17.551
16225SOL    HW260304   0.599   0.049  17.528
16226SOL     OW60305   3.100   2.714   3.734
16226SOL    HW160306   3.151   2.710   3.815
16226SOL    HW260307   3.074   2.623   3.718
16227SOL     OW60308   1.389   1.239  16.619
16227SOL    HW160309   1.335   1.224  16.697
16227SOL    HW260310   1.343   1.194  16.549
16228SOL     OW60311   0.922   1.179  26.426
16228SOL    HW160312   0.943   1.248  26.489
16228SOL    HW260313   0.900   1.226  26.346
16229SOL     OW60314   2.342   2.787   1.375
16229SOL    HW160315   2.365   2.722   1.441
16229SOL    HW260316   2.270   2.747   1.326
16230SOL     OW60317   4.289   0.196  10.484
16230SOL    HW160318   4.228   0.257  10.443
16230SOL    HW260319   4.245   0.111  10.479
16231SOL     OW60320   2.842   2.773  17.997
16231SOL    HW160321   2.796   2.727  17.927
16231SOL    HW260322   2.893   2.840  17.952
16232SOL     OW60323   2.012   2.086  27.323
16232SOL    HW160324   2.027   2.115  27.413
16232SOL    HW260325   1.945   2.018  27.331
16233SOL     OW60326   0.895   1.675  21.876
16233SOL    HW160327   0.950   1.722  21.939
16233SOL    HW260328   0.938   1.688  21.792
16234SOL     OW60329   0.420   0.170   5.797
16234SOL    HW160330   0.398   0.160   5.890
16234SOL    HW260331   0.385   0.256   5.773
16235SOL     OW60332   3.142   0.408  21.082
16235SOL    HW160333   3.193   0.427  21.003
16235SOL    HW260334   3.170   0.474  21.145
16236SOL     OW60335   3.636   3.460  28.106
16236SOL    HW160336   3.649   3.402  28.181
16236SOL    HW260337   3.689   3.537  28.125
16237SOL     OW60338   2.515   0.665  19.378
16237SOL    HW160339   2.431   0.651  19.334
16237SOL    HW260340   2.511   0.607  19.454
16238SOL     OW60341   4.183   2.994  22.875
16238SOL    HW160342   4.257   3.050  22.897
16238SOL    HW260343   4.222   2.916  22.835
16239SOL     OW60344   3.948   1.867   4.189
16239SOL    HW160345   3.970   1.853   4.097
16239SOL    HW260346   3.967   1.960   4.204
16240SOL     OW60347   3.498   4.529   6.010
16240SOL    HW160348   3.479   4.494   5.923
16240SOL    HW260349   3.594   4.531   6.014
16241SOL     OW60350   4.171   1.832   5.717
16241SOL    HW160351   4.213   1.909   5.755
16241SOL    HW260352   4.082   1.834   5.752
16242SOL     OW60353   3.707   1.091  25.279
16242SOL    HW160354   3.780   1.080  25.340
16242SOL    HW260355   3.694   1.004  25.241
16243SOL     OW60356   3.559   4.047  28.161
16243SOL    HW160357   3.499   3.988  28.115
16243SOL    HW260358   3.623   4.074  28.095
16244SOL     OW60359   0.561   3.159  21.663
16244SOL    HW160360   0.494   3.152  21.595
16244SOL    HW260361   0.535   3.095  21.729
16245SOL     OW60362   3.101   1.188  24.897
16245SOL    HW160363   3.154   1.266  24.881
16245SOL    HW260364   3.095   1.146  24.811
16246SOL     OW60365   4.059   2.469   9.476
16246SOL    HW160366   4.118   2.405   9.515
16246SOL    HW260367   4.008   2.502   9.550
16247SOL     OW60368   0.921   2.258  24.273
16247SOL    HW160369   0.856   2.199  24.310
16247SOL    HW260370   0.928   2.232  24.181
16248SOL     OW60371   1.986   1.727   5.717
16248SOL    HW160372   2.070   1.689   5.744
16248SOL    HW260373   2.010   1.802   5.663
16249SOL     OW60374   1.835   2.638   6.921
16249SOL    HW160375   1.885   2.680   6.991
16249SOL    HW260376   1.882   2.662   6.841
16250SOL     OW60377   2.890   1.095   7.539
16250SOL    HW160378   2.828   1.167   7.546
16250SOL    HW260379   2.886   1.069   7.447
16251SOL     OW60380   1.146   0.886   8.226
16251SOL    HW160381   1.117   0.799   8.198
16251SOL    HW260382   1.092   0.947   8.175
16252SOL     OW60383   0.752   2.583  22.910
16252SOL    HW160384   0.831   2.555  22.956
16252SOL    HW260385   0.779   2.589  22.818
16253SOL     OW60386   0.131   0.900  21.585
16253SOL    HW160387   0.120   0.883  21.679
16253SOL    HW260388   0.205   0.845  21.560
16254SOL     OW60389   0.261   1.553   1.265
16254SOL    HW160390   0.342   1.580   1.222
16254SOL    HW260391   0.211   1.634   1.274
16255SOL     OW60392   3.012   1.452  21.825
16255SOL    HW160393   2.989   1.504  21.748
16255SOL    HW260394   2.928   1.426  21.862
16256SOL     OW60395   3.031   0.637  20.131
16256SOL    HW160396   3.035   0.631  20.226
16256SOL    HW260397   3.045   0.547  20.101
16257SOL     OW60398   0.528   1.322  22.453
16257SOL    HW160399   0.607   1.272  22.433
16257SOL    HW260400   0.501   1.291  22.539
16258SOL     OW60401   0.387   2.053  20.632
16258SOL    HW160402   0.432   2.075  20.713
16258SOL    HW260403   0.397   2.131  20.577
16259SOL     OW60404   0.003   2.280  20.730
16259SOL    HW160405   4.761   2.303  20.820
16259SOL    HW260406   0.019   2.364  20.687
16260SOL     OW60407   3.685   4.434   0.931
16260SOL    HW160408   3.599   4.446   0.890
16260SOL    HW260409   3.748   4.449   0.861
16261SOL     OW60410   0.736   1.272  23.158
16261SOL    HW160411   0.653   1.252  23.202
16261SOL    HW260412   0.803   1.231  23.213
16262SOL     OW60413   0.670   2.035   0.149
16262SOL    HW160414   0.760   2.060   0.126
16262SOL    HW260415   0.624   2.033   0.065
16263SOL     OW60416   1.059   1.991  20.452
16263SOL    HW160417   1.015   1.969  20.370
16263SOL    HW260418   1.093   1.908  20.485
16264SOL     OW60419   1.604   3.836  26.243
16264SOL    HW160420   1.573   3.925  26.262
16264SOL    HW260421   1.574   3.818  26.154
16265SOL     OW60422   1.715   3.925   7.651
16265SOL    HW160423   1.693   3.834   7.668
16265SOL    HW260424   1.788   3.920   7.589
16266SOL     OW60425   2.681   4.766  21.392
16266SOL    HW160426   2.717   0.062  21.347
16266SOL    HW260427   2.627   0.022  21.462
16267SOL     OW60428   2.017   2.406   5.267
16267SOL    HW160429   2.065   2.323   5.262
16267SOL    HW260430   1.931   2.386   5.230
16268SOL     OW60431   2.587   2.164  26.857
16268SOL    HW160432   2.571   2.235  26.920
16268SOL    HW260433   2.518   2.174  26.792
16269SOL     OW60434   0.984   0.835   5.230
16269SOL    HW160435   0.947   0.903   5.174
16269SOL    HW260436   0.924   0.831   5.305
16270SOL     OW60437   1.409   4.227  19.226
16270SOL    HW160438   1.410   4.230  19.130
16270SOL    HW260439   1.474   4.160  19.249
16271SOL     OW60440   2.106   3.404  26.555
16271SOL    HW160441   2.145   3.408  26.642
16271SOL    HW260442   2.040   3.473  26.556
16272SOL     OW60443   3.424   0.603   6.145
16272SOL    HW160444   3.410   0.679   6.088
16272SOL    HW260445   3.449   0.532   6.085
16273SOL     OW60446   3.313   3.144   1.706
16273SOL    HW160447   3.310   3.168   1.613
16273SOL    HW260448   3.397   3.100   1.717
16274SOL     OW60449   2.241   3.461   0.674
16274SOL    HW160450   2.327   3.468   0.715
16274SOL    HW260451   2.229   3.367   0.659
16275SOL     OW60452   4.290   1.800   8.639
16275SOL    HW160453   4.256   1.889   8.629
16275SOL    HW260454   4.212   1.745   8.649
16276SOL     OW60455   4.284   4.239  28.290
16276SOL    HW160456   4.201   4.267  28.328
16276SOL    HW260457   4.262   4.217  28.199
16277SOL     OW60458   0.838   3.395   8.379
16277SOL    HW160459   0.774   3.359   8.440
16277SOL    HW260460   0.921   3.393   8.427
16278SOL     OW60461   3.249   1.486  24.527
16278SOL    HW160462   3.190   1.559  24.509
16278SOL    HW260463   3.218   1.415  24.470
16279SOL     OW60464   1.263   0.598   2.440
16279SOL    HW160465   1.238   0.528   2.379
16279SOL    HW260466   1.283   0.673   2.383
16280SOL     OW60467   4.276   0.115   7.477
16280SOL    HW160468   4.302   0.093   7.388
16280SOL    HW260469   4.181   0.107   7.476
16281SOL     OW60470   1.425   1.805  26.682
16281SOL    HW160471   1.412   1.721  26.638
16281SOL    HW260472   1.484   1.785  26.755
16282SOL     OW60473   3.313   2.520  17.193
16282SOL    HW160474   3.257   2.449  17.225
16282SOL    HW260475   3.266   2.555  17.117
16283SOL     OW60476   3.955   3.200   6.019
16283SOL    HW160477   3.952   3.255   6.097
16283SOL    HW260478   4.033   3.145   6.032
16284SOL     OW60479   2.377   4.174  23.871
16284SOL    HW160480   2.303   4.188  23.930
16284SOL    HW260481   2.340   4.126  23.797
16285SOL     OW60482   0.798   2.839   7.472
16285SOL    HW160483   0.733   2.769   7.479
16285SOL    HW260484   0.751   2.912   7.431
16286SOL     OW60485   1.929   1.887   8.464
16286SOL    HW160486   1.961   1.803   8.431
16286SOL    HW260487   1.836   1.888   8.441
16287SOL     OW60488   1.928   1.368  27.454
16287SOL    HW160489   1.884   1.288  27.425
16287SOL    HW260490   2.007   1.373  27.400
16288SOL     OW60491   1.753   3.525   2.881
16288SOL    HW160492   1.702   3.507   2.802
16288SOL    HW260493   1.753   3.443   2.930
16289SOL     OW60494   1.785   3.259   4.290
16289SOL    HW160495   1.817   3.327   4.349
16289SOL    HW260496   1.858   3.242   4.230
16290SOL     OW60497   1.327   0.625   5.495
16290SOL    HW160498   1.396   0.681   5.458
16290SOL    HW260499   1.320   0.653   5.586
16291SOL     OW60500   3.767   1.591   2.847
16291SOL    HW160501   3.845   1.596   2.792
16291SOL    HW260502   3.782   1.655   2.916
16292SOL     OW60503   3.762   0.598   4.468
16292SOL    HW160504   3.743   0.586   4.561
16292SOL    HW260505   3.831   0.534   4.449
16293SOL     OW60506   0.746   1.892   5.838
16293SOL    HW160507   0.823   1.886   5.782
16293SOL    HW260508   0.749   1.981   5.874
16294SOL     OW60509   1.290   2.413   3.268
16294SOL    HW160510   1.290   2.330   3.221
16294SOL    HW260511   1.363   2.462   3.230
16295SOL     OW60512   3.067   2.926  19.254
16295SOL    HW160513   3.063   2.880  19.338
16295SOL    HW260514   3.006   2.999  19.263
16296SOL     OW60515   1.911   0.166   3.831
16296SOL    HW160516   1.861   0.223   3.890
16296SOL    HW260517   1.925   0.086   3.882
16297SOL     OW60518   0.119   1.152  17.927
16297SOL    HW160519   0.093   1.117  17.842
16297SOL    HW260520   0.047   1.209  17.953
16298SOL     OW60521   4.437   0.642   3.272
16298SOL    HW160522   4.508   0.617   3.214
16298SOL    HW260523   4.419   0.564   3.324
16299SOL     OW60524   2.340   2.247   9.078
16299SOL    HW160525   2.408   2.196   9.122
16299SOL    HW260526   2.261   2.233   9.131
16300SOL     OW60527   2.974   3.191  22.687
16300SOL    HW160528   2.924   3.272  22.676
16300SOL    HW260529   2.910   3.121  22.676
16301SOL     OW60530   1.899   3.751  22.841
16301SOL    HW160531   1.843   3.825  22.819
16301SOL    HW260532   1.878   3.731  22.932
16302SOL     OW60533   2.456   0.095   7.462
16302SOL    HW160534   2.487   0.184   7.478
16302SOL    HW260535   2.412   0.100   7.377
16303SOL     OW60536   2.332   3.030  24.503
16303SOL    HW160537   2.356   2.997  24.590
16303SOL    HW260538   2.269   3.100  24.520
16304SOL     OW60539   0.161   1.550  25.080
16304SOL    HW160540   0.074   1.533  25.043
16304SOL    HW260541   0.207   1.599  25.012
16305SOL     OW60542   4.556   1.444   3.384
16305SOL    HW160543   4.521   1.368   3.429
16305SOL    HW260544   4.545   1.516   3.446
16306SOL     OW60545   4.118   1.123  19.779
16306SOL    HW160546   4.085   1.140  19.867
16306SOL    HW260547   4.128   1.210  19.740
16307SOL     OW60548   0.100   2.509   1.172
16307SOL    HW160549   0.128   2.540   1.086
16307SOL    HW260550   0.046   2.432   1.153
16308SOL     OW60551   0.090   1.443  22.329
16308SOL    HW160552   0.066   1.506  22.261
16308SOL    HW260553   0.048   1.475  22.408
16309SOL     OW60554   2.113   0.740  21.748
16309SOL    HW160555   2.156   0.814  21.706
16309SOL    HW260556   2.061   0.779  21.818
16310SOL     OW60557   2.590   4.098   2.411
16310SOL    HW160558   2.534   4.170   2.441
16310SOL    HW260559   2.560   4.080   2.322
16311SOL     OW60560   2.418   3.256   8.154
16311SOL    HW160561   2.401   3.265   8.248
16311SOL    HW260562   2.399   3.342   8.118
16312SOL     OW60563   3.290   0.668  24.316
16312SOL    HW160564   3.277   0.693  24.407
16312SOL    HW260565   3.237   0.730  24.266
16313SOL     OW60566   3.531   3.063   2.705
16313SOL    HW160567   3.523   2.980   2.657
16313SOL    HW260568   3.623   3.087   2.698
16314SOL     OW60569   3.371   4.646  26.311
16314SOL    HW160570   3.277   4.631  26.322
16314SOL    HW260571   3.394   4.596  26.233
16315SOL     OW60572   3.968   3.359  17.436
16315SOL    HW160573   4.061   3.382  17.440
16315SOL    HW260574   3.930   3.424  17.376
16316SOL     OW60575   1.500   2.807   9.186
16316SOL    HW160576   1.448   2.888   9.185
16316SOL    HW260577   1.517   2.788   9.094
16317SOL     OW60578   0.474   2.639  20.239
16317SOL    HW160579   0.560   2.677  20.255
16317SOL    HW260580   0.486   2.585  20.161
16318SOL     OW60581   0.220   1.139   9.859
16318SOL    HW160582   0.247   1.163   9.770
16318SOL    HW260583   0.251   1.049   9.871
16319SOL     OW60584   3.714   1.763   7.630
16319SOL    HW160585   3.768   1.684   7.627
16319SOL    HW260586   3.682   1.774   7.541
16320SOL     OW60587   1.004   0.729   3.861
16320SOL    HW160588   1.016   0.639   3.892
16320SOL    HW260589   1.050   0.732   3.777
16321SOL     OW60590   0.951   0.963  24.264
16321SOL    HW160591   0.920   0.876  24.290
16321SOL    HW260592   1.034   0.946  24.219
16322SOL     OW60593   1.685   0.770  21.687
16322SOL    HW160594   1.743   0.814  21.626
16322SOL    HW260595   1.649   0.696  21.637
16323SOL     OW60596   4.055   2.591   6.743
16323SOL    HW160597   4.046   2.658   6.675
16323SOL    HW260598   4.143   2.605   6.778
16324SOL     OW60599   3.331   1.054   0.947
16324SOL    HW160600   3.394   1.041   0.876
16324SOL    HW260601   3.248   1.024   0.911
16325SOL     OW60602   1.887   3.228   0.589
16325SOL    HW160603   1.856   3.178   0.513
16325SOL    HW260604   1.885   3.319   0.561
16326SOL     OW60605   1.827   4.131  18.034
16326SOL    HW160606   1.849   4.222  18.013
16326SOL    HW260607   1.854   4.082  17.957
16327SOL     OW60608   0.267   0.920   6.847
16327SOL    HW160609   0.196   0.927   6.910
16327SOL    HW260610   0.305   0.833   6.863
16328SOL     OW60611   2.026   1.110   6.674
16328SOL    HW160612   2.064   1.099   6.761
16328SOL    HW260613   1.964   1.182   6.684
16329SOL     OW60614   2.006   0.297  17.701
16329SOL    HW160615   1.992   0.253  17.617
16329SOL    HW260616   1.918   0.312  17.735
16330SOL     OW60617   1.071   0.473   3.361
16330SOL    HW160618   1.160   0.491   3.393
16330SOL    HW260619   1.038   0.406   3.420
16331SOL     OW60620   4.236   4.554   6.896
16331SOL    HW160621   4.216   4.502   6.974
16331SOL    HW260622   4.159   4.610   6.883
16332SOL     OW60623   3.265   2.845  23.778
16332SOL    HW160624   3.196   2.840  23.844
16332SOL    HW260625   3.346   2.851  23.829
16333SOL     OW60626   3.211   0.879   7.732
16333SOL    HW160627   3.191   0.972   7.721
16333SOL    HW260628   3.300   0.877   7.767
16334SOL     OW60629   1.094   2.234  27.653
16334SOL    HW160630   1.085   2.307  27.592
16334SOL    HW260631   1.033   2.254  27.724
16335SOL     OW60632   3.078   2.145  20.052
16335SOL    HW160633   3.123   2.099  19.981
16335SOL    HW260634   3.096   2.092  20.130
16336SOL     OW60635   2.423   2.190  21.356
16336SOL    HW160636   2.501   2.152  21.397
16336SOL    HW260637   2.450   2.279  21.332
16337SOL     OW60638   1.151   3.942   4.245
16337SOL    HW160639   1.128   3.878   4.178
16337SOL    HW260640   1.069   3.989   4.263
16338SOL     OW60641   1.644   1.716  22.121
16338SOL    HW160642   1.701   1.640  22.109
16338SOL    HW260643   1.584   1.689  22.190
16339SOL     OW60644   2.199   0.267   4.742
16339SOL    HW160645   2.213   0.347   4.691
16339SOL    HW260646   2.258   0.203   4.702
16340SOL     OW60647   3.430   4.774  25.132
16340SOL    HW160648   3.512   0.037  25.110
16340SOL    HW260649   3.434   4.690  25.085
16341SOL     OW60650   0.162   3.984  17.204
16341SOL    HW160651   0.218   4.036  17.146
16341SOL    HW260652   0.076   3.984  17.161
16342SOL     OW60653   1.944   0.722  11.063
16342SOL    HW160654   1.954   0.730  11.158
16342SOL    HW260655   2.028   0.689  11.032
16343SOL     OW60656   4.745   3.418  22.149
16343SOL    HW160657   4.651   3.427  22.136
16343SOL    HW260658   0.002   3.501  22.119
16344SOL     OW60659   3.331   4.267   5.467
16344SOL    HW160660   3.277   4.265   5.546
16344SOL    HW260661   3.420   4.279   5.499
16345SOL     OW60662   2.264   3.350   4.208
16345SOL    HW160663   2.274   3.442   4.185
16345SOL    HW260664   2.343   3.330   4.258
16346SOL     OW60665   3.064   0.774  19.841
16346SOL    HW160666   3.159   0.785  19.846
16346SOL    HW260667   3.040   0.733  19.924
16347SOL     OW60668   4.707   3.428  28.296
16347SOL    HW160669   4.648   3.472  28.357
16347SOL    HW260670   4.738   3.498  28.239
16348SOL     OW60671   1.027   1.211  17.562
16348SOL    HW160672   0.942   1.203  17.605
16348SOL    HW260673   1.006   1.245  17.475
16349SOL     OW60674   0.219   3.912   4.280
16349SOL    HW160675   0.293   3.935   4.335
16349SOL    HW260676   0.248   3.835   4.232
16350SOL     OW60677   1.229   3.957   2.856
16350SOL    HW160678   1.142   3.989   2.833
16350SOL    HW260679   1.273   3.946   2.772
16351SOL     OW60680   0.747   1.774  27.694
16351SOL    HW160681   0.838   1.783  27.665
16351SOL    HW260682   0.754   1.735  27.781
16352SOL     OW60683   2.827   3.033  26.887
16352SOL    HW160684   2.884   2.957  26.899
16352SOL    HW260685   2.839   3.058  26.795
16353SOL     OW60686   1.987   0.248  25.891
16353SOL    HW160687   1.911   0.306  25.882
16353SOL    HW260688   2.008   0.251  25.984
16354SOL     OW60689   4.004   4.712   1.763
16354SOL    HW160690   4.093   4.690   1.791
16354SOL    HW260691   3.970   4.631   1.724
16355SOL     OW60692   1.598   4.777   9.005
16355SOL    HW160693   1.505   4.753   9.001
16355SOL    HW260694   1.598   0.092   9.012
16356SOL     OW60695   3.811   4.397   6.455
16356SOL    HW160696   3.896   4.377   6.417
16356SOL    HW260697   3.797   4.490   6.435
16357SOL     OW60698   2.564   0.963   4.171
16357SOL    HW160699   2.642   1.012   4.146
16357SOL    HW260700   2.491   1.018   4.143
16358SOL     OW60701   2.673   1.833  25.095
16358SOL    HW160702   2.712   1.918  25.116
16358SOL    HW260703   2.748   1.774  25.088
16359SOL     OW60704   3.602   1.540  19.287
16359SOL    HW160705   3.560   1.626  19.281
16359SOL    HW260706   3.529   1.478  19.291
16360SOL     OW60707   0.982   4.718   1.654
16360SOL    HW160708   1.055   4.661   1.631
16360SOL    HW260709   0.907   4.659   1.660
16361SOL     OW60710   1.280   1.920  20.142
16361SOL    HW160711   1.321   1.835  20.128
16361SOL    HW260712   1.348   1.973  20.183
16362SOL     OW60713   3.943   3.552   1.740
16362SOL    HW160714   3.868   3.496   1.759
16362SOL    HW260715   3.981   3.514   1.661
16363SOL     OW60716   0.010   3.162  24.089
16363SOL    HW160717   0.003   3.223  24.162
16363SOL    HW260718   0.042   3.081  24.128
16364SOL     OW60719   4.302   3.520  22.043
16364SOL    HW160720   4.331   3.555  22.127
16364SOL    HW260721   4.212   3.491  22.059
16365SOL     OW60722   4.464   3.111  16.926
16365SOL    HW160723   4.552   3.097  16.890
16365SOL    HW260724   4.422   3.025  16.921
16366SOL     OW60725   1.374   2.938   8.178
16366SOL    HW160726   1.293   2.948   8.228
16366SOL    HW260727   1.419   3.022   8.187
16367SOL     OW60728   2.925   2.443  19.135
16367SOL    HW160729   2.835   2.412  19.146
16367SOL    HW260730   2.936   2.449  19.040
16368SOL     OW60731   1.526   3.289  23.538
16368SOL    HW160732   1.591   3.353  23.567
16368SOL    HW260733   1.542   3.212  23.592
16369SOL     OW60734   4.773   2.723  26.983
16369SOL    HW160735   4.725   2.735  27.065
16369SOL    HW260736   0.083   2.747  27.004
16370SOL     OW60737   4.520   2.892   4.727
16370SOL    HW160738   4.473   2.870   4.647
16370SOL    HW260739   4.453   2.888   4.796
16371SOL     OW60740   2.270   4.194   1.464
16371SOL    HW160741   2.327   4.223   1.393
16371SOL    HW260742   2.249   4.103   1.442
16372SOL     OW60743   4.259   2.981  21.683
16372SOL    HW160744   4.262   2.896  21.640
16372SOL    HW260745   4.241   2.961  21.775
16373SOL     OW60746   2.547   2.791  27.711
16373SOL    HW160747   2.589   2.705  27.715
16373SOL    HW260748   2.506   2.801  27.797
16374SOL     OW60749   0.878   4.550   0.642
16374SOL    HW160750   0.953   4.499   0.674
16374SOL    HW260751   0.846   4.597   0.719
16375SOL     OW60752   2.548   3.666   3.958
16375SOL    HW160753   2.541   3.705   3.871
16375SOL    HW260754   2.640   3.676   3.982
16376SOL     OW60755   4.588   3.115   0.641
16376SOL    HW160756   4.626   3.195   0.677
16376SOL    HW260757   4.626   3.108   0.554
16377SOL     OW60758   3.861   2.916  28.072
16377SOL    HW160759   3.879   2.934  27.980
16377SOL    HW260760   3.774   2.952  28.087
16378SOL     OW60761   1.534   3.452   6.919
16378SOL    HW160762   1.539   3.548   6.923
16378SOL    HW260763   1.490   3.427   7.000
16379SOL     OW60764   2.296   3.639   4.382
16379SOL    HW160765   2.309   3.639   4.287
16379SOL    HW260766   2.366   3.695   4.416
16380SOL     OW60767   0.281   1.756  19.280
16380SOL    HW160768   0.274   1.666  19.249
16380SOL    HW260769   0.221   1.761  19.355
16381SOL     OW60770   0.713   1.644   8.366
16381SOL    HW160771   0.659   1.722   8.377
16381SOL    HW260772   0.666   1.576   8.415
16382SOL     OW60773   2.258   1.866  18.379
16382SOL    HW160774   2.175   1.894  18.418
16382SOL    HW260775   2.288   1.942  18.329
16383SOL     OW60776   1.716   2.624  21.085
16383SOL    HW160777   1.749   2.712  21.066
16383SOL    HW260778   1.668   2.599  21.006
16384SOL     OW60779   4.495   0.529   2.131
16384SOL    HW160780   4.438   0.600   2.161
16384SOL    HW260781   4.486   0.531   2.036
16385SOL     OW60782   1.771   1.649   8.814
16385SOL    HW160783   1.820   1.730   8.802
16385SOL    HW260784   1.695   1.658   8.756
16386SOL     OW60785   2.087   0.585  24.750
16386SOL    HW160786   2.102   0.566  24.842
16386SOL    HW260787   2.145   0.525  24.703
16387SOL     OW60788   3.103   1.103  27.252
16387SOL    HW160789   3.169   1.168  27.228
16387SOL    HW260790   3.029   1.121  27.194
16388SOL     OW60791   0.681   0.350   5.556
16388SOL    HW160792   0.761   0.334   5.606
16388SOL    HW260793   0.702   0.425   5.501
16389SOL     OW60794   4.325   1.814  18.691
16389SOL    HW160795   4.363   1.896  18.723
16389SOL    HW260796   4.310   1.829  18.598
16390SOL     OW60797   0.946   0.180   1.775
16390SOL    HW160798   0.850   0.177   1.778
16390SOL    HW260799   0.971   0.098   1.732
16391SOL     OW60800   3.209   0.315  20.812
16391SOL    HW160801   3.128   0.293  20.859
16391SOL    HW260802   3.182   0.322  20.720
16392SOL     OW60803   2.264   1.039  20.292
16392SOL    HW160804   2.224   0.958  20.262
16392SOL    HW260805   2.273   1.092  20.213
16393SOL     OW60806   0.850   3.702  18.879
16393SOL    HW160807   0.895   3.755  18.945
16393SOL    HW260808   0.907   3.706  18.802
16394SOL     OW60809   3.642   1.043  24.440
16394SOL    HW160810   3.722   1.095  24.434
16394SOL    HW260811   3.614   1.053  24.531
16395SOL     OW60812   3.640   0.069   5.416
16395SOL    HW160813   3.618   0.044   5.506
16395SOL    HW260814   3.694   0.147   5.425
16396SOL     OW60815   3.664   1.968   5.991
16396SOL    HW160816   3.621   2.040   6.036
16396SOL    HW260817   3.592   1.914   5.958
16397SOL     OW60818   1.758   3.291  21.955
16397SOL    HW160819   1.767   3.373  22.003
16397SOL    HW260820   1.684   3.246  21.997
16398SOL     OW60821   0.015   2.674  21.393
16398SOL    HW160822   4.713   2.698  21.350
16398SOL    HW260823   0.059   2.618  21.330
16399SOL     OW60824   1.982   3.054  28.009
16399SOL    HW160825   2.074   3.061  27.983
16399SOL    HW260826   1.934   3.095  27.937
16400SOL     OW60827   3.335   3.746   1.813
16400SOL    HW160828   3.302   3.821   1.862
16400SOL    HW260829   3.429   3.747   1.829
16401SOL     OW60830   1.160   2.536   1.294
16401SOL    HW160831   1.193   2.448   1.311
16401SOL    HW260832   1.065   2.526   1.292
16402SOL     OW60833   0.633   0.099   6.299
16402SOL    HW160834   0.658   0.099   6.391
16402SOL    HW260835   0.678   0.175   6.262
16403SOL     OW60836   4.646   3.638   4.755
16403SOL    HW160837   4.620   3.703   4.821
16403SOL    HW260838   4.685   3.690   4.684
16404SOL     OW60839   0.495   0.538  24.736
16404SOL    HW160840   0.453   0.624  24.747
16404SOL    HW260841   0.425   0.475  24.753
16405SOL     OW60842   3.651   2.124   7.091
16405SOL    HW160843   3.710   2.184   7.136
16405SOL    HW260844   3.708   2.057   7.054
16406SOL     OW60845   3.357   0.874   8.419
16406SOL    HW160846   3.444   0.851   8.452
16406SOL    HW260847   3.347   0.822   8.339
16407SOL     OW60848   4.128   3.983  25.573
16407SOL    HW160849   4.171   4.047  25.630
16407SOL    HW260850   4.108   4.032  25.493
16408SOL     OW60851   0.774   2.283  17.980
16408SOL    HW160852   0.768   2.379  17.981
16408SOL    HW260853   0.717   2.256  17.908
16409SOL     OW60854   3.036   2.827  21.454
16409SOL    HW160855   3.078   2.753  21.411
16409SOL    HW260856   3.102   2.859  21.516
16410SOL     OW60857   4.719   4.630  25.061
16410SOL    HW160858   4.670   4.553  25.089
16410SOL    HW260859   4.666   4.668  24.991
16411SOL     OW60860   1.157   2.870   4.071
16411SOL    HW160861   1.234   2.827   4.035
16411SOL    HW260862   1.150   2.836   4.160
16412SOL     OW60863   3.562   2.517  17.830
16412SOL    HW160864   3.509   2.569  17.769
16412SOL    HW260865   3.607   2.582  17.884
16413SOL     OW60866   4.510   1.885  28.447
16413SOL    HW160867   4.427   1.860  28.407
16413SOL    HW260868   4.567   1.906  28.373
16414SOL     OW60869   4.214   3.189   1.074
16414SOL    HW160870   4.235   3.183   0.981
16414SOL    HW260871   4.236   3.279   1.098
16415SOL     OW60872   1.803   4.546  20.888
16415SOL    HW160873   1.859   4.597  20.829
16415SOL    HW260874   1.864   4.504  20.949
16416SOL     OW60875   2.290   0.482   3.706
16416SOL    HW160876   2.323   0.525   3.785
16416SOL    HW260877   2.347   0.514   3.636
16417SOL     OW60878   1.099   1.686   6.690
16417SOL    HW160879   1.063   1.611   6.738
16417SOL    HW260880   1.024   1.721   6.642
16418SOL     OW60881   4.234   1.754  24.929
16418SOL    HW160882   4.329   1.767  24.936
16418SOL    HW260883   4.213   1.773  24.838
16419SOL     OW60884   1.559   0.860   9.751
16419SOL    HW160885   1.574   0.831   9.661
16419SOL    HW260886   1.465   0.850   9.765
16420SOL     OW60887   1.981   0.106   3.041
16420SOL    HW160888   2.028   0.153   3.110
16420SOL    HW260889   2.040   0.110   2.965
16421SOL     OW60890   0.553   4.491   0.632
16421SOL    HW160891   0.492   4.565   0.636
16421SOL    HW260892   0.639   4.530   0.646
16422SOL     OW60893   1.064   0.439   5.807
16422SOL    HW160894   1.047   0.526   5.771
16422SOL    HW260895   1.079   0.454   5.900
16423SOL     OW60896   2.559   0.958   9.087
16423SOL    HW160897   2.624   0.945   9.018
16423SOL    HW260898   2.604   1.010   9.153
16424SOL     OW60899   3.860   1.086   1.553
16424SOL    HW160900   3.776   1.106   1.512
16424SOL    HW260901   3.888   1.005   1.511
16425SOL     OW60902   1.528   1.333  26.788
16425SOL    HW160903   1.623   1.344  26.779
16425SOL    HW260904   1.514   1.324  26.882
16426SOL     OW60905   4.138   4.333  25.887
16426SOL    HW160906   4.081   4.375  25.951
16426SOL    HW260907   4.158   4.402  25.824
16427SOL     OW60908   2.372   1.157  17.722
16427SOL    HW160909   2.390   1.217  17.650
16427SOL    HW260910   2.279   1.168  17.740
16428SOL     OW60911   4.453   1.506  17.674
16428SOL    HW160912   4.423   1.423  17.710
16428SOL    HW260913   4.424   1.505  17.583
16429SOL     OW60914   3.500   2.620   3.851
16429SOL    HW160915   3.566   2.564   3.891
16429SOL    HW260916   3.518   2.617   3.757
16430SOL     OW60917   2.455   4.461   4.735
16430SOL    HW160918   2.510   4.514   4.793
16430SOL    HW260919   2.366   4.473   4.768
16431SOL     OW60920   3.945   4.780  22.748
16431SOL    HW160921   3.936   0.082  22.701
16431SOL    HW260922   4.039   4.770  22.762
16432SOL     OW60923   1.424   2.492  22.094
16432SOL    HW160924   1.457   2.526  22.011
16432SOL    HW260925   1.421   2.397  22.082
16433SOL     OW60926   0.299   3.808  24.679
16433SOL    HW160927   0.302   3.894  24.722
16433SOL    HW260928   0.385   3.770  24.696
16434SOL     OW60929   4.572   2.378  22.434
16434SOL    HW160930   4.497   2.385  22.375
16434SOL    HW260931   4.639   2.433  22.394
16435SOL     OW60932   0.738   1.317  19.926
16435SOL    HW160933   0.734   1.387  19.861
16435SOL    HW260934   0.666   1.336  19.986
16436SOL     OW60935   2.483   4.319   6.387
16436SOL    HW160936   2.420   4.298   6.318
16436SOL    HW260937   2.555   4.258   6.374
16437SOL     OW60938   2.110   2.735   7.050
16437SOL    HW160939   2.122   2.813   7.104
16437SOL    HW260940   2.198   2.711   7.021
16438SOL     OW60941   4.168   3.233  15.877
16438SOL    HW160942   4.109   3.158  15.882
16438SOL    HW260943   4.111   3.307  15.855
16439SOL     OW60944   2.525   2.850  20.325
16439SOL    HW160945   2.501   2.806  20.406
16439SOL    HW260946   2.595   2.796  20.288
16440SOL     OW60947   4.149   2.760   4.930
16440SOL    HW160948   4.075   2.719   4.886
16440SOL    HW260949   4.137   2.738   5.022
16441SOL     OW60950   0.314   0.699  23.050
16441SOL    HW160951   0.407   0.716  23.036
16441SOL    HW260952   0.308   0.671  23.141
16442SOL     OW60953   0.333   3.151  27.496
16442SOL    HW160954   0.354   3.120  27.408
16442SOL    HW260955   0.328   3.072  27.549
16443SOL     OW60956   1.383   3.933   0.409
16443SOL    HW160957   1.316   3.941   0.476
16443SOL    HW260958   1.396   4.022   0.377
16444SOL     OW60959   2.469   3.732   0.762
16444SOL    HW160960   2.487   3.788   0.687
16444SOL    HW260961   2.379   3.754   0.788
16445SOL     OW60962   1.289   4.022  18.872
16445SOL    HW160963   1.258   3.983  18.954
16445SOL    HW260964   1.305   4.114  18.894
16446SOL     OW60965   3.338   0.939  26.343
16446SOL    HW160966   3.247   0.911  26.336
16446SOL    HW260967   3.334   1.024  26.387
16447SOL     OW60968   3.106   4.421   1.914
16447SOL    HW160969   3.136   4.376   1.993
16447SOL    HW260970   3.021   4.382   1.894
16448SOL     OW60971   1.033   4.334  26.056
16448SOL    HW160972   0.950   4.382  26.062
16448SOL    HW260973   1.042   4.313  25.963
16449SOL     OW60974   4.272   0.422   7.825
16449SOL    HW160975   4.261   0.332   7.857
16449SOL    HW260976   4.313   0.469   7.898
16450SOL     OW60977   1.696   1.160   8.400
16450SOL    HW160978   1.734   1.073   8.393
16450SOL    HW260979   1.612   1.146   8.443
16451SOL     OW60980   2.515   0.675  24.948
16451SOL    HW160981   2.533   0.721  24.866
16451SOL    HW260982   2.580   0.709  25.010
16452SOL     OW60983   3.107   3.760  24.819
16452SOL    HW160984   3.196   3.740  24.789
16452SOL    HW260985   3.092   3.698  24.890
16453SOL     OW60986   2.901   1.498   2.129
16453SOL    HW160987   2.933   1.585   2.151
16453SOL    HW260988   2.811   1.512   2.098
16454SOL     OW60989   0.550   2.695   4.913
16454SOL    HW160990   0.602   2.618   4.936
16454SOL    HW260991   0.473   2.659   4.868
16455SOL     OW60992   1.490   3.027   5.824
16455SOL    HW160993   1.535   3.044   5.741
16455SOL    HW260994   1.442   3.108   5.843
16456SOL     OW60995   4.118   2.417   4.339
16456SOL    HW160996   4.147   2.345   4.395
16456SOL    HW260997   4.125   2.495   4.394
16457SOL     OW60998   2.249   3.410   3.496
16457SOL    HW160999   2.291   3.464   3.563
16457SOL    HW261000   2.161   3.392   3.530
16458SOL     OW61001   3.293   3.428   1.717
16458SOL    HW161002   3.290   3.333   1.710
16458SOL    HW261003   3.304   3.459   1.627
16459SOL     OW61004   3.581   1.589  21.318
16459SOL    HW161005   3.586   1.603  21.413
16459SOL    HW261006   3.663   1.545  21.296
16460SOL     OW61007   4.498   3.689  25.322
16460SOL    HW161008   4.439   3.719  25.253
16460SOL    HW261009   4.440   3.664  25.394
16461SOL     OW61010   3.775   2.355   0.948
16461SOL    HW161011   3.817   2.434   0.914
16461SOL    HW261012   3.769   2.296   0.873
16462SOL     OW61013   3.754   1.806  21.639
16462SOL    HW161014   3.759   1.853  21.556
16462SOL    HW261015   3.669   1.763  21.638
16463SOL     OW61016   0.088   0.693  18.977
16463SOL    HW161017   4.779   0.690  18.944
16463SOL    HW261018   0.142   0.672  18.901
16464SOL     OW61019   3.544   0.999   3.728
16464SOL    HW161020   3.622   0.978   3.676
16464SOL    HW261021   3.511   0.914   3.758
16465SOL     OW61022   2.173   2.971  22.823
16465SOL    HW161023   2.266   2.957  22.838
16465SOL    HW261024   2.131   2.946  22.905
16466SOL     OW61025   1.419   0.714  21.035
16466SOL    HW161026   1.442   0.797  20.994
16466SOL    HW261027   1.347   0.736  21.094
16467SOL     OW61028   2.910   1.550  24.950
16467SOL    HW161029   3.004   1.569  24.949
16467SOL    HW261030   2.894   1.502  24.869
16468SOL     OW61031   2.496   4.406   6.679
16468SOL    HW161032   2.501   4.500   6.660
16468SOL    HW261033   2.476   4.366   6.594
16469SOL     OW61034   2.275   3.806   8.511
16469SOL    HW161035   2.209   3.785   8.445
16469SOL    HW261036   2.322   3.724   8.525
16470SOL     OW61037   1.838   2.191   0.718
16470SOL    HW161038   1.893   2.139   0.777
16470SOL    HW261039   1.759   2.210   0.768
16471SOL     OW61040   0.391   0.713  18.310
16471SOL    HW161041   0.339   0.784  18.346
16471SOL    HW261042   0.425   0.748  18.227
16472SOL     OW61043   1.335   4.713   6.317
16472SOL    HW161044   1.392   4.743   6.388
16472SOL    HW261045   1.277   0.007   6.300
16473SOL     OW61046   1.137   1.655   0.914
16473SOL    HW161047   1.161   1.573   0.871
16473SOL    HW261048   1.205   1.668   0.980
16474SOL     OW61049   4.574   1.129   9.398
16474SOL    HW161050   4.560   1.047   9.352
16474SOL    HW261051   4.637   1.107   9.467
16475SOL     OW61052   2.599   0.386   8.341
16475SOL    HW161053   2.638   0.357   8.258
16475SOL    HW261054   2.636   0.327   8.407
16476SOL     OW61055   1.521   2.520  26.445
16476SOL    HW161056   1.458   2.450  26.429
16476SOL    HW261057   1.488   2.565  26.523
16477SOL     OW61058   1.419   1.890  22.524
16477SOL    HW161059   1.476   1.952  22.570
16477SOL    HW261060   1.343   1.942  22.497
16478SOL     OW61061   3.229   1.751   0.521
16478SOL    HW161062   3.315   1.777   0.489
16478SOL    HW261063   3.235   1.760   0.616
16479SOL     OW61064   2.327   2.484   1.443
16479SOL    HW161065   2.382   2.472   1.520
16479SOL    HW261066   2.238   2.487   1.478
16480SOL     OW61067   4.422   1.468   5.468
16480SOL    HW161068   4.372   1.468   5.549
16480SOL    HW261069   4.378   1.404   5.412
16481SOL     OW61070   3.790   1.084  27.604
16481SOL    HW161071   3.734   1.093  27.682
16481SOL    HW261072   3.787   1.170  27.563
16482SOL     OW61073   0.518   3.832   0.581
16482SOL    HW161074   0.471   3.815   0.499
16482SOL    HW261075   0.507   3.752   0.632
16483SOL     OW61076   4.058   4.664  21.763
16483SOL    HW161077   4.123   4.669  21.693
16483SOL    HW261078   4.094   4.719  21.833
16484SOL     OW61079   1.798   0.738   0.758
16484SOL    HW161080   1.867   0.712   0.697
16484SOL    HW261081   1.727   0.675   0.742
16485SOL     OW61082   1.487   4.736   9.337
16485SOL    HW161083   1.489   0.048   9.363
16485SOL    HW261084   1.406   4.702   9.375
16486SOL     OW61085   0.102   4.522  10.360
16486SOL    HW161086   0.191   4.511  10.393
16486SOL    HW261087   0.051   4.549  10.436
16487SOL     OW61088   2.227   3.644  19.131
16487SOL    HW161089   2.143   3.638  19.177
16487SOL    HW261090   2.290   3.601  19.189
16488SOL     OW61091   2.187   1.300  21.378
16488SOL    HW161092   2.101   1.316  21.339
16488SOL    HW261093   2.196   1.205  21.379
16489SOL     OW61094   1.111   1.466   1.136
16489SOL    HW161095   1.096   1.555   1.168
16489SOL    HW261096   1.203   1.448   1.156
16490SOL     OW61097   4.523   0.259   5.676
16490SOL    HW161098   4.514   0.351   5.650
16490SOL    HW261099   4.478   0.254   5.760
16491SOL     OW61100   4.671   0.923   2.982
16491SOL    HW161101   4.635   0.929   2.893
16491SOL    HW261102   4.765   0.935   2.970
16492SOL     OW61103   3.860   3.932   8.846
16492SOL    HW161104   3.806   4.001   8.807
16492SOL    HW261105   3.797   3.875   8.890
16493SOL     OW61106   1.637   0.569  17.851
16493SOL    HW161107   1.708   0.633  17.851
16493SOL    HW261108   1.558   0.620  17.831
16494SOL     OW61109   3.018   4.514  20.096
16494SOL    HW161110   3.058   4.462  20.026
16494SOL    HW261111   3.001   4.599  20.056
16495SOL     OW61112   1.130   3.149   5.708
16495SOL    HW161113   1.042   3.154   5.670
16495SOL    HW261114   1.120   3.183   5.797
16496SOL     OW61115   4.524   0.442   1.132
16496SOL    HW161116   4.442   0.478   1.167
16496SOL    HW261117   4.514   0.347   1.139
16497SOL     OW61118   4.039   0.184  25.499
16497SOL    HW161119   3.965   0.226  25.543
16497SOL    HW261120   4.022   0.090  25.506
16498SOL     OW61121   0.465   4.754  16.196
16498SOL    HW161122   0.410   0.052  16.195
16498SOL    HW261123   0.523   4.765  16.120
16499SOL     OW61124   4.129   1.578  28.474
16499SOL    HW161125   4.184   1.513  28.430
16499SOL    HW261126   4.124   1.548   0.045
16500SOL     OW61127   2.943   3.701  28.136
16500SOL    HW161128   2.925   3.788  28.101
16500SOL    HW261129   2.911   3.704  28.226
16501SOL     OW61130   0.327   3.927  18.563
16501SOL    HW161131   0.344   3.984  18.638
16501SOL    HW261132   0.313   3.840  18.602
16502SOL     OW61133   3.550   3.255   8.373
16502SOL    HW161134   3.572   3.345   8.399
16502SOL    HW261135   3.475   3.232   8.428
16503SOL     OW61136   0.979   3.122  28.398
16503SOL    HW161137   0.952   3.121  28.490
16503SOL    HW261138   1.052   3.184  28.395
16504SOL     OW61139   0.815   1.942  22.381
16504SOL    HW161140   0.824   1.975  22.292
16504SOL    HW261141   0.739   1.883  22.377
16505SOL     OW61142   4.166   3.386   4.579
16505SOL    HW161143   4.127   3.349   4.658
16505SOL    HW261144   4.229   3.450   4.611
16506SOL     OW61145   3.832   1.185  10.762
16506SOL    HW161146   3.740   1.203  10.741
16506SOL    HW261147   3.834   1.092  10.786
16507SOL     OW61148   1.447   4.252  22.723
16507SOL    HW161149   1.424   4.205  22.803
16507SOL    HW261150   1.519   4.310  22.749
16508SOL     OW61151   2.551   0.803   0.141
16508SOL    HW161152   2.558   0.873   0.205
16508SOL    HW261153   2.638   0.763   0.139
16509SOL     OW61154   1.903   4.258   4.582
16509SOL    HW161155   1.877   4.350   4.583
16509SOL    HW261156   1.928   4.240   4.672
16510SOL     OW61157   2.329   1.467  20.212
16510SOL    HW161158   2.326   1.482  20.118
16510SOL    HW261159   2.414   1.427  20.228
16511SOL     OW61160   3.424   0.560  18.722
16511SOL    HW161161   3.509   0.519  18.707
16511SOL    HW261162   3.361   0.497  18.688
16512SOL     OW61163   4.450   0.183  23.698
16512SOL    HW161164   4.391   0.118  23.660
16512SOL    HW261165   4.442   0.259  23.641
16513SOL     OW61166   1.659   1.431   9.713
16513SOL    HW161167   1.707   1.404   9.791
16513SOL    HW261168   1.617   1.351   9.682
16514SOL     OW61169   0.152   4.031   0.705
16514SOL    HW161170   0.082   4.095   0.689
16514SOL    HW261171   0.178   4.002   0.618
16515SOL     OW61172   1.129   1.067   7.569
16515SOL    HW161173   1.197   1.134   7.561
16515SOL    HW261174   1.090   1.062   7.482
16516SOL     OW61175   3.405   4.260   6.203
16516SOL    HW161176   3.453   4.243   6.284
16516SOL    HW261177   3.385   4.354   6.206
16517SOL     OW61178   3.369   1.996  27.145
16517SOL    HW161179   3.391   2.003  27.238
16517SOL    HW261180   3.275   2.015  27.141
16518SOL     OW61181   0.500   1.767  19.846
16518SOL    HW161182   0.566   1.782  19.914
16518SOL    HW261183   0.549   1.771  19.764
16519SOL     OW61184   0.398   1.036  18.803
16519SOL    HW161185   0.391   1.128  18.828
16519SOL    HW261186   0.314   1.016  18.762
16520SOL     OW61187   3.662   3.772   8.952
16520SOL    HW161188   3.675   3.716   8.876
16520SOL    HW261189   3.577   3.814   8.936
16521SOL     OW61190   0.973   1.910  18.045
16521SOL    HW161191   0.899   1.883  18.100
16521SOL    HW261192   0.984   1.838  17.983
16522SOL     OW61193   4.165   0.203   9.532
16522SOL    HW161194   4.166   0.229   9.624
16522SOL    HW261195   4.252   0.226   9.500
16523SOL     OW61196   3.715   3.454  27.139
16523SOL    HW161197   3.635   3.447  27.190
16523SOL    HW261198   3.756   3.535  27.169
16524SOL     OW61199   2.535   0.131  25.055
16524SOL    HW161200   2.547   0.218  25.017
16524SOL    HW261201   2.442   0.111  25.042
16525SOL     OW61202   0.391   4.139  23.984
16525SOL    HW161203   0.435   4.223  23.998
16525SOL    HW261204   0.370   4.138  23.891
16526SOL     OW61205   1.458   2.423  18.742
16526SOL    HW161206   1.453   2.454  18.652
16526SOL    HW261207   1.552   2.422  18.762
16527SOL     OW61208   2.158   3.022   0.196
16527SOL    HW161209   2.123   3.045   0.110
16527SOL    HW261210   2.253   3.033   0.188
16528SOL     OW61211   4.319   2.178  24.006
16528SOL    HW161212   4.331   2.084  23.996
16528SOL    HW261213   4.226   2.192  23.988
16529SOL     OW61214   4.452   3.481  26.611
16529SOL    HW161215   4.416   3.398  26.579
16529SOL    HW261216   4.526   3.499  26.552
16530SOL     OW61217   4.146   0.221  26.901
16530SOL    HW161218   4.080   0.289  26.915
16530SOL    HW261219   4.162   0.185  26.988
16531SOL     OW61220   2.466   4.599   6.455
16531SOL    HW161221   2.446   4.518   6.409
16531SOL    HW261222   2.548   4.630   6.416
16532SOL     OW61223   2.956   1.668   1.619
16532SOL    HW161224   2.905   1.748   1.630
16532SOL    HW261225   2.911   1.620   1.550
16533SOL     OW61226   3.239   0.529  19.683
16533SOL    HW161227   3.238   0.612  19.636
16533SOL    HW261228   3.148   0.499  19.682
16534SOL     OW61229   4.565   0.692   4.240
16534SOL    HW161230   4.612   0.609   4.239
16534SOL    HW261231   4.591   0.732   4.323
16535SOL     OW61232   1.063   1.043   9.642
16535SOL    HW161233   0.970   1.060   9.626
16535SOL    HW261234   1.092   0.993   9.566
16536SOL     OW61235   0.334   4.338  20.964
16536SOL    HW161236   0.262   4.371  20.910
16536SOL    HW261237   0.408   4.395  20.944
16537SOL     OW61238   4.311   0.704  28.344
16537SOL    HW161239   4.217   0.721  28.336
16537SOL    HW261240   4.321   0.614  28.312
16538SOL     OW61241   0.863   4.149  20.779
16538SOL    HW161242   0.842   4.078  20.840
16538SOL    HW261243   0.956   4.136  20.759
16539SOL     OW61244   0.511   2.837  22.617
16539SOL    HW161245   0.438   2.782  22.589
16539SOL    HW261246   0.581   2.775  22.637
16540SOL     OW61247   3.563   0.277  21.263
16540SOL    HW161248   3.493   0.216  21.241
16540SOL    HW261249   3.592   0.251  21.350
16541SOL     OW61250   0.724   0.432   2.036
16541SOL    HW161251   0.655   0.381   1.993
16541SOL    HW261252   0.767   0.479   1.965
16542SOL     OW61253   1.433   4.054   6.449
16542SOL    HW161254   1.394   4.062   6.362
16542SOL    HW261255   1.359   4.043   6.508
16543SOL     OW61256   1.996   3.665  20.920
16543SOL    HW161257   1.943   3.705  20.851
16543SOL    HW261258   2.068   3.727  20.934
16544SOL     OW61259   4.341   0.155  28.415
16544SOL    HW161260   4.271   0.220  28.412
16544SOL    HW261261   4.417   0.200  28.378
16545SOL     OW61262   4.435   3.389   9.814
16545SOL    HW161263   4.400   3.375   9.726
16545SOL    HW261264   4.389   3.467   9.846
16546SOL     OW61265   2.813   0.106   6.454
16546SOL    HW161266   2.903   0.085   6.480
16546SOL    HW261267   2.773   0.141   6.533
16547SOL     OW61268   0.275   4.250  27.636
16547SOL    HW161269   0.225   4.278  27.559
16547SOL    HW261270   0.346   4.314  27.643
16548SOL     OW61271   3.116   1.096   1.324
16548SOL    HW161272   3.085   1.016   1.282
16548SOL    HW261273   3.109   1.163   1.256
16549SOL     OW61274   2.399   1.787  20.116
16549SOL    HW161275   2.439   1.741  20.190
16549SOL    HW261276   2.373   1.872  20.152
16550SOL     OW61277   3.473   2.229  23.500
16550SOL    HW161278   3.568   2.225  23.492
16550SOL    HW261279   3.454   2.191  23.586
16551SOL     OW61280   1.045   3.791  22.664
16551SOL    HW161281   1.017   3.831  22.746
16551SOL    HW261282   1.113   3.729  22.689
16552SOL     OW61283   4.386   2.497   2.781
16552SOL    HW161284   4.444   2.561   2.740
16552SOL    HW261285   4.299   2.536   2.775
16553SOL     OW61286   2.266   2.641  25.560
16553SOL    HW161287   2.288   2.595  25.479
16553SOL    HW261288   2.338   2.619  25.620
16554SOL     OW61289   2.256   1.419  27.577
16554SOL    HW161290   2.237   1.470  27.656
16554SOL    HW261291   2.170   1.389  27.547
16555SOL     OW61292   4.125   1.136   2.252
16555SOL    HW161293   4.166   1.049   2.254
16555SOL    HW261294   4.078   1.138   2.169
16556SOL     OW61295   4.323   2.195   8.899
16556SOL    HW161296   4.385   2.250   8.851
16556SOL    HW261297   4.365   2.180   8.984
16557SOL     OW61298   1.582   4.703  10.253
16557SOL    HW161299   1.577   4.608  10.263
16557SOL    HW261300   1.492   4.729  10.233
16558SOL     OW61301   1.056   0.277   4.374
16558SOL    HW161302   1.057   0.366   4.338
16558SOL    HW261303   1.071   0.220   4.299
16559SOL     OW61304   2.943   1.147  25.873
16559SOL    HW161305   2.993   1.227  25.854
16559SOL    HW261306   2.924   1.109  25.787
16560SOL     OW61307   0.580   1.532  24.888
16560SOL    HW161308   0.504   1.533  24.830
16560SOL    HW261309   0.548   1.568  24.971
16561SOL     OW61310   2.214   3.980   0.413
16561SOL    HW161311   2.167   3.897   0.405
16561SOL    HW261312   2.150   4.046   0.386
16562SOL     OW61313   4.547   4.663  19.795
16562SOL    HW161314   4.630   4.659  19.843
16562SOL    HW261315   4.485   4.700  19.858
16563SOL     OW61316   1.252   4.547   1.004
16563SOL    HW161317   1.178   4.563   1.062
16563SOL    HW261318   1.232   4.464   0.960
16564SOL     OW61319   1.779   4.278  20.545
16564SOL    HW161320   1.864   4.243  20.519
16564SOL    HW261321   1.728   4.279  20.464
16565SOL     OW61322   2.950   4.551   7.900
16565SOL    HW161323   2.945   4.519   7.990
16565SOL    HW261324   2.880   4.616   7.893
16566SOL     OW61325   1.793   1.018  21.309
16566SOL    HW161326   1.805   0.991  21.400
16566SOL    HW261327   1.871   0.987  21.264
16567SOL     OW61328   3.648   1.580   7.986
16567SOL    HW161329   3.655   1.604   8.078
16567SOL    HW261330   3.733   1.603   7.949
16568SOL     OW61331   2.357   0.797   6.192
16568SOL    HW161332   2.274   0.836   6.165
16568SOL    HW261333   2.357   0.710   6.152
16569SOL     OW61334   0.347   1.380   2.434
16569SOL    HW161335   0.364   1.342   2.520
16569SOL    HW261336   0.273   1.331   2.400
16570SOL     OW61337   3.450   1.148   2.447
16570SOL    HW161338   3.480   1.236   2.423
16570SOL    HW261339   3.408   1.160   2.532
16571SOL     OW61340   0.995   2.578  20.342
16571SOL    HW161341   1.004   2.539  20.429
16571SOL    HW261342   1.076   2.553  20.297
16572SOL     OW61343   2.279   4.129  24.921
16572SOL    HW161344   2.318   4.181  24.991
16572SOL    HW261345   2.348   4.068  24.895
16573SOL     OW61346   1.162   0.749  11.116
16573SOL    HW161347   1.082   0.795  11.093
16573SOL    HW261348   1.149   0.722  11.207
16574SOL     OW61349   4.729   4.357   8.583
16574SOL    HW161350   0.042   4.345   8.568
16574SOL    HW261351   4.687   4.306   8.514
16575SOL     OW61352   0.523   4.128  10.816
16575SOL    HW161353   0.434   4.149  10.843
16575SOL    HW261354   0.576   4.200  10.851
16576SOL     OW61355   2.348   3.820   9.370
16576SOL    HW161356   2.414   3.757   9.398
16576SOL    HW261357   2.337   3.878   9.445
16577SOL     OW61358   1.448   2.553  22.680
16577SOL    HW161359   1.449   2.632  22.735
16577SOL    HW261360   1.456   2.586  22.591
16578SOL     OW61361   3.449   3.724  21.295
16578SOL    HW161362   3.520   3.784  21.274
16578SOL    HW261363   3.483   3.638  21.272
16579SOL     OW61364   2.640   3.757   6.804
16579SOL    HW161365   2.702   3.829   6.789
16579SOL    HW261366   2.668   3.718   6.887
16580SOL     OW61367   3.163   0.616  17.226
16580SOL    HW161368   3.238   0.616  17.286
16580SOL    HW261369   3.122   0.531  17.240
16581SOL     OW61370   0.442   1.782  27.868
16581SOL    HW161371   0.349   1.789  27.891
16581SOL    HW261372   0.452   1.693  27.835
16582SOL     OW61373   0.668   3.908  24.597
16582SOL    HW161374   0.629   3.994  24.584
16582SOL    HW261375   0.639   3.881  24.684
16583SOL     OW61376   3.238   4.643  20.426
16583SOL    HW161377   3.155   4.684  20.403
16583SOL    HW261378   3.280   4.625  20.342
16584SOL     OW61379   2.695   2.338  19.220
16584SOL    HW161380   2.611   2.383  19.231
16584SOL    HW261381   2.677   2.271  19.154
16585SOL     OW61382   1.765   4.766  24.771
16585SOL    HW161383   1.751   4.728  24.684
16585SOL    HW261384   1.824   0.060  24.755
16586SOL     OW61385   1.767   0.569  19.897
16586SOL    HW161386   1.750   0.475  19.895
16586SOL    HW261387   1.745   0.595  19.987
16587SOL     OW61388   0.481   0.418   1.619
16587SOL    HW161389   0.558   0.454   1.575
16587SOL    HW261390   0.424   0.390   1.547
16588SOL     OW61391   1.731   2.616   1.941
16588SOL    HW161392   1.700   2.526   1.937
16588SOL    HW261393   1.826   2.608   1.946
16589SOL     OW61394   1.528   4.533  23.258
16589SOL    HW161395   1.461   4.501  23.198
16589SOL    HW261396   1.479   4.584  23.323
16590SOL     OW61397   0.934   3.095   6.957
16590SOL    HW161398   1.022   3.102   6.994
16590SOL    HW261399   0.944   3.036   6.882
16591SOL     OW61400   0.143   2.000   4.322
16591SOL    HW161401   0.145   2.094   4.338
16591SOL    HW261402   0.234   1.977   4.303
16592SOL     OW61403   2.783   0.063   2.420
16592SOL    HW161404   2.840   4.773   2.450
16592SOL    HW261405   2.787   0.128   2.490
16593SOL     OW61406   1.857   1.000   6.248
16593SOL    HW161407   1.783   0.957   6.291
16593SOL    HW261408   1.930   0.987   6.309
16594SOL     OW61409   4.660   0.369  23.460
16594SOL    HW161410   4.675   0.455  23.422
16594SOL    HW261411   4.570   0.346  23.435
16595SOL     OW61412   3.602   2.567  28.036
16595SOL    HW161413   3.625   2.609  28.119
16595SOL    HW261414   3.685   2.560  27.989
16596SOL     OW61415   0.119   3.944  19.775
16596SOL    HW161416   0.028   3.951  19.805
16596SOL    HW261417   0.144   3.854  19.794
16597SOL     OW61418   4.071   1.130   0.496
16597SOL    HW161419   4.118   1.051   0.469
16597SOL    HW261420   3.986   1.098   0.528
16598SOL     OW61421   3.943   0.853   1.407
16598SOL    HW161422   3.915   0.782   1.464
16598SOL    HW261423   3.885   0.847   1.331
16599SOL     OW61424   2.239   4.193   6.564
16599SOL    HW161425   2.190   4.198   6.482
16599SOL    HW261426   2.327   4.166   6.538
16600SOL     OW61427   4.162   3.231   0.189
16600SOL    HW161428   4.109   3.152   0.197
16600SOL    HW261429   4.205   3.222   0.104
16601SOL     OW61430   4.228   2.021  22.127
16601SOL    HW161431   4.178   2.096  22.159
16601SOL    HW261432   4.290   2.002  22.197
16602SOL     OW61433   3.198   0.383  22.485
16602SOL    HW161434   3.161   0.471  22.494
16602SOL    HW261435   3.286   0.397  22.450
16603SOL     OW61436   0.218   3.064  22.379
16603SOL    HW161437   0.165   3.135  22.416
16603SOL    HW261438   0.307   3.100  22.377
16604SOL     OW61439   0.253   4.011   7.865
16604SOL    HW161440   0.185   3.953   7.899
16604SOL    HW261441   0.229   4.098   7.897
16605SOL     OW61442   1.410   1.570  20.651
16605SOL    HW161443   1.465   1.500  20.616
16605SOL    HW261444   1.321   1.534  20.650
16606SOL     OW61445   4.069   1.071  27.902
16606SOL    HW161446   4.085   0.992  27.954
16606SOL    HW261447   4.154   1.115  27.899
16607SOL     OW61448   1.347   1.661  20.015
16607SOL    HW161449   1.392   1.583  20.047
16607SOL    HW261450   1.257   1.632  19.998
16608SOL     OW61451   1.230   0.822   0.845
16608SOL    HW161452   1.301   0.879   0.816
16608SOL    HW261453   1.164   0.829   0.776
16609SOL     OW61454   1.295   2.619   0.551
16609SOL    HW161455   1.226   2.577   0.602
16609SOL    HW261456   1.291   2.711   0.575
16610SOL     OW61457   0.136   1.984  22.342
16610SOL    HW161458   0.109   2.073  22.321
16610SOL    HW261459   0.155   1.944  22.257
16611SOL     OW61460   3.202   0.277   9.645
16611SOL    HW161461   3.141   0.335   9.690
16611SOL    HW261462   3.147   0.226   9.586
16612SOL     OW61463   3.862   2.120   6.304
16612SOL    HW161464   3.914   2.101   6.382
16612SOL    HW261465   3.786   2.167   6.337
16613SOL     OW61466   3.488   0.146   5.214
16613SOL    HW161467   3.430   0.208   5.258
16613SOL    HW261468   3.546   0.115   5.283
16614SOL     OW61469   0.437   3.129  27.211
16614SOL    HW161470   0.465   3.102  27.123
16614SOL    HW261471   0.511   3.179  27.245
16615SOL     OW61472   4.338   0.733  26.655
16615SOL    HW161473   4.385   0.816  26.652
16615SOL    HW261474   4.320   0.712  26.563
16616SOL     OW61475   1.387   0.109  20.226
16616SOL    HW161476   1.396   0.034  20.167
16616SOL    HW261477   1.459   0.167  20.202
16617SOL     OW61478   4.123   3.678   0.844
16617SOL    HW161479   4.071   3.608   0.805
16617SOL    HW261480   4.066   3.755   0.840
16618SOL     OW61481   1.064   1.484  20.281
16618SOL    HW161482   1.123   1.431  20.228
16618SOL    HW261483   1.016   1.420  20.334
16619SOL     OW61484   2.663   4.581  27.369
16619SOL    HW161485   2.612   4.568  27.449
16619SOL    HW261486   2.682   4.675  27.367
16620SOL     OW61487   3.282   2.811   7.030
16620SOL    HW161488   3.231   2.792   6.951
16620SOL    HW261489   3.350   2.872   7.001
16621SOL     OW61490   3.301   3.378  17.696
16621SOL    HW161491   3.388   3.358  17.730
16621SOL    HW261492   3.316   3.408  17.606
16622SOL     OW61493   0.288   0.554  20.522
16622SOL    HW161494   0.266   0.643  20.494
16622SOL    HW261495   0.308   0.562  20.615
16623SOL     OW61496   0.844   0.834  22.197
16623SOL    HW161497   0.911   0.765  22.204
16623SOL    HW261498   0.880   0.897  22.134
16624SOL     OW61499   0.102   3.097  10.450
16624SOL    HW161500   0.079   3.046  10.372
16624SOL    HW261501   0.024   3.093  10.506
16625SOL     OW61502   0.920   4.306  19.255
16625SOL    HW161503   0.923   4.214  19.282
16625SOL    HW261504   0.845   4.343  19.302
16626SOL     OW61505   1.276   0.262   0.408
16626SOL    HW161506   1.336   0.236   0.338
16626SOL    HW261507   1.234   0.181   0.436
16627SOL     OW61508   4.413   4.220  24.607
16627SOL    HW161509   4.440   4.283  24.541
16627SOL    HW261510   4.366   4.152  24.558
16628SOL     OW61511   1.195   0.920   8.493
16628SOL    HW161512   1.280   0.963   8.502
16628SOL    HW261513   1.181   0.916   8.398
16629SOL     OW61514   3.336   1.413  27.975
16629SOL    HW161515   3.259   1.389  28.026
16629SOL    HW261516   3.304   1.423  27.885
16630SOL     OW61517   1.987   0.592  25.436
16630SOL    HW161518   2.040   0.666  25.405
16630SOL    HW261519   2.045   0.545  25.495
16631SOL     OW61520   2.852   1.637  22.587
16631SOL    HW161521   2.760   1.611  22.579
16631SOL    HW261522   2.857   1.684  22.670
16632SOL     OW61523   3.574   0.576   0.669
16632SOL    HW161524   3.569   0.481   0.661
16632SOL    HW261525   3.636   0.591   0.740
16633SOL     OW61526   4.346   1.322   5.091
16633SOL    HW161527   4.305   1.278   5.017
16633SOL    HW261528   4.281   1.387   5.120
16634SOL     OW61529   0.481   1.005   0.394
16634SOL    HW161530   0.522   1.029   0.311
16634SOL    HW261531   0.428   1.081   0.417
16635SOL     OW61532   1.553   4.188   7.897
16635SOL    HW161533   1.461   4.179   7.871
16635SOL    HW261534   1.571   4.282   7.892
16636SOL     OW61535   2.831   0.858   4.755
16636SOL    HW161536   2.772   0.783   4.759
16636SOL    HW261537   2.865   0.866   4.844
16637SOL     OW61538   0.268   2.577  28.293
16637SOL    HW161539   0.222   2.509  28.342
16637SOL    HW261540   0.224   2.658  28.318
16638SOL     OW61541   0.014   0.646   6.136
16638SOL    HW161542   0.019   0.708   6.209
16638SOL    HW261543   0.105   0.636   6.107
16639SOL     OW61544   2.811   3.772  25.645
16639SOL    HW161545   2.857   3.852  25.620
16639SOL    HW261546   2.731   3.773  25.593
16640SOL     OW61547   4.100   0.917  11.268
16640SOL    HW161548   4.070   0.993  11.219
16640SOL    HW261549   4.192   0.936  11.287
16641SOL     OW61550   3.204   3.597   3.738
16641SOL    HW161551   3.173   3.622   3.651
16641SOL    HW261552   3.291   3.561   3.723
16642SOL     OW61553   4.740   1.089   4.216
16642SOL    HW161554   4.770   1.026   4.281
16642SOL    HW261555   4.645   1.087   4.222
16643SOL     OW61556   0.724   0.828  18.164
16643SOL    HW161557   0.640   0.821  18.119
16643SOL    HW261558   0.705   0.878  18.243
16644SOL     OW61559   3.487   1.226  17.683
16644SOL    HW161560   3.486   1.130  17.678
16644SOL    HW261561   3.433   1.246  17.760
16645SOL     OW61562   4.757   0.795  22.357
16645SOL    HW161563   4.760   0.853  22.281
16645SOL    HW261564   4.765   0.707  22.321
16646SOL     OW61565   4.641   1.273   8.348
16646SOL    HW161566   4.592   1.355   8.341
16646SOL    HW261567   4.705   1.289   8.417
16647SOL     OW61568   0.493   0.332   6.131
16647SOL    HW161569   0.475   0.241   6.108
16647SOL    HW261570   0.586   0.333   6.155
16648SOL     OW61571   3.214   4.160  22.030
16648SOL    HW161572   3.245   4.131  21.944
16648SOL    HW261573   3.272   4.117  22.092
16649SOL     OW61574   0.542   4.720   8.174
16649SOL    HW161575   0.541   0.034   8.160
16649SOL    HW261576   0.450   4.695   8.179
16650SOL     OW61577   1.737   1.596   6.468
16650SOL    HW161578   1.770   1.653   6.538
16650SOL    HW261579   1.814   1.548   6.437
16651SOL     OW61580   1.518   3.214  22.088
16651SOL    HW161581   1.528   3.265  22.168
16651SOL    HW261582   1.544   3.125  22.113
16652SOL     OW61583   1.131   0.572   9.717
16652SOL    HW161584   1.084   0.567   9.800
16652SOL    HW261585   1.076   0.523   9.655
16653SOL     OW61586   4.458   4.344   4.538
16653SOL    HW161587   4.484   4.267   4.589
16653SOL    HW261588   4.362   4.341   4.539
16654SOL     OW61589   0.278   2.636   9.735
16654SOL    HW161590   0.241   2.569   9.793
16654SOL    HW261591   0.288   2.713   9.791
16655SOL     OW61592   4.598   4.763  23.507
16655SOL    HW161593   4.539   4.720  23.569
16655SOL    HW261594   4.659   0.032  23.562
16656SOL     OW61595   3.352   0.927   1.331
16656SOL    HW161596   3.263   0.917   1.298
16656SOL    HW261597   3.395   0.984   1.268
16657SOL     OW61598   3.368   1.378   0.496
16657SOL    HW161599   3.376   1.427   0.578
16657SOL    HW261600   3.451   1.393   0.451
16658SOL     OW61601   1.397   1.998   5.727
16658SOL    HW161602   1.328   2.064   5.727
16658SOL    HW261603   1.468   2.037   5.778
16659SOL     OW61604   3.815   3.124   6.933
16659SOL    HW161605   3.749   3.151   6.997
16659SOL    HW261606   3.873   3.065   6.981
16660SOL     OW61607   2.275   2.032   4.460
16660SOL    HW161608   2.232   2.104   4.413
16660SOL    HW261609   2.352   2.012   4.408
16661SOL     OW61610   1.752   3.108   8.411
16661SOL    HW161611   1.742   3.148   8.497
16661SOL    HW261612   1.715   3.020   8.421
16662SOL     OW61613   1.062   0.222   3.499
16662SOL    HW161614   1.066   0.226   3.595
16662SOL    HW261615   1.153   0.225   3.471
16663SOL     OW61616   2.299   4.276  19.111
16663SOL    HW161617   2.316   4.183  19.128
16663SOL    HW261618   2.267   4.310  19.194
16664SOL     OW61619   2.918   3.865  10.136
16664SOL    HW161620   2.948   3.916  10.211
16664SOL    HW261621   2.990   3.805  10.117
16665SOL     OW61622   1.878   3.985   1.015
16665SOL    HW161623   1.860   3.992   1.109
16665SOL    HW261624   1.946   4.051   0.999
16666SOL     OW61625   3.049   4.100  24.011
16666SOL    HW161626   3.137   4.070  23.987
16666SOL    HW261627   3.049   4.193  23.989
16667SOL     OW61628   4.435   2.800   6.290
16667SOL    HW161629   4.454   2.724   6.345
16667SOL    HW261630   4.470   2.777   6.204
16668SOL     OW61631   2.630   3.807  25.436
16668SOL    HW161632   2.654   3.844  25.351
16668SOL    HW261633   2.626   3.713  25.421
16669SOL     OW61634   3.539   1.748   9.464
16669SOL    HW161635   3.546   1.688   9.538
16669SOL    HW261636   3.589   1.825   9.491
16670SOL     OW61637   2.115   2.496   6.102
16670SOL    HW161638   2.020   2.504   6.090
16670SOL    HW261639   2.152   2.527   6.019
16671SOL     OW61640   3.145   3.027  26.522
16671SOL    HW161641   3.126   3.030  26.428
16671SOL    HW261642   3.080   2.966  26.557
16672SOL     OW61643   1.672   0.525  10.723
16672SOL    HW161644   1.684   0.499  10.814
16672SOL    HW261645   1.594   0.478  10.695
16673SOL     OW61646   2.724   4.342  27.608
16673SOL    HW161647   2.779   4.308  27.679
16673SOL    HW261648   2.657   4.394  27.652
16674SOL     OW61649   2.635   2.988  27.554
16674SOL    HW161650   2.723   2.960  27.528
16674SOL    HW261651   2.604   2.919  27.613
16675SOL     OW61652   0.332   1.310  17.874
16675SOL    HW161653   0.285   1.346  17.799
16675SOL    HW261654   0.273   1.243  17.909
16676SOL     OW61655   0.769   1.978  20.672
16676SOL    HW161656   0.743   1.999  20.762
16676SOL    HW261657   0.822   1.898  20.680
16677SOL     OW61658   1.548   1.658   0.319
16677SOL    HW161659   1.573   1.653   0.411
16677SOL    HW261660   1.571   1.747   0.293
16678SOL     OW61661   4.103   2.718   0.969
16678SOL    HW161662   4.122   2.782   1.038
16678SOL    HW261663   4.117   2.766   0.887
16679SOL     OW61664   1.955   3.778   6.505
16679SOL    HW161665   1.985   3.722   6.576
16679SOL    HW261666   1.899   3.721   6.452
16680SOL     OW61667   4.507   1.679   4.500
16680SOL    HW161668   4.532   1.610   4.562
16680SOL    HW261669   4.579   1.682   4.437
16681SOL     OW61670   2.555   4.540  18.778
16681SOL    HW161671   2.595   4.521  18.863
16681SOL    HW261672   2.543   4.635  18.779
16682SOL     OW61673   1.922   1.875   8.754
16682SOL    HW161674   1.998   1.905   8.804
16682SOL    HW261675   1.955   1.864   8.665
16683SOL     OW61676   2.944   0.445  16.218
16683SOL    HW161677   3.035   0.467  16.200
16683SOL    HW261678   2.893   0.507  16.166
16684SOL     OW61679   2.980   4.491  22.356
16684SOL    HW161680   3.028   4.569  22.383
16684SOL    HW261681   3.043   4.442  22.303
16685SOL     OW61682   3.833   3.237   9.882
16685SOL    HW161683   3.779   3.310   9.912
16685SOL    HW261684   3.918   3.276   9.861
16686SOL     OW61685   3.739   3.614  27.467
16686SOL    HW161686   3.724   3.595  27.560
16686SOL    HW261687   3.652   3.610  27.427
16687SOL     OW61688   0.353   3.363  25.610
16687SOL    HW161689   0.348   3.269  25.630
16687SOL    HW261690   0.265   3.385  25.578
16688SOL     OW61691   4.526   1.978  10.023
16688SOL    HW161692   4.520   1.897  10.074
16688SOL    HW261693   4.612   2.013  10.044
16689SOL     OW61694   3.407   3.895   4.564
16689SOL    HW161695   3.455   3.829   4.513
16689SOL    HW261696   3.454   3.977   4.547
16690SOL     OW61697   3.317   1.114   4.356
16690SOL    HW161698   3.335   1.045   4.292
16690SOL    HW261699   3.245   1.164   4.317
16691SOL     OW61700   1.980   0.939  27.671
16691SOL    HW161701   1.914   1.008  27.681
16691SOL    HW261702   2.061   0.986  27.652
16692SOL     OW61703   3.967   4.524  19.232
16692SOL    HW161704   3.924   4.530  19.317
16692SOL    HW261705   3.996   4.613  19.213
16693SOL     OW61706   1.060   3.248  10.922
16693SOL    HW161707   0.978   3.244  10.873
16693SOL    HW261708   1.033   3.251  11.014
16694SOL     OW61709   4.384   1.816   6.600
16694SOL    HW161710   4.433   1.850   6.525
16694SOL    HW261711   4.362   1.894   6.651
16695SOL     OW61712   2.221   3.493   4.872
16695SOL    HW161713   2.147   3.470   4.816
16695SOL    HW261714   2.268   3.411   4.885
16696SOL     OW61715   0.564   1.986  28.377
16696SOL    HW161716   0.657   1.995  28.398
16696SOL    HW261717   0.543   2.065  28.328
16697SOL     OW61718   4.073   0.891  22.554
16697SOL    HW161719   4.009   0.831  22.516
16697SOL    HW261720   4.134   0.910  22.483
16698SOL     OW61721   4.401   2.759  18.918
16698SOL    HW161722   4.438   2.762  19.006
16698SOL    HW261723   4.311   2.728  18.931
16699SOL     OW61724   4.371   2.317  19.439
16699SOL    HW161725   4.415   2.243  19.481
16699SOL    HW261726   4.381   2.390  19.500
16700SOL     OW61727   3.587   4.448  26.889
16700SOL    HW161728   3.639   4.409  26.819
16700SOL    HW261729   3.630   4.418  26.969
16701SOL     OW61730   0.762   0.831  27.205
16701SOL    HW161731   0.782   0.836  27.299
16701SOL    HW261732   0.745   0.738  27.189
16702SOL     OW61733   1.577   0.255   0.161
16702SOL    HW161734   1.497   0.204   0.154
16702SOL    HW261735   1.588   0.295   0.075
16703SOL     OW61736   0.633   3.982   3.712
16703SOL    HW161737   0.569   4.052   3.722
16703SOL    HW261738   0.607   3.937   3.631
16704SOL     OW61739   1.705   0.761   1.737
16704SOL    HW161740   1.693   0.685   1.794
16704SOL    HW261741   1.793   0.750   1.701
16705SOL     OW61742   2.427   0.941  24.476
16705SOL    HW161743   2.514   0.978  24.490
16705SOL    HW261744   2.401   0.974  24.390
16706SOL     OW61745   1.098   4.533  27.291
16706SOL    HW161746   1.076   4.611  27.342
16706SOL    HW261747   1.178   4.556  27.245
16707SOL     OW61748   0.256   2.013   4.743
16707SOL    HW161749   0.189   1.947   4.727
16707SOL    HW261750   0.267   2.014   4.838
16708SOL     OW61751   4.543   4.536   4.132
16708SOL    HW161752   4.554   4.450   4.173
16708SOL    HW261753   4.632   4.567   4.118
16709SOL     OW61754   0.910   3.184   7.975
16709SOL    HW161755   0.898   3.165   7.882
16709SOL    HW261756   0.994   3.229   7.980
16710SOL     OW61757   1.063   3.832   0.169
16710SOL    HW161758   1.128   3.776   0.211
16710SOL    HW261759   1.011   3.867   0.241
16711SOL     OW61760   3.805   4.460  20.617
16711SOL    HW161761   3.791   4.485  20.526
16711SOL    HW261762   3.881   4.402  20.615
16712SOL     OW61763   4.393   3.119   3.080
16712SOL    HW161764   4.327   3.155   3.139
16712SOL    HW261765   4.452   3.070   3.137
16713SOL     OW61766   4.683   0.845   9.000
16713SOL    HW161767   4.706   0.905   9.071
16713SOL    HW261768   4.720   0.886   8.922
16714SOL     OW61769   4.170   0.496   8.317
16714SOL    HW161770   4.169   0.422   8.378
16714SOL    HW261771   4.222   0.563   8.361
16715SOL     OW61772   3.450   1.109   0.112
16715SOL    HW161773   3.503   1.074   0.183
16715SOL    HW261774   3.463   1.204   0.117
16716SOL     OW61775   3.625   1.717   7.381
16716SOL    HW161776   3.529   1.718   7.384
16716SOL    HW261777   3.646   1.694   7.291
16717SOL     OW61778   3.544   2.111  24.288
16717SOL    HW161779   3.584   2.027  24.266
16717SOL    HW261780   3.451   2.099  24.268
16718SOL     OW61781   1.012   0.964   9.894
16718SOL    HW161782   1.033   1.005   9.810
16718SOL    HW261783   0.990   0.873   9.872
16719SOL     OW61784   3.173   0.866  22.328
16719SOL    HW161785   3.168   0.889  22.235
16719SOL    HW261786   3.094   0.904  22.367
16720SOL     OW61787   3.935   2.626  27.922
16720SOL    HW161788   3.889   2.701  27.884
16720SOL    HW261789   3.987   2.591  27.850
16721SOL     OW61790   3.863   3.398  23.313
16721SOL    HW161791   3.824   3.322  23.356
16721SOL    HW261792   3.908   3.445  23.383
16722SOL     OW61793   4.595   2.018  18.284
16722SOL    HW161794   4.582   1.928  18.313
16722SOL    HW261795   4.546   2.025  18.202
16723SOL     OW61796   0.556   1.175   5.049
16723SOL    HW161797   0.468   1.202   5.022
16723SOL    HW261798   0.544   1.087   5.086
16724SOL     OW61799   1.663   0.768   9.474
16724SOL    HW161800   1.685   0.752   9.382
16724SOL    HW261801   1.748   0.783   9.516
16725SOL     OW61802   0.152   1.826  25.161
16725SOL    HW161803   0.061   1.847  25.183
16725SOL    HW261804   0.156   1.730  25.164
16726SOL     OW61805   2.149   0.754   5.625
16726SOL    HW161806   2.126   0.670   5.664
16726SOL    HW261807   2.183   0.732   5.538
16727SOL     OW61808   2.476   3.746  19.984
16727SOL    HW161809   2.517   3.792  19.911
16727SOL    HW261810   2.440   3.666  19.946
16728SOL     OW61811   4.245   2.173   1.888
16728SOL    HW161812   4.275   2.123   1.812
16728SOL    HW261813   4.198   2.109   1.942
16729SOL     OW61814   2.328   0.313  20.802
16729SOL    HW161815   2.258   0.357  20.754
16729SOL    HW261816   2.362   0.248  20.741
16730SOL     OW61817   2.357   2.196   1.417
16730SOL    HW161818   2.386   2.219   1.505
16730SOL    HW261819   2.310   2.274   1.387
16731SOL     OW61820   0.616   2.297  12.649
16731SOL    HW161821   0.648   2.330  12.733
16731SOL    HW261822   0.612   2.202  12.660
16732SOL     OW61823   1.971   2.314  25.462
16732SOL    HW161824   1.901   2.377  25.478
16732SOL    HW261825   2.002   2.290  25.549
16733SOL     OW61826   3.298   1.271   2.761
16733SOL    HW161827   3.393   1.279   2.772
16733SOL    HW261828   3.279   1.180   2.784
16734SOL     OW61829   3.445   0.511  18.995
16734SOL    HW161830   3.412   0.525  18.906
16734SOL    HW261831   3.374   0.465  19.040
16735SOL     OW61832   1.302   3.981  22.766
16735SOL    HW161833   1.266   4.002  22.680
16735SOL    HW261834   1.287   3.887  22.776
16736SOL     OW61835   4.640   0.510   7.701
16736SOL    HW161836   4.577   0.581   7.715
16736SOL    HW261837   4.605   0.437   7.751
16737SOL     OW61838   3.884   3.158   4.184
16737SOL    HW161839   3.956   3.152   4.247
16737SOL    HW261840   3.910   3.101   4.112
16738SOL     OW61841   2.109   1.921   6.250
16738SOL    HW161842   2.203   1.913   6.268
16738SOL    HW261843   2.069   1.936   6.336
16739SOL     OW61844   2.729   1.694   0.436
16739SOL    HW161845   2.636   1.714   0.423
16739SOL    HW261846   2.748   1.724   0.525
16740SOL     OW61847   2.242   4.559  21.310
16740SOL    HW161848   2.336   4.556  21.292
16740SOL    HW261849   2.228   4.644  21.352
16741SOL     OW61850   1.351   0.439  19.089
16741SOL    HW161851   1.347   0.509  19.154
16741SOL    HW261852   1.316   0.478  19.009
16742SOL     OW61853   1.177   0.560  22.410
16742SOL    HW161854   1.249   0.497  22.413
16742SOL    HW261855   1.173   0.586  22.318
16743SOL     OW61856   1.245   1.843  17.219
16743SOL    HW161857   1.215   1.879  17.135
16743SOL    HW261858   1.329   1.801  17.199
16744SOL     OW61859   0.398   2.821   5.507
16744SOL    HW161860   0.347   2.902   5.510
16744SOL    HW261861   0.350   2.761   5.565
16745SOL     OW61862   2.981   2.341   2.081
16745SOL    HW161863   2.975   2.269   2.019
16745SOL    HW261864   2.890   2.368   2.094
16746SOL     OW61865   1.328   1.794   8.236
16746SOL    HW161866   1.380   1.717   8.260
16746SOL    HW261867   1.265   1.804   8.308
16747SOL     OW61868   0.404   1.203   7.701
16747SOL    HW161869   0.332   1.207   7.638
16747SOL    HW261870   0.375   1.141   7.768
16748SOL     OW61871   2.921   1.375   7.893
16748SOL    HW161872   2.888   1.452   7.847
16748SOL    HW261873   2.939   1.406   7.982
16749SOL     OW61874   0.899   2.482   2.657
16749SOL    HW161875   0.835   2.417   2.629
16749SOL    HW261876   0.908   2.469   2.751
16750SOL     OW61877   2.542   1.925   1.773
16750SOL    HW161878   2.482   1.980   1.823
16750SOL    HW261879   2.548   1.967   1.687
16751SOL     OW61880   3.316   1.486   2.615
16751SOL    HW161881   3.299   1.404   2.661
16751SOL    HW261882   3.243   1.543   2.641
16752SOL     OW61883   2.801   4.749  20.193
16752SOL    HW161884   2.753   0.030  20.249
16752SOL    HW261885   2.827   0.021  20.117
16753SOL     OW61886   0.009   0.606   6.880
16753SOL    HW161887   4.712   0.630   6.931
16753SOL    HW261888   0.013   0.672   6.811
16754SOL     OW61889   3.142   0.979   5.727
16754SOL    HW161890   3.151   1.051   5.790
16754SOL    HW261891   3.227   0.935   5.729
16755SOL     OW61892   4.667   4.327  23.000
16755SOL    HW161893   4.641   4.280  22.921
16755SOL    HW261894   4.762   4.331  22.996
16756SOL     OW61895   2.871   0.954   5.774
16756SOL    HW161896   2.960   0.953   5.740
16756SOL    HW261897   2.878   1.001   5.857
16757SOL     OW61898   3.069   1.949   4.136
16757SOL    HW161899   3.085   2.029   4.186
16757SOL    HW261900   3.150   1.935   4.087
16758SOL     OW61901   2.754   0.265  21.472
16758SOL    HW161902   2.710   0.349  21.457
16758SOL    HW261903   2.705   0.224  21.543
16759SOL     OW61904   0.377   0.165  27.319
16759SOL    HW161905   0.285   0.142  27.305
16759SOL    HW261906   0.414   0.088  27.362
16760SOL     OW61907   3.063   4.106  24.643
16760SOL    HW161908   3.075   4.189  24.598
16760SOL    HW261909   2.996   4.124  24.709
16761SOL     OW61910   0.212   1.568   0.356
16761SOL    HW161911   0.212   1.637   0.422
16761SOL    HW261912   0.173   1.609   0.279
16762SOL     OW61913   0.187   3.927  24.391
16762SOL    HW161914   0.224   3.897  24.474
16762SOL    HW261915   0.257   3.915  24.327
16763SOL     OW61916   3.262   3.983   7.303
16763SOL    HW161917   3.349   3.975   7.341
16763SOL    HW261918   3.208   3.922   7.353
16764SOL     OW61919   3.368   3.535   2.142
16764SOL    HW161920   3.457   3.571   2.145
16764SOL    HW261921   3.379   3.442   2.161
16765SOL     OW61922   2.147   4.730  24.763
16765SOL    HW161923   2.061   4.693  24.742
16765SOL    HW261924   2.128   0.032  24.808
16766SOL     OW61925   1.262   2.431  20.381
16766SOL    HW161926   1.331   2.370  20.407
16766SOL    HW261927   1.224   2.392  20.302
16767SOL     OW61928   2.752   1.994  19.894
16767SOL    HW161929   2.662   1.963  19.885
16767SOL    HW261930   2.788   1.940  19.965
16768SOL     OW61931   2.228   2.441  24.736
16768SOL    HW161932   2.168   2.408  24.669
16768SOL    HW261933   2.276   2.512  24.693
16769SOL     OW61934   3.424   4.270  23.142
16769SOL    HW161935   3.350   4.212  23.125
16769SOL    HW261936   3.387   4.340  23.195
16770SOL     OW61937   3.611   1.963  24.700
16770SOL    HW161938   3.550   2.030  24.671
16770SOL    HW261939   3.556   1.887  24.720
16771SOL     OW61940   4.678   2.460  22.940
16771SOL    HW161941   4.712   2.501  22.860
16771SOL    HW261942   4.736   2.385  22.955
16772SOL     OW61943   0.813   3.150   0.105
16772SOL    HW161944   0.782   3.136   0.194
16772SOL    HW261945   0.749   3.209   0.066
16773SOL     OW61946   1.011   3.876   3.594
16773SOL    HW161947   0.989   3.925   3.515
16773SOL    HW261948   1.107   3.875   3.596
16774SOL     OW61949   4.205   3.704  26.633
16774SOL    HW161950   4.154   3.726  26.711
16774SOL    HW261951   4.245   3.620  26.654
16775SOL     OW61952   0.359   3.919   6.068
16775SOL    HW161953   0.352   4.012   6.089
16775SOL    HW261954   0.446   3.910   6.030
16776SOL     OW61955   0.159   3.014  27.042
16776SOL    HW161956   0.215   3.002  27.119
16776SOL    HW261957   0.075   3.043  27.078
16777SOL     OW61958   0.166   0.972   1.393
16777SOL    HW161959   0.084   0.965   1.442
16777SOL    HW261960   0.227   1.014   1.454
16778SOL     OW61961   2.587   3.930   7.230
16778SOL    HW161962   2.673   3.930   7.189
16778SOL    HW261963   2.553   4.018   7.215
16779SOL     OW61964   2.722   4.460  19.029
16779SOL    HW161965   2.724   4.365  19.016
16779SOL    HW261966   2.660   4.473  19.100
16780SOL     OW61967   0.798   1.391  26.303
16780SOL    HW161968   0.887   1.410  26.332
16780SOL    HW261969   0.785   1.446  26.225
16781SOL     OW61970   1.375   3.609  27.873
16781SOL    HW161971   1.282   3.600  27.895
16781SOL    HW261972   1.404   3.520  27.854
16782SOL     OW61973   3.596   1.044  24.021
16782SOL    HW161974   3.574   0.951  24.013
16782SOL    HW261975   3.691   1.045  24.035
16783SOL     OW61976   1.179   1.635  24.440
16783SOL    HW161977   1.088   1.608  24.455
16783SOL    HW261978   1.199   1.692  24.514
16784SOL     OW61979   3.968   2.261  10.546
16784SOL    HW161980   3.931   2.337  10.500
16784SOL    HW261981   4.011   2.210  10.477
16785SOL     OW61982   2.677   4.440  19.846
16785SOL    HW161983   2.755   4.401  19.807
16785SOL    HW261984   2.699   4.452  19.938
16786SOL     OW61985   0.454   1.012  22.103
16786SOL    HW161986   0.444   1.009  22.008
16786SOL    HW261987   0.365   1.000  22.137
16787SOL     OW61988   1.564   2.150   7.528
16787SOL    HW161989   1.567   2.237   7.567
16787SOL    HW261990   1.591   2.163   7.437
16788SOL     OW61991   0.198   1.625   1.831
16788SOL    HW161992   0.219   1.589   1.745
16788SOL    HW261993   0.104   1.611   1.840
16789SOL     OW61994   0.976   4.685   7.422
16789SOL    HW161995   0.925   4.611   7.455
16789SOL    HW261996   1.052   4.690   7.480
16790SOL     OW61997   2.780   4.498  23.373
16790SOL    HW161998   2.798   4.423  23.430
16790SOL    HW261999   2.846   4.563  23.397
16791SOL     OW62000   4.720   2.295   1.150
16791SOL    HW162001   4.640   2.290   1.098
16791SOL    HW262002   4.749   2.204   1.159
16792SOL     OW62003   3.298   1.706  27.480
16792SOL    HW162004   3.348   1.643  27.428
16792SOL    HW262005   3.364   1.763  27.520
16793SOL     OW62006   0.415   3.325  17.804
16793SOL    HW162007   0.342   3.308  17.744
16793SOL    HW262008   0.477   3.377  17.753
16794SOL     OW62009   1.862   2.728  17.869
16794SOL    HW162010   1.846   2.688  17.954
16794SOL    HW262011   1.799   2.800  17.864
16795SOL     OW62012   2.905   1.439   1.400
16795SOL    HW162013   2.870   1.354   1.426
16795SOL    HW262014   2.828   1.488   1.371
16796SOL     OW62015   4.100   0.573  26.103
16796SOL    HW162016   4.073   0.485  26.131
16796SOL    HW262017   4.072   0.579  26.012
16797SOL     OW62018   1.127   3.687  10.387
16797SOL    HW162019   1.183   3.619  10.351
16797SOL    HW262020   1.124   3.669  10.481
16798SOL     OW62021   3.548   1.598  27.939
16798SOL    HW162022   3.495   1.519  27.953
16798SOL    HW262023   3.490   1.670  27.961
16799SOL     OW62024   2.168   2.290   0.031
16799SOL    HW162025   2.229   2.363   0.018
16799SOL    HW262026   2.096   2.309  28.490
16800SOL     OW62027   0.809   2.780   4.763
16800SOL    HW162028   0.796   2.721   4.837
16800SOL    HW262029   0.733   2.838   4.764
16801SOL     OW62030   1.477   3.119   7.788
16801SOL    HW162031   1.507   3.172   7.862
16801SOL    HW262032   1.550   3.060   7.769
16802SOL     OW62033   2.321   2.078  18.239
16802SOL    HW162034   2.348   2.097  18.329
16802SOL    HW262035   2.300   2.164  18.202
16803SOL     OW62036   1.982   4.500   9.763
16803SOL    HW162037   1.928   4.427   9.793
16803SOL    HW262038   1.999   4.481   9.671
16804SOL     OW62039   0.526   4.699   1.799
16804SOL    HW162040   0.438   4.669   1.822
16804SOL    HW262041   0.584   4.632   1.835
16805SOL     OW62042   0.868   4.642   5.086
16805SOL    HW162043   0.911   4.592   5.155
16805SOL    HW262044   0.934   4.704   5.056
16806SOL     OW62045   3.646   4.516   3.136
16806SOL    HW162046   3.740   4.517   3.119
16806SOL    HW262047   3.633   4.579   3.207
16807SOL     OW62048   3.853   0.346  20.510
16807SOL    HW162049   3.832   0.373  20.421
16807SOL    HW262050   3.944   0.317  20.505
16808SOL     OW62051   1.266   2.864  13.414
16808SOL    HW162052   1.299   2.804  13.481
16808SOL    HW262053   1.327   2.938  13.416
16809SOL     OW62054   4.229   3.890  20.157
16809SOL    HW162055   4.207   3.970  20.109
16809SOL    HW262056   4.325   3.886  20.153
16810SOL     OW62057   1.461   3.721   4.074
16810SOL    HW162058   1.473   3.666   4.151
16810SOL    HW262059   1.369   3.710   4.051
16811SOL     OW62060   1.877   3.987  21.161
16811SOL    HW162061   1.803   3.979  21.221
16811SOL    HW262062   1.954   3.993  21.218
16812SOL     OW62063   0.038   0.516   8.072
16812SOL    HW162064   0.055   0.510   7.978
16812SOL    HW262065   0.105   0.575   8.105
16813SOL     OW62066   4.740   2.104  26.248
16813SOL    HW162067   0.034   2.048  26.270
16813SOL    HW262068   4.719   2.083  26.157
16814SOL     OW62069   1.496   3.688   0.174
16814SOL    HW162070   1.463   3.764   0.126
16814SOL    HW262071   1.473   3.613   0.119
16815SOL     OW62072   4.538   2.852  22.242
16815SOL    HW162073   4.446   2.836  22.220
16815SOL    HW262074   4.546   2.824  22.333
16816SOL     OW62075   3.204   3.160  20.146
16816SOL    HW162076   3.154   3.079  20.136
16816SOL    HW262077   3.137   3.228  20.154
16817SOL     OW62078   0.641   0.403   6.424
16817SOL    HW162079   0.637   0.440   6.512
16817SOL    HW262080   0.732   0.377   6.412
16818SOL     OW62081   1.091   2.158  23.085
16818SOL    HW162082   1.038   2.166  23.164
16818SOL    HW262083   1.049   2.088  23.035
16819SOL     OW62084   1.574   2.955   2.705
16819SOL    HW162085   1.576   2.917   2.793
16819SOL    HW262086   1.631   2.899   2.653
16820SOL     OW62087   4.287   2.286  11.805
16820SOL    HW162088   4.197   2.308  11.781
16820SOL    HW262089   4.299   2.324  11.892
16821SOL     OW62090   4.518   1.702   7.011
16821SOL    HW162091   4.535   1.760   7.085
16821SOL    HW262092   4.512   1.761   6.935
16822SOL     OW62093   1.069   0.375  25.535
16822SOL    HW162094   1.006   0.303  25.535
16822SOL    HW262095   1.057   0.418  25.620
16823SOL     OW62096   3.874   1.525  21.258
16823SOL    HW162097   3.921   1.454  21.301
16823SOL    HW262098   3.943   1.581  21.222
16824SOL     OW62099   0.927   2.720   5.299
16824SOL    HW162100   0.847   2.771   5.287
16824SOL    HW262101   0.978   2.768   5.364
16825SOL     OW62102   0.093   3.616  27.895
16825SOL    HW162103   0.026   3.609  27.827
16825SOL    HW262104   0.132   3.702  27.882
16826SOL     OW62105   0.450   0.062  21.258
16826SOL    HW162106   0.364   0.102  21.243
16826SOL    HW262107   0.449   0.038  21.351
16827SOL     OW62108   2.246   2.162  25.917
16827SOL    HW162109   2.192   2.122  25.986
16827SOL    HW262110   2.304   2.091  25.888
16828SOL     OW62111   0.237   3.565  20.938
16828SOL    HW162112   0.289   3.493  20.974
16828SOL    HW262113   0.240   3.551  20.843
16829SOL     OW62114   1.496   0.109   4.940
16829SOL    HW162115   1.467   0.084   4.852
16829SOL    HW262116   1.416   0.109   4.992
16830SOL     OW62117   2.701   0.131   5.771
16830SOL    HW162118   2.652   0.159   5.848
16830SOL    HW262119   2.634   0.101   5.710
16831SOL     OW62120   3.411   1.811   5.004
16831SOL    HW162121   3.398   1.723   5.039
16831SOL    HW262122   3.333   1.859   5.031
16832SOL     OW62123   0.106   2.066   6.526
16832SOL    HW162124   0.084   2.159   6.524
16832SOL    HW262125   0.106   2.040   6.434
16833SOL     OW62126   0.062   3.259  19.875
16833SOL    HW162127   0.154   3.286  19.874
16833SOL    HW262128   0.035   3.264  19.783
16834SOL     OW62129   3.431   1.986   6.250
16834SOL    HW162130   3.452   1.909   6.197
16834SOL    HW262131   3.422   2.057   6.187
16835SOL     OW62132   2.235   4.410  27.397
16835SOL    HW162133   2.264   4.335  27.345
16835SOL    HW262134   2.237   4.484  27.336
16836SOL     OW62135   2.239   2.929  25.666
16836SOL    HW162136   2.272   2.856  25.614
16836SOL    HW262137   2.309   2.994  25.665
16837SOL     OW62138   4.383   0.079   2.053
16837SOL    HW162139   4.396   0.168   2.087
16837SOL    HW262140   4.313   0.042   2.107
16838SOL     OW62141   0.969   4.131  22.570
16838SOL    HW162142   0.945   4.122  22.662
16838SOL    HW262143   0.885   4.135  22.524
16839SOL     OW62144   4.604   3.037   2.365
16839SOL    HW162145   4.656   3.088   2.427
16839SOL    HW262146   4.513   3.056   2.387
16840SOL     OW62147   4.350   0.131   7.786
16840SOL    HW162148   4.324   0.042   7.809
16840SOL    HW262149   4.341   0.135   7.691
16841SOL     OW62150   0.308   1.401  11.591
16841SOL    HW162151   0.387   1.453  11.605
16841SOL    HW262152   0.238   1.465  11.579
16842SOL     OW62153   3.159   4.212   7.213
16842SOL    HW162154   3.211   4.140   7.248
16842SOL    HW262155   3.097   4.233   7.283
16843SOL     OW62156   4.097   0.587  26.710
16843SOL    HW162157   4.038   0.632  26.770
16843SOL    HW262158   4.181   0.633  26.720
16844SOL     OW62159   2.238   1.185  25.279
16844SOL    HW162160   2.172   1.248  25.252
16844SOL    HW262161   2.270   1.218  25.363
16845SOL     OW62162   4.712   0.554  10.367
16845SOL    HW162163   4.716   0.593  10.454
16845SOL    HW262164   4.643   0.602  10.322
16846SOL     OW62165   4.576   2.703   8.199
16846SOL    HW162166   4.602   2.655   8.121
16846SOL    HW262167   4.561   2.792   8.168
16847SOL     OW62168   4.256   0.096  18.894
16847SOL    HW162169   4.284   0.045  18.818
16847SOL    HW262170   4.254   0.186  18.863
16848SOL     OW62171   3.558   4.380  26.569
16848SOL    HW162172   3.527   4.466  26.598
16848SOL    HW262173   3.483   4.322  26.582
16849SOL     OW62174   2.442   1.168  24.038
16849SOL    HW162175   2.420   1.261  24.048
16849SOL    HW262176   2.529   1.168  23.998
16850SOL     OW62177   3.973   3.451  23.849
16850SOL    HW162178   3.946   3.543  23.841
16850SOL    HW262179   3.914   3.415  23.915
16851SOL     OW62180   1.349   3.571   7.100
16851SOL    HW162181   1.288   3.584   7.027
16851SOL    HW262182   1.397   3.654   7.106
16852SOL     OW62183   2.858   1.438   9.387
16852SOL    HW162184   2.918   1.455   9.315
16852SOL    HW262185   2.902   1.475   9.464
16853SOL     OW62186   2.734   1.887   7.215
16853SOL    HW162187   2.668   1.820   7.235
16853SOL    HW262188   2.795   1.843   7.156
16854SOL     OW62189   4.653   3.350  21.477
16854SOL    HW162190   4.678   3.268  21.520
16854SOL    HW262191   4.560   3.338  21.456
16855SOL     OW62192   1.195   3.311  28.420
16855SOL    HW162193   1.214   3.384  28.478
16855SOL    HW262194   1.208   3.346  28.332
16856SOL     OW62195   0.846   3.914  21.323
16856SOL    HW162196   0.804   3.950  21.401
16856SOL    HW262197   0.774   3.881  21.269
16857SOL     OW62198   2.324   0.400  21.334
16857SOL    HW162199   2.396   0.442  21.287
16857SOL    HW262200   2.364   0.324  21.375
16858SOL     OW62201   2.237   1.880  21.793
16858SOL    HW162202   2.192   1.964  21.793
16858SOL    HW262203   2.170   1.817  21.819
16859SOL     OW62204   2.169   3.212   5.793
16859SOL    HW162205   2.184   3.247   5.705
16859SOL    HW262206   2.102   3.270   5.830
16860SOL     OW62207   4.521   3.940  26.398
16860SOL    HW162208   4.538   4.003  26.468
16860SOL    HW262209   4.601   3.888  26.392
16861SOL     OW62210   1.567   0.667   7.524
16861SOL    HW162211   1.494   0.720   7.556
16861SOL    HW262212   1.605   0.629   7.603
16862SOL     OW62213   0.143   1.287   6.128
16862SOL    HW162214   0.173   1.378   6.126
16862SOL    HW262215   0.066   1.288   6.184
16863SOL     OW62216   2.568   2.673   3.888
16863SOL    HW162217   2.527   2.739   3.832
16863SOL    HW262218   2.596   2.604   3.828
16864SOL     OW62219   0.771   1.635  24.708
16864SOL    HW162220   0.706   1.588  24.760
16864SOL    HW262221   0.722   1.704  24.664
16865SOL     OW62222   2.554   0.284   5.949
16865SOL    HW162223   2.472   0.333   5.942
16865SOL    HW262224   2.589   0.306   6.035
16866SOL     OW62225   1.736   4.683   2.947
16866SOL    HW162226   1.788   4.762   2.933
16866SOL    HW262227   1.646   4.714   2.951
16867SOL     OW62228   4.449   3.761   4.290
16867SOL    HW162229   4.528   3.759   4.344
16867SOL    HW262230   4.431   3.669   4.270
16868SOL     OW62231   0.520   4.320  22.996
16868SOL    HW162232   0.460   4.308  23.070
16868SOL    HW262233   0.477   4.277  22.923
16869SOL     OW62234   1.013   0.429   1.687
16869SOL    HW162235   1.004   0.442   1.593
16869SOL    HW262236   0.988   0.338   1.701
16870SOL     OW62237   3.900   0.730  19.964
16870SOL    HW162238   3.871   0.797  20.026
16870SOL    HW262239   3.949   0.778  19.898
16871SOL     OW62240   4.458   1.172  11.124
16871SOL    HW162241   4.454   1.106  11.193
16871SOL    HW262242   4.408   1.246  11.158
16872SOL     OW62243   3.374   4.303   0.555
16872SOL    HW162244   3.301   4.287   0.495
16872SOL    HW262245   3.342   4.372   0.614
16873SOL     OW62246   0.207   0.164  18.638
16873SOL    HW162247   0.220   0.207  18.723
16873SOL    HW262248   0.281   0.194  18.585
16874SOL     OW62249   4.383   1.295  24.348
16874SOL    HW162250   4.432   1.359  24.297
16874SOL    HW262251   4.448   1.228  24.370
16875SOL     OW62252   2.289   3.460  28.404
16875SOL    HW162253   2.297   3.374  28.446
16875SOL    HW262254   2.319   3.445  28.314
16876SOL     OW62255   4.659   1.676   1.047
16876SOL    HW162256   4.567   1.672   1.075
16876SOL    HW262257   4.661   1.744   0.979
16877SOL     OW62258   2.382   3.182  20.563
16877SOL    HW162259   2.345   3.109  20.613
16877SOL    HW262260   2.444   3.223  20.623
16878SOL     OW62261   1.546   4.527  12.350
16878SOL    HW162262   1.553   4.561  12.439
16878SOL    HW262263   1.577   4.437  12.357
16879SOL     OW62264   4.188   1.994   2.084
16879SOL    HW162265   4.249   1.956   2.147
16879SOL    HW262266   4.138   1.920   2.051
16880SOL     OW62267   1.955   0.592   8.668
16880SOL    HW162268   1.903   0.662   8.707
16880SOL    HW262269   1.898   0.553   8.602
16881SOL     OW62270   0.037   2.665  25.429
16881SOL    HW162271   0.013   2.753  25.400
16881SOL    HW262272   0.040   2.613  25.348
16882SOL     OW62273   1.591   2.619  10.682
16882SOL    HW162274   1.620   2.645  10.594
16882SOL    HW262275   1.625   2.530  10.693
16883SOL     OW62276   1.735   3.851   2.049
16883SOL    HW162277   1.800   3.919   2.031
16883SOL    HW262278   1.723   3.807   1.965
16884SOL     OW62279   0.970   4.352  10.371
16884SOL    HW162280   1.062   4.345  10.344
16884SOL    HW262281   0.973   4.396  10.456
16885SOL     OW62282   2.985   4.232  26.008
16885SOL    HW162283   3.019   4.316  25.978
16885SOL    HW262284   2.995   4.235  26.103
16886SOL     OW62285   4.631   4.587   2.898
16886SOL    HW162286   4.539   4.583   2.872
16886SOL    HW262287   4.678   4.547   2.825
16887SOL     OW62288   0.372   2.756   1.717
16887SOL    HW162289   0.282   2.743   1.747
16887SOL    HW262290   0.425   2.741   1.795
16888SOL     OW62291   2.188   3.413   9.867
16888SOL    HW162292   2.124   3.355   9.826
16888SOL    HW262293   2.182   3.495   9.818
16889SOL     OW62294   3.040   4.418   7.072
16889SOL    HW162295   3.080   4.341   7.112
16889SOL    HW262296   2.947   4.398   7.068
16890SOL     OW62297   1.283   1.174  25.047
16890SOL    HW162298   1.264   1.255  24.999
16890SOL    HW262299   1.201   1.125  25.045
16891SOL     OW62300   4.343   0.048  22.799
16891SOL    HW162301   4.268   0.107  22.804
16891SOL    HW262302   4.323   4.771  22.725
16892SOL     OW62303   1.996   2.024  26.443
16892SOL    HW162304   1.991   1.931  26.422
16892SOL    HW262305   2.040   2.028  26.528
16893SOL     OW62306   2.813   1.259  26.714
16893SOL    HW162307   2.867   1.180  26.720
16893SOL    HW262308   2.763   1.247  26.633
16894SOL     OW62309   3.030   1.112  22.225
16894SOL    HW162310   3.040   1.120  22.320
16894SOL    HW262311   3.082   1.184  22.189
16895SOL     OW62312   2.227   1.784  23.381
16895SOL    HW162313   2.155   1.779  23.318
16895SOL    HW262314   2.185   1.775  23.467
16896SOL     OW62315   3.483   1.131  22.895
16896SOL    HW162316   3.389   1.151  22.893
16896SOL    HW262317   3.494   1.063  22.828
16897SOL     OW62318   3.356   0.039  28.198
16897SOL    HW162319   3.391   4.737  28.165
16897SOL    HW262320   3.266   0.018  28.225
16898SOL     OW62321   2.207   3.321  17.532
16898SOL    HW162322   2.209   3.262  17.457
16898SOL    HW262323   2.298   3.327  17.560
16899SOL     OW62324   0.120   3.268   3.423
16899SOL    HW162325   0.062   3.318   3.481
16899SOL    HW262326   0.208   3.296   3.447
16900SOL     OW62327   1.894   2.796  21.004
16900SOL    HW162328   1.978   2.803  21.049
16900SOL    HW262329   1.915   2.813  20.912
16901SOL     OW62330   3.128   0.873   1.708
16901SOL    HW162331   3.146   0.949   1.764
16901SOL    HW262332   3.208   0.862   1.657
16902SOL     OW62333   1.458   2.997   0.438
16902SOL    HW162334   1.443   2.960   0.351
16902SOL    HW262335   1.446   3.091   0.427
16903SOL     OW62336   2.765   3.111   5.239
16903SOL    HW162337   2.727   3.185   5.286
16903SOL    HW262338   2.860   3.123   5.247
16904SOL     OW62339   0.204   0.808  25.760
16904SOL    HW162340   0.190   0.897  25.792
16904SOL    HW262341   0.180   0.812  25.667
16905SOL     OW62342   2.014   4.708   2.577
16905SOL    HW162343   2.057   4.747   2.653
16905SOL    HW262344   2.050   4.755   2.502
16906SOL     OW62345   0.093   4.252   2.192
16906SOL    HW162346   0.164   4.312   2.167
16906SOL    HW262347   0.120   4.217   2.277
16907SOL     OW62348   0.484   2.085   3.020
16907SOL    HW162349   0.462   2.108   3.110
16907SOL    HW262350   0.554   2.021   3.028
16908SOL     OW62351   0.953   0.937  10.159
16908SOL    HW162352   0.959   0.933  10.064
16908SOL    HW262353   0.948   1.031  10.178
16909SOL     OW62354   2.632   4.306  18.639
16909SOL    HW162355   2.600   4.371  18.702
16909SOL    HW262356   2.706   4.264  18.683
16910SOL     OW62357   3.310   3.509  21.455
16910SOL    HW162358   3.253   3.508  21.532
16910SOL    HW262359   3.359   3.591  21.463
16911SOL     OW62360   1.502   2.776  27.296
16911SOL    HW162361   1.495   2.700  27.238
16911SOL    HW262362   1.575   2.827  27.261
16912SOL     OW62363   1.954   3.792  20.264
16912SOL    HW162364   1.977   3.703  20.289
16912SOL    HW262365   1.957   3.792  20.168
16913SOL     OW62366   2.685   0.938  23.693
16913SOL    HW162367   2.635   0.958  23.614
16913SOL    HW262368   2.659   0.849  23.716
16914SOL     OW62369   4.042   1.025   7.401
16914SOL    HW162370   3.984   1.043   7.475
16914SOL    HW262371   4.076   0.937   7.418
16915SOL     OW62372   2.839   0.684  11.374
16915SOL    HW162373   2.854   0.733  11.454
16915SOL    HW262374   2.904   0.718  11.312
16916SOL     OW62375   2.831   1.840  21.001
16916SOL    HW162376   2.872   1.765  21.044
16916SOL    HW262377   2.768   1.802  20.940
16917SOL     OW62378   4.726   3.426  24.846
16917SOL    HW162379   4.699   3.473  24.925
16917SOL    HW262380   0.011   3.483  24.806
16918SOL     OW62381   3.655   3.247  23.818
16918SOL    HW162382   3.691   3.247  23.907
16918SOL    HW262383   3.568   3.208  23.827
16919SOL     OW62384   0.522   1.345   6.928
16919SOL    HW162385   0.480   1.259   6.935
16919SOL    HW262386   0.612   1.325   6.903
16920SOL     OW62387   4.709   4.372  21.923
16920SOL    HW162388   4.655   4.350  21.847
16920SOL    HW262389   0.003   4.312  21.918
16921SOL     OW62390   3.916   1.504   1.029
16921SOL    HW162391   3.895   1.594   1.005
16921SOL    HW262392   3.849   1.480   1.093
16922SOL     OW62393   1.011   3.879  25.024
16922SOL    HW162394   1.037   3.800  24.977
16922SOL    HW262395   0.950   3.923  24.965
16923SOL     OW62396   3.096   2.356  27.406
16923SOL    HW162397   3.058   2.319  27.326
16923SOL    HW262398   3.172   2.406  27.376
16924SOL     OW62399   4.108   4.251  18.849
16924SOL    HW162400   4.189   4.200  18.847
16924SOL    HW262401   4.084   4.254  18.942
16925SOL     OW62402   3.891   3.302  23.603
16925SOL    HW162403   3.811   3.250  23.592
16925SOL    HW262404   3.883   3.340  23.691
16926SOL     OW62405   1.513   0.947  21.307
16926SOL    HW162406   1.604   0.970  21.287
16926SOL    HW262407   1.465   0.969  21.227
16927SOL     OW62408   2.758   3.040   9.709
16927SOL    HW162409   2.792   3.000   9.629
16927SOL    HW262410   2.829   3.095   9.740
16928SOL     OW62411   1.955   3.415   8.884
16928SOL    HW162412   2.007   3.481   8.839
16928SOL    HW262413   1.882   3.463   8.922
16929SOL     OW62414   2.052   2.371  27.725
16929SOL    HW162415   1.992   2.421  27.780
16929SOL    HW262416   1.995   2.317  27.671
16930SOL     OW62417   3.998   2.089  11.948
16930SOL    HW162418   4.032   2.171  11.985
16930SOL    HW262419   4.065   2.024  11.968
16931SOL     OW62420   2.329   1.936   8.202
16931SOL    HW162421   2.239   1.909   8.221
16931SOL    HW262422   2.384   1.877   8.254
16932SOL     OW62423   1.506   2.649   5.706
16932SOL    HW162424   1.553   2.569   5.729
16932SOL    HW262425   1.462   2.628   5.624
16933SOL     OW62426   0.100   1.256  24.243
16933SOL    HW162427   0.055   1.303  24.173
16933SOL    HW262428   0.087   1.163  24.222
16934SOL     OW62429   2.291   3.783  22.068
16934SOL    HW162430   2.301   3.875  22.044
16934SOL    HW262431   2.233   3.747  22.001
16935SOL     OW62432   2.159   4.750   1.791
16935SOL    HW162433   2.156   4.722   1.882
16935SOL    HW262434   2.178   4.670   1.742
16936SOL     OW62435   3.331   3.549  27.174
16936SOL    HW162436   3.276   3.506  27.109
16936SOL    HW262437   3.290   3.528  27.258
16937SOL     OW62438   2.165   0.827  22.787
16937SOL    HW162439   2.192   0.884  22.715
16937SOL    HW262440   2.231   0.758  22.788
16938SOL     OW62441   3.807   1.244   3.682
16938SOL    HW162442   3.792   1.156   3.649
16938SOL    HW262443   3.733   1.261   3.741
16939SOL     OW62444   3.787   3.863   4.939
16939SOL    HW162445   3.712   3.804   4.930
16939SOL    HW262446   3.861   3.812   4.907
16940SOL     OW62447   0.190   4.271  21.857
16940SOL    HW162448   0.154   4.186  21.830
16940SOL    HW262449   0.248   4.250  21.930
16941SOL     OW62450   3.732   3.460  21.969
16941SOL    HW162451   3.690   3.517  21.905
16941SOL    HW262452   3.722   3.372  21.934
16942SOL     OW62453   2.692   2.891  11.054
16942SOL    HW162454   2.779   2.896  11.015
16942SOL    HW262455   2.701   2.827  11.124
16943SOL     OW62456   0.171   2.900   1.066
16943SOL    HW162457   0.167   2.930   0.975
16943SOL    HW262458   0.098   2.839   1.074
16944SOL     OW62459   0.114   0.379   9.065
16944SOL    HW162460   0.080   0.399   8.978
16944SOL    HW262461   0.133   0.285   9.062
16945SOL     OW62462   1.316   0.974  11.026
16945SOL    HW162463   1.382   0.974  11.096
16945SOL    HW262464   1.264   1.053  11.042
16946SOL     OW62465   2.048   3.459   1.170
16946SOL    HW162466   2.098   3.524   1.220
16946SOL    HW262467   1.956   3.483   1.184
16947SOL     OW62468   1.558   2.171   3.453
16947SOL    HW162469   1.593   2.090   3.489
16947SOL    HW262470   1.562   2.233   3.526
16948SOL     OW62471   1.662   4.037   9.833
16948SOL    HW162472   1.572   4.056   9.858
16948SOL    HW262473   1.708   4.121   9.841
16949SOL     OW62474   3.174   4.637   9.508
16949SOL    HW162475   3.162   4.622   9.414
16949SOL    HW262476   3.186   4.549   9.544
16950SOL     OW62477   2.730   0.833   8.906
16950SOL    HW162478   2.697   0.746   8.928
16950SOL    HW262479   2.733   0.834   8.810
16951SOL     OW62480   4.133   2.560  26.715
16951SOL    HW162481   4.105   2.548  26.806
16951SOL    HW262482   4.220   2.520  26.711
16952SOL     OW62483   2.541   1.295  20.015
16952SOL    HW162484   2.549   1.387  19.991
16952SOL    HW262485   2.559   1.247  19.934
16953SOL     OW62486   3.816   3.428  18.569
16953SOL    HW162487   3.868   3.356  18.606
16953SOL    HW262488   3.843   3.432  18.477
16954SOL     OW62489   1.895   4.479  26.307
16954SOL    HW162490   1.823   4.541  26.297
16954SOL    HW262491   1.973   4.527  26.279
16955SOL     OW62492   3.640   1.563  26.709
16955SOL    HW162493   3.589   1.483  26.697
16955SOL    HW262494   3.717   1.535  26.759
16956SOL     OW62495   0.010   2.674  25.094
16956SOL    HW162496   4.745   2.750  25.058
16956SOL    HW262497   4.723   2.606  25.100
16957SOL     OW62498   2.612   4.027  28.135
16957SOL    HW162499   2.652   4.057  28.216
16957SOL    HW262500   2.573   3.942  28.158
16958SOL     OW62501   3.036   0.050  11.234
16958SOL    HW162502   2.945   0.076  11.251
16958SOL    HW262503   3.035   4.735  11.239
16959SOL     OW62504   2.323   1.191   5.112
16959SOL    HW162505   2.349   1.128   5.179
16959SOL    HW262506   2.355   1.275   5.145
16960SOL     OW62507   3.471   1.397   0.015
16960SOL    HW162508   3.566   1.394   0.028
16960SOL    HW262509   3.460   1.442  28.451
16961SOL     OW62510   1.182   2.347   5.939
16961SOL    HW162511   1.127   2.300   6.002
16961SOL    HW262512   1.259   2.373   5.989
16962SOL     OW62513   2.684   3.482   1.662
16962SOL    HW162514   2.758   3.518   1.712
16962SOL    HW262515   2.614   3.546   1.674
16963SOL     OW62516   0.505   0.464  18.307
16963SOL    HW162517   0.448   0.538  18.328
16963SOL    HW262518   0.539   0.484  18.220
16964SOL     OW62519   2.653   4.044  20.160
16964SOL    HW162520   2.667   4.004  20.246
16964SOL    HW262521   2.740   4.074  20.133
16965SOL     OW62522   0.164   3.195   7.165
16965SOL    HW162523   0.080   3.149   7.170
16965SOL    HW262524   0.168   3.227   7.075
16966SOL     OW62525   3.395   0.725   0.138
16966SOL    HW162526   3.380   0.677   0.056
16966SOL    HW262527   3.486   0.753   0.132
16967SOL     OW62528   4.182   1.962  21.195
16967SOL    HW162529   4.250   1.919  21.247
16967SOL    HW262530   4.142   2.025  21.255
16968SOL     OW62531   4.523   3.300   1.617
16968SOL    HW162532   4.512   3.393   1.599
16968SOL    HW262533   4.537   3.295   1.712
16969SOL     OW62534   3.760   1.239  19.742
16969SOL    HW162535   3.681   1.292  19.735
16969SOL    HW262536   3.794   1.258  19.829
16970SOL     OW62537   1.098   2.851  26.235
16970SOL    HW162538   1.154   2.794  26.288
16970SOL    HW262539   1.138   2.849  26.148
16971SOL     OW62540   1.687   0.469  25.625
16971SOL    HW162541   1.698   0.532  25.553
16971SOL    HW262542   1.592   0.462  25.636
16972SOL     OW62543   1.883   0.819  11.337
16972SOL    HW162544   1.861   0.910  11.316
16972SOL    HW262545   1.854   0.808  11.428
16973SOL     OW62546   2.811   3.865   1.294
16973SOL    HW162547   2.882   3.907   1.343
16973SOL    HW262548   2.826   3.771   1.306
16974SOL     OW62549   2.286   4.438  20.357
16974SOL    HW162550   2.220   4.448  20.289
16974SOL    HW262551   2.348   4.375  20.321
16975SOL     OW62552   4.025   2.514  26.338
16975SOL    HW162553   3.982   2.574  26.399
16975SOL    HW262554   3.996   2.427  26.365
16976SOL     OW62555   4.206   1.695  19.048
16976SOL    HW162556   4.253   1.640  19.111
16976SOL    HW262557   4.223   1.653  18.963
16977SOL     OW62558   4.024   0.220  23.901
16977SOL    HW162559   4.042   0.149  23.839
16977SOL    HW262560   4.032   0.300  23.849
16978SOL     OW62561   1.570   3.556  26.909
16978SOL    HW162562   1.485   3.526  26.876
16978SOL    HW262563   1.562   3.651  26.913
16979SOL     OW62564   0.748   2.268  25.582
16979SOL    HW162565   0.808   2.321  25.529
16979SOL    HW262566   0.768   2.178  25.558
16980SOL     OW62567   3.531   1.037   5.175
16980SOL    HW162568   3.521   1.099   5.247
16980SOL    HW262569   3.469   1.068   5.108
16981SOL     OW62570   4.705   1.713   9.007
16981SOL    HW162571   4.715   1.666   9.090
16981SOL    HW262572   4.625   1.764   9.018
16982SOL     OW62573   2.073   1.136  19.901
16982SOL    HW162574   2.139   1.147  19.969
16982SOL    HW262575   2.052   1.225  19.874
16983SOL     OW62576   0.599   0.783   0.185
16983SOL    HW162577   0.598   0.879   0.190
16983SOL    HW262578   0.623   0.754   0.273
16984SOL     OW62579   1.430   2.880  21.465
16984SOL    HW162580   1.370   2.928  21.408
16984SOL    HW262581   1.373   2.830  21.524
16985SOL     OW62582   3.762   0.089   7.546
16985SOL    HW162583   3.767   0.053   7.635
16985SOL    HW262584   3.694   0.037   7.503
16986SOL     OW62585   1.290   4.005   8.066
16986SOL    HW162586   1.346   4.061   8.013
16986SOL    HW262587   1.350   3.961   8.126
16987SOL     OW62588   2.836   4.437   6.400
16987SOL    HW162589   2.883   4.449   6.483
16987SOL    HW262590   2.795   4.522   6.383
16988SOL     OW62591   4.504   2.041   8.730
16988SOL    HW162592   4.535   1.967   8.677
16988SOL    HW262593   4.481   2.002   8.814
16989SOL     OW62594   4.409   2.274   2.321
16989SOL    HW162595   4.435   2.286   2.230
16989SOL    HW262596   4.478   2.220   2.359
16990SOL     OW62597   4.617   4.399   2.232
16990SOL    HW162598   4.695   4.350   2.205
16990SOL    HW262599   4.553   4.383   2.162
16991SOL     OW62600   0.948   1.199  18.560
16991SOL    HW162601   1.005   1.199  18.483
16991SOL    HW262602   0.922   1.107  18.570
16992SOL     OW62603   3.736   2.744  17.325
16992SOL    HW162604   3.773   2.794  17.397
16992SOL    HW262605   3.756   2.796  17.247
16993SOL     OW62606   2.934   2.515  18.143
16993SOL    HW162607   2.994   2.575  18.187
16993SOL    HW262608   2.859   2.569  18.119
16994SOL     OW62609   3.321   3.221   8.188
16994SOL    HW162610   3.314   3.306   8.144
16994SOL    HW262611   3.389   3.234   8.255
16995SOL     OW62612   1.482   2.202   4.779
16995SOL    HW162613   1.500   2.209   4.873
16995SOL    HW262614   1.430   2.280   4.759
16996SOL     OW62615   0.776   1.185  20.541
16996SOL    HW162616   0.867   1.171  20.517
16996SOL    HW262617   0.762   1.278  20.526
16997SOL     OW62618   2.143   4.050  18.862
16997SOL    HW162619   2.213   4.115  18.866
16997SOL    HW262620   2.179   3.978  18.810
16998SOL     OW62621   0.366   2.821  28.489
16998SOL    HW162622   0.405   2.908  28.487
16998SOL    HW262623   0.281   2.831  28.447
16999SOL     OW62624   1.451   0.245  28.108
16999SOL    HW162625   1.375   0.271  28.160
16999SOL    HW262626   1.503   0.191  28.168
17000SOL     OW62627   3.923   1.086  24.374
17000SOL    HW162628   3.991   1.047  24.319
17000SOL    HW262629   3.960   1.085  24.462
17001SOL     OW62630   2.142   4.575  27.577
17001SOL    HW162631   2.160   4.510  27.509
17001SOL    HW262632   2.050   4.597  27.565
17002SOL     OW62633   2.209   4.050   4.692
17002SOL    HW162634   2.158   3.980   4.652
17002SOL    HW262635   2.279   4.005   4.738
17003SOL     OW62636   0.482   2.813   3.030
17003SOL    HW162637   0.559   2.830   2.975
17003SOL    HW262638   0.514   2.824   3.120
17004SOL     OW62639   3.094   3.369  26.009
17004SOL    HW162640   3.163   3.433  25.989
17004SOL    HW262641   3.063   3.394  26.096
17005SOL     OW62642   1.936   2.644  19.705
17005SOL    HW162643   1.895   2.559  19.690
17005SOL    HW262644   1.874   2.691  19.760
17006SOL     OW62645   2.607   1.531   6.646
17006SOL    HW162646   2.679   1.490   6.597
17006SOL    HW262647   2.614   1.495   6.734
17007SOL     OW62648   0.966   3.455   9.024
17007SOL    HW162649   1.037   3.412   8.977
17007SOL    HW262650   0.969   3.417   9.112
17008SOL     OW62651   1.236   2.479  28.336
17008SOL    HW162652   1.266   2.412  28.397
17008SOL    HW262653   1.145   2.456  28.318
17009SOL     OW62654   2.943   4.761  27.266
17009SOL    HW162655   2.907   0.039  27.200
17009SOL    HW262656   2.927   4.673  27.232
17010SOL     OW62657   1.954   1.572  19.134
17010SOL    HW162658   1.876   1.527  19.168
17010SOL    HW262659   1.920   1.651  19.093
17011SOL     OW62660   3.942   4.416  24.887
17011SOL    HW162661   3.863   4.388  24.932
17011SOL    HW262662   3.954   4.351  24.818
17012SOL     OW62663   3.374   3.358   5.878
17012SOL    HW162664   3.411   3.446   5.877
17012SOL    HW262665   3.299   3.364   5.937
17013SOL     OW62666   1.808   2.609   1.611
17013SOL    HW162667   1.814   2.672   1.540
17013SOL    HW262668   1.745   2.647   1.672
17014SOL     OW62669   0.118   0.115  10.130
17014SOL    HW162670   0.028   0.136  10.157
17014SOL    HW262671   0.161   0.088  10.211
17015SOL     OW62672   2.397   3.180   7.092
17015SOL    HW162673   2.376   3.114   7.026
17015SOL    HW262674   2.349   3.153   7.170
17016SOL     OW62675   4.434   4.238  22.570
17016SOL    HW162676   4.342   4.213  22.573
17016SOL    HW262677   4.433   4.334  22.576
17017SOL     OW62678   1.110   2.954   3.232
17017SOL    HW162679   1.112   3.047   3.256
17017SOL    HW262680   1.069   2.952   3.146
17018SOL     OW62681   2.272   1.527   2.658
17018SOL    HW162682   2.304   1.442   2.628
17018SOL    HW262683   2.235   1.509   2.745
17019SOL     OW62684   3.542   2.929  20.823
17019SOL    HW162685   3.591   2.968  20.895
17019SOL    HW262686   3.507   3.004  20.774
17020SOL     OW62687   0.635   0.780  25.997
17020SOL    HW162688   0.561   0.791  25.938
17020SOL    HW262689   0.651   0.686  25.998
17021SOL     OW62690   0.656   4.317  21.462
17021SOL    HW162691   0.574   4.269  21.454
17021SOL    HW262692   0.646   4.390  21.401
17022SOL     OW62693   4.470   3.625  28.080
17022SOL    HW162694   4.552   3.626  28.129
17022SOL    HW262695   4.480   3.553  28.018
17023SOL     OW62696   1.562   4.502   9.903
17023SOL    HW162697   1.653   4.510   9.932
17023SOL    HW262698   1.546   4.580   9.850
17024SOL     OW62699   4.379   0.654  28.058
17024SOL    HW162700   4.444   0.681  28.123
17024SOL    HW262701   4.430   0.615  27.987
17025SOL     OW62702   2.594   2.905   3.248
17025SOL    HW162703   2.542   2.915   3.168
17025SOL    HW262704   2.642   2.987   3.257
17026SOL     OW62705   3.285   0.918  24.778
17026SOL    HW162706   3.360   0.861  24.797
17026SOL    HW262707   3.250   0.885  24.695
17027SOL     OW62708   2.798   2.067  25.179
17027SOL    HW162709   2.836   2.133  25.120
17027SOL    HW262710   2.861   2.061  25.251
17028SOL     OW62711   1.964   1.967   1.635
17028SOL    HW162712   1.986   1.889   1.686
17028SOL    HW262713   1.884   1.944   1.588
17029SOL     OW62714   3.627   0.291  20.077
17029SOL    HW162715   3.570   0.266  20.150
17029SOL    HW262716   3.570   0.290  20.000
17030SOL     OW62717   4.373   3.278  26.951
17030SOL    HW162718   4.352   3.227  26.873
17030SOL    HW262719   4.289   3.292  26.994
17031SOL     OW62720   1.847   1.202  27.694
17031SOL    HW162721   1.889   1.232  27.775
17031SOL    HW262722   1.883   1.258  27.626
17032SOL     OW62723   1.796   2.546   2.810
17032SOL    HW162724   1.871   2.519   2.757
17032SOL    HW262725   1.811   2.639   2.828
17033SOL     OW62726   2.971   0.012  22.096
17033SOL    HW162727   3.043   0.072  22.113
17033SOL    HW262728   3.009   4.724  22.041
17034SOL     OW62729   4.483   0.343   4.659
17034SOL    HW162730   4.398   0.301   4.649
17034SOL    HW262731   4.530   0.286   4.720
17035SOL     OW62732   0.947   4.502  22.728
17035SOL    HW162733   0.872   4.514  22.786
17035SOL    HW262734   0.910   4.472  22.645
17036SOL     OW62735   1.128   3.157   9.160
17036SOL    HW162736   1.135   3.194   9.248
17036SOL    HW262737   1.175   3.074   9.165
17037SOL     OW62738   3.407   0.234   7.523
17037SOL    HW162739   3.393   0.162   7.461
17037SOL    HW262740   3.436   0.307   7.469
17038SOL     OW62741   3.991   1.066   1.788
17038SOL    HW162742   4.010   0.972   1.782
17038SOL    HW262743   3.932   1.083   1.714
17039SOL     OW62744   4.572   2.336  28.280
17039SOL    HW162745   4.537   2.289  28.204
17039SOL    HW262746   4.587   2.268  28.345
17040SOL     OW62747   1.384   3.030   9.164
17040SOL    HW162748   1.383   3.012   9.070
17040SOL    HW262749   1.425   3.116   9.171
17041SOL     OW62750   2.193   2.237   8.562
17041SOL    HW162751   2.284   2.234   8.533
17041SOL    HW262752   2.197   2.210   8.654
17042SOL     OW62753   2.885   3.465   4.811
17042SOL    HW162754   2.964   3.515   4.832
17042SOL    HW262755   2.875   3.474   4.716
17043SOL     OW62756   3.650   2.854  24.894
17043SOL    HW162757   3.707   2.777  24.890
17043SOL    HW262758   3.696   2.920  24.843
17044SOL     OW62759   3.117   4.388  11.014
17044SOL    HW162760   3.137   4.297  10.991
17044SOL    HW262761   3.193   4.438  10.985
17045SOL     OW62762   0.108   1.630   6.260
17045SOL    HW162763   0.056   1.563   6.304
17045SOL    HW262764   0.116   1.701   6.324
17046SOL     OW62765   3.123   3.557  21.681
17046SOL    HW162766   3.207   3.533  21.721
17046SOL    HW262767   3.058   3.539  21.749
17047SOL     OW62768   3.684   2.355  21.275
17047SOL    HW162769   3.656   2.297  21.346
17047SOL    HW262770   3.615   2.421  21.269
17048SOL     OW62771   0.516   3.122  23.662
17048SOL    HW162772   0.555   3.200  23.701
17048SOL    HW262773   0.422   3.130  23.679
17049SOL     OW62774   2.289   1.600   5.669
17049SOL    HW162775   2.357   1.636   5.612
17049SOL    HW262776   2.286   1.659   5.744
17050SOL     OW62777   1.375   4.622  19.602
17050SOL    HW162778   1.446   4.672  19.562
17050SOL    HW262779   1.364   4.546  19.544
17051SOL     OW62780   2.556   4.152  21.251
17051SOL    HW162781   2.630   4.211  21.264
17051SOL    HW262782   2.556   4.097  21.329
17052SOL     OW62783   0.076   2.582   0.905
17052SOL    HW162784   0.073   2.490   0.879
17052SOL    HW262785   0.020   2.627   0.841
17053SOL     OW62786   2.103   0.824  24.580
17053SOL    HW162787   2.083   0.765  24.653
17053SOL    HW262788   2.162   0.774  24.524
17054SOL     OW62789   1.941   3.894   9.792
17054SOL    HW162790   1.855   3.922   9.823
17054SOL    HW262791   1.979   3.972   9.753
17055SOL     OW62792   1.490   4.558   2.282
17055SOL    HW162793   1.489   4.485   2.344
17055SOL    HW262794   1.405   4.601   2.294
17056SOL     OW62795   1.624   2.972  25.265
17056SOL    HW162796   1.660   3.043  25.318
17056SOL    HW262797   1.699   2.938  25.215
17057SOL     OW62798   3.530   0.969  21.903
17057SOL    HW162799   3.464   0.918  21.856
17057SOL    HW262800   3.483   1.046  21.935
17058SOL     OW62801   1.676   2.368   1.910
17058SOL    HW162802   1.723   2.321   1.841
17058SOL    HW262803   1.700   2.323   1.991
17059SOL     OW62804   1.854   0.931  25.859
17059SOL    HW162805   1.923   0.996  25.848
17059SOL    HW262806   1.856   0.909  25.952
17060SOL     OW62807   4.168   3.083   8.443
17060SOL    HW162808   4.200   3.173   8.453
17060SOL    HW262809   4.247   3.030   8.436
17061SOL     OW62810   3.450   1.693   9.204
17061SOL    HW162811   3.356   1.676   9.208
17061SOL    HW262812   3.479   1.690   9.295
17062SOL     OW62813   0.711   2.464   3.278
17062SOL    HW162814   0.666   2.506   3.205
17062SOL    HW262815   0.800   2.500   3.276
17063SOL     OW62816   3.701   4.575   8.325
17063SOL    HW162817   3.632   4.611   8.270
17063SOL    HW262818   3.744   4.509   8.270
17064SOL     OW62819   0.334   4.559   1.206
17064SOL    HW162820   0.253   4.556   1.257
17064SOL    HW262821   0.355   4.652   1.199
17065SOL     OW62822   1.231   3.896   5.123
17065SOL    HW162823   1.281   3.952   5.063
17065SOL    HW262824   1.262   3.922   5.210
17066SOL     OW62825   4.149   1.873  17.026
17066SOL    HW162826   4.181   1.801  16.972
17066SOL    HW262827   4.116   1.937  16.963
17067SOL     OW62828   2.644   1.609   1.294
17067SOL    HW162829   2.560   1.577   1.327
17067SOL    HW262830   2.653   1.569   1.207
17068SOL     OW62831   2.797   0.768  10.208
17068SOL    HW162832   2.830   0.837  10.150
17068SOL    HW262833   2.791   0.810  10.294
17069SOL     OW62834   1.668   4.196  24.404
17069SOL    HW162835   1.736   4.263  24.408
17069SOL    HW262836   1.640   4.195  24.313
17070SOL     OW62837   4.238   4.214  21.632
17070SOL    HW162838   4.316   4.249  21.675
17070SOL    HW262839   4.248   4.239  21.540
17071SOL     OW62840   1.662   0.959   5.460
17071SOL    HW162841   1.737   0.949   5.518
17071SOL    HW262842   1.660   0.879   5.408
17072SOL     OW62843   0.477   0.869  26.952
17072SOL    HW162844   0.482   0.849  27.045
17072SOL    HW262845   0.465   0.964  26.948
17073SOL     OW62846   4.471   4.416  27.465
17073SOL    HW162847   4.521   4.458  27.535
17073SOL    HW262848   4.399   4.372  27.511
17074SOL     OW62849   0.341   2.145  26.310
17074SOL    HW162850   0.308   2.082  26.375
17074SOL    HW262851   0.356   2.093  26.231
17075SOL     OW62852   4.136   3.194   3.277
17075SOL    HW162853   4.169   3.246   3.350
17075SOL    HW262854   4.093   3.258   3.219
17076SOL     OW62855   1.343   2.444  26.905
17076SOL    HW162856   1.300   2.417  26.824
17076SOL    HW262857   1.293   2.520  26.935
17077SOL     OW62858   1.619   0.306  26.175
17077SOL    HW162859   1.614   0.328  26.082
17077SOL    HW262860   1.638   0.212  26.177
17078SOL     OW62861   0.964   1.473   7.928
17078SOL    HW162862   0.973   1.395   7.874
17078SOL    HW262863   0.898   1.526   7.883
17079SOL     OW62864   2.569   2.142  23.269
17079SOL    HW162865   2.549   2.059  23.225
17079SOL    HW262866   2.495   2.156  23.328
17080SOL     OW62867   3.930   3.983  25.862
17080SOL    HW162868   4.015   3.996  25.820
17080SOL    HW262869   3.876   4.056  25.831
17081SOL     OW62870   2.691   2.859   3.603
17081SOL    HW162871   2.734   2.872   3.518
17081SOL    HW262872   2.651   2.944   3.623
17082SOL     OW62873   4.229   4.237   7.573
17082SOL    HW162874   4.289   4.174   7.532
17082SOL    HW262875   4.224   4.209   7.664
17083SOL     OW62876   0.603   4.350   7.627
17083SOL    HW162877   0.614   4.264   7.586
17083SOL    HW262878   0.677   4.357   7.687
17084SOL     OW62879   3.907   1.924   5.885
17084SOL    HW162880   3.900   1.985   5.812
17084SOL    HW262881   3.826   1.937   5.935
17085SOL     OW62882   3.163   4.601  11.858
17085SOL    HW162883   3.256   4.617  11.845
17085SOL    HW262884   3.130   4.583  11.770
17086SOL     OW62885   3.629   0.373  26.638
17086SOL    HW162886   3.714   0.336  26.659
17086SOL    HW262887   3.590   0.395  26.723
17087SOL     OW62888   3.547   1.786  26.856
17087SOL    HW162889   3.589   1.749  26.933
17087SOL    HW262890   3.542   1.713  26.794
17088SOL     OW62891   2.010   0.217   8.697
17088SOL    HW162892   2.039   0.212   8.788
17088SOL    HW262893   1.923   0.177   8.697
17089SOL     OW62894   0.752   3.521  19.816
17089SOL    HW162895   0.808   3.566  19.753
17089SOL    HW262896   0.677   3.579  19.827
17090SOL     OW62897   3.877   3.539   7.227
17090SOL    HW162898   3.798   3.488   7.209
17090SOL    HW262899   3.851   3.602   7.294
17091SOL     OW62900   1.396   0.722   8.191
17091SOL    HW162901   1.425   0.778   8.263
17091SOL    HW262902   1.374   0.783   8.121
17092SOL     OW62903   1.199   0.142  22.507
17092SOL    HW162904   1.125   0.112  22.561
17092SOL    HW262905   1.236   0.061  22.471
17093SOL     OW62906   2.655   3.459  20.077
17093SOL    HW162907   2.567   3.445  20.041
17093SOL    HW262908   2.640   3.490  20.166
17094SOL     OW62909   3.949   1.862  10.952
17094SOL    HW162910   3.858   1.864  10.921
17094SOL    HW262911   3.974   1.954  10.960
17095SOL     OW62912   0.526   3.705   5.040
17095SOL    HW162913   0.472   3.782   5.024
17095SOL    HW262914   0.571   3.723   5.123
17096SOL     OW62915   1.430   4.460   6.326
17096SOL    HW162916   1.516   4.480   6.363
17096SOL    HW262917   1.386   4.545   6.321
17097SOL     OW62918   1.194   0.606  24.917
17097SOL    HW162919   1.259   0.673  24.938
17097SOL    HW262920   1.138   0.602  24.994
17098SOL     OW62921   3.408   1.493  25.193
17098SOL    HW162922   3.375   1.515  25.280
17098SOL    HW262923   3.433   1.577  25.155
17099SOL     OW62924   1.985   2.995  19.632
17099SOL    HW162925   2.022   2.926  19.687
17099SOL    HW262926   1.926   3.043  19.690
17100SOL     OW62927   3.492   1.104   7.161
17100SOL    HW162928   3.538   1.021   7.174
17100SOL    HW262929   3.446   1.093   7.078
17101SOL     OW62930   3.594   4.460   1.411
17101SOL    HW162931   3.662   4.520   1.380
17101SOL    HW262932   3.566   4.497   1.495
17102SOL     OW62933   1.094   2.385  23.646
17102SOL    HW162934   1.055   2.305  23.612
17102SOL    HW262935   1.020   2.436  23.679
17103SOL     OW62936   1.556   3.054  23.066
17103SOL    HW162937   1.478   3.078  23.116
17103SOL    HW262938   1.617   3.020  23.131
17104SOL     OW62939   0.606   0.093  24.208
17104SOL    HW162940   0.682   0.113  24.154
17104SOL    HW262941   0.618   0.002  24.235
17105SOL     OW62942   4.209   2.917  20.920
17105SOL    HW162943   4.150   2.944  20.850
17105SOL    HW262944   4.219   2.823  20.907
17106SOL     OW62945   2.754   1.521  26.698
17106SOL    HW162946   2.715   1.549  26.781
17106SOL    HW262947   2.803   1.442  26.721
17107SOL     OW62948   2.108   0.566   3.260
17107SOL    HW162949   2.174   0.596   3.197
17107SOL    HW262950   2.116   0.471   3.260
17108SOL     OW62951   1.155   1.682   9.392
17108SOL    HW162952   1.146   1.588   9.410
17108SOL    HW262953   1.240   1.689   9.348
17109SOL     OW62954   3.598   4.322  22.217
17109SOL    HW162955   3.590   4.250  22.279
17109SOL    HW262956   3.640   4.283  22.140
17110SOL     OW62957   0.631   4.424  10.247
17110SOL    HW162958   0.542   4.392  10.230
17110SOL    HW262959   0.623   4.519  10.247
17111SOL     OW62960   0.800   2.321   4.100
17111SOL    HW162961   0.811   2.373   4.020
17111SOL    HW262962   0.889   2.304   4.130
17112SOL     OW62963   3.545   0.523   8.196
17112SOL    HW162964   3.589   0.495   8.276
17112SOL    HW262965   3.585   0.470   8.127
17113SOL     OW62966   4.680   4.385   3.236
17113SOL    HW162967   4.656   4.347   3.320
17113SOL    HW262968   4.628   4.465   3.230
17114SOL     OW62969   4.239   0.907  25.312
17114SOL    HW162970   4.162   0.958  25.286
17114SOL    HW262971   4.262   0.858  25.233
17115SOL     OW62972   2.571   2.981   9.883
17115SOL    HW162973   2.508   3.053   9.892
17115SOL    HW262974   2.636   3.014   9.820
17116SOL     OW62975   2.446   3.432  18.887
17116SOL    HW162976   2.383   3.480  18.833
17116SOL    HW262977   2.410   3.343  18.893
17117SOL     OW62978   0.797   0.268  11.201
17117SOL    HW162979   0.844   0.345  11.170
17117SOL    HW262980   0.861   0.197  11.196
17118SOL     OW62981   2.743   0.332  19.751
17118SOL    HW162982   2.754   0.250  19.703
17118SOL    HW262983   2.662   0.369  19.717
17119SOL     OW62984   0.476   3.756   1.567
17119SOL    HW162985   0.516   3.733   1.483
17119SOL    HW262986   0.503   3.847   1.582
17120SOL     OW62987   2.293   2.337   3.184
17120SOL    HW162988   2.350   2.281   3.237
17120SOL    HW262989   2.353   2.388   3.129
17121SOL     OW62990   1.455   2.827   0.237
17121SOL    HW162991   1.407   2.745   0.237
17121SOL    HW262992   1.441   2.864   0.150
17122SOL     OW62993   2.215   3.086   8.952
17122SOL    HW162994   2.124   3.116   8.958
17122SOL    HW262995   2.227   3.066   8.859
17123SOL     OW62996   2.964   0.841  19.075
17123SOL    HW162997   2.932   0.931  19.073
17123SOL    HW262998   2.958   0.816  19.167
17124SOL     OW62999   3.538   4.508   7.756
17124SOL    HW163000   3.593   4.451   7.702
17124SOL    HW263001   3.559   4.596   7.726
17125SOL     OW63002   2.466   3.216  27.050
17125SOL    HW163003   2.491   3.138  27.000
17125SOL    HW263004   2.385   3.246  27.010
17126SOL     OW63005   0.109   2.411   7.576
17126SOL    HW163006   0.144   2.327   7.545
17126SOL    HW263007   0.100   2.464   7.497
17127SOL     OW63008   0.227   0.733  22.131
17127SOL    HW163009   0.216   0.686  22.214
17127SOL    HW263010   0.223   0.825  22.155
17128SOL     OW63011   4.427   2.586   0.832
17128SOL    HW163012   4.412   2.582   0.927
17128SOL    HW263013   4.339   2.584   0.794
17129SOL     OW63014   1.863   0.039   9.251
17129SOL    HW163015   1.919   0.087   9.313
17129SOL    HW263016   1.886   0.075   9.165
17130SOL     OW63017   3.394   0.630  24.052
17130SOL    HW163018   3.489   0.637  24.056
17130SOL    HW263019   3.364   0.666  24.135
17131SOL     OW63020   0.720   3.375   8.943
17131SOL    HW163021   0.753   3.291   8.974
17131SOL    HW263022   0.799   3.427   8.927
17132SOL     OW63023   1.315   3.430   2.462
17132SOL    HW163024   1.283   3.341   2.479
17132SOL    HW263025   1.390   3.418   2.404
17133SOL     OW63026   0.859   2.644  28.293
17133SOL    HW163027   0.764   2.650  28.298
17133SOL    HW263028   0.883   2.703  28.222
17134SOL     OW63029   0.295   0.266  17.263
17134SOL    HW163030   0.210   0.305  17.243
17134SOL    HW263031   0.356   0.309  17.204
17135SOL     OW63032   1.647   4.639   1.296
17135SOL    HW163033   1.635   4.726   1.334
17135SOL    HW263034   1.597   4.641   1.215
17136SOL     OW63035   1.556   3.014   5.215
17136SOL    HW163036   1.481   2.990   5.160
17136SOL    HW263037   1.578   2.933   5.262
17137SOL     OW63038   3.128   2.582  25.899
17137SOL    HW163039   3.039   2.580  25.933
17137SOL    HW263040   3.178   2.526  25.959
17138SOL     OW63041   3.571   4.026   6.591
17138SOL    HW163042   3.604   3.951   6.541
17138SOL    HW263043   3.490   3.994   6.631
17139SOL     OW63044   0.318   2.081  10.014
17139SOL    HW163045   0.358   2.007  10.060
17139SOL    HW263046   0.330   2.156  10.073
17140SOL     OW63047   3.216   1.500  20.223
17140SOL    HW163048   3.305   1.522  20.250
17140SOL    HW263049   3.171   1.476  20.304
17141SOL     OW63050   4.527   1.553   5.020
17141SOL    HW163051   4.500   1.463   5.037
17141SOL    HW263052   4.582   1.547   4.942
17142SOL     OW63053   0.514   2.660  28.355
17142SOL    HW163054   0.441   2.603  28.331
17142SOL    HW263055   0.477   2.720  28.419
17143SOL     OW63056   2.990   3.196   6.716
17143SOL    HW163057   2.924   3.128   6.733
17143SOL    HW263058   3.056   3.182   6.783
17144SOL     OW63059   2.046   2.212   1.038
17144SOL    HW163060   1.975   2.276   1.039
17144SOL    HW263061   2.002   2.127   1.040
17145SOL     OW63062   3.262   3.554   1.456
17145SOL    HW163063   3.352   3.544   1.426
17145SOL    HW263064   3.209   3.518   1.385
17146SOL     OW63065   3.506   3.036   2.407
17146SOL    HW163066   3.473   3.117   2.444
17146SOL    HW263067   3.510   2.975   2.481
17147SOL     OW63068   4.322   4.198  20.658
17147SOL    HW163069   4.286   4.145  20.729
17147SOL    HW263070   4.257   4.191  20.588
17148SOL     OW63071   1.073   3.301   8.518
17148SOL    HW163072   1.033   3.221   8.553
17148SOL    HW263073   1.161   3.303   8.556
17149SOL     OW63074   1.686   0.261  12.123
17149SOL    HW163075   1.705   0.266  12.217
17149SOL    HW263076   1.632   0.338  12.105
17150SOL     OW63077   4.548   0.656   1.356
17150SOL    HW163078   4.461   0.662   1.396
17150SOL    HW263079   4.604   0.708   1.413
17151SOL     OW63080   2.388   2.183  11.352
17151SOL    HW163081   2.388   2.198  11.258
17151SOL    HW263082   2.476   2.206  11.380
17152SOL     OW63083   4.644   0.507   7.281
17152SOL    HW163084   4.575   0.442   7.274
17152SOL    HW263085   4.720   0.458   7.313
17153SOL     OW63086   2.349   3.527  24.871
17153SOL    HW163087   2.341   3.459  24.804
17153SOL    HW263088   2.402   3.487  24.940
17154SOL     OW63089   0.521   4.059   8.385
17154SOL    HW163090   0.574   4.138   8.377
17154SOL    HW263091   0.471   4.072   8.466
17155SOL     OW63092   0.489   2.970   0.931
17155SOL    HW163093   0.578   3.005   0.928
17155SOL    HW263094   0.437   3.032   0.880
17156SOL     OW63095   1.789   3.412   2.000
17156SOL    HW163096   1.768   3.342   2.062
17156SOL    HW263097   1.867   3.380   1.954
17157SOL     OW63098   0.502   1.460   8.162
17157SOL    HW163099   0.594   1.443   8.142
17157SOL    HW263100   0.498   1.461   8.258
17158SOL     OW63101   0.568   0.209   8.515
17158SOL    HW163102   0.548   0.268   8.443
17158SOL    HW263103   0.501   0.141   8.510
17159SOL     OW63104   0.100   4.700   5.944
17159SOL    HW163105   0.115   4.713   6.038
17159SOL    HW263106   0.040   4.770   5.919
17160SOL     OW63107   2.587   2.461   8.650
17160SOL    HW163108   2.549   2.549   8.654
17160SOL    HW263109   2.597   2.444   8.556
17161SOL     OW63110   3.773   2.050  22.441
17161SOL    HW163111   3.741   2.088  22.359
17161SOL    HW263112   3.821   1.972  22.414
17162SOL     OW63113   0.149   3.440  27.241
17162SOL    HW163114   0.169   3.376  27.173
17162SOL    HW263115   0.059   3.419  27.268
17163SOL     OW63116   2.883   1.767  25.369
17163SOL    HW163117   2.807   1.716  25.340
17163SOL    HW263118   2.935   1.780  25.290
17164SOL     OW63119   1.041   4.054  27.902
17164SOL    HW163120   0.950   4.024  27.899
17164SOL    HW263121   1.042   4.122  27.969
17165SOL     OW63122   1.589   2.625  26.900
17165SOL    HW163123   1.624   2.690  26.961
17165SOL    HW263124   1.555   2.555  26.956
17166SOL     OW63125   3.347   1.033   3.048
17166SOL    HW163126   3.287   1.012   3.120
17166SOL    HW263127   3.342   1.128   3.041
17167SOL     OW63128   1.523   0.159  24.804
17167SOL    HW163129   1.595   0.222  24.794
17167SOL    HW263130   1.563   0.074  24.787
17168SOL     OW63131   0.649   2.856   7.806
17168SOL    HW163132   0.628   2.763   7.819
17168SOL    HW263133   0.637   2.871   7.712
17169SOL     OW63134   0.997   1.976   5.367
17169SOL    HW163135   1.054   2.044   5.331
17169SOL    HW263136   0.927   1.968   5.302
17170SOL     OW63137   0.426   1.976   9.005
17170SOL    HW163138   0.414   2.071   9.004
17170SOL    HW263139   0.337   1.941   9.002
17171SOL     OW63140   0.950   0.531  25.145
17171SOL    HW163141   0.922   0.447  25.108
17171SOL    HW263142   0.888   0.594  25.109
17172SOL     OW63143   3.844   1.648  19.287
17172SOL    HW163144   3.766   1.593  19.280
17172SOL    HW263145   3.847   1.697  19.205
17173SOL     OW63146   3.748   2.601  21.866
17173SOL    HW163147   3.746   2.552  21.784
17173SOL    HW263148   3.823   2.659  21.858
17174SOL     OW63149   2.949   0.762   9.160
17174SOL    HW163150   2.930   0.695   9.094
17174SOL    HW263151   3.026   0.729   9.206
17175SOL     OW63152   3.170   4.544   7.308
17175SOL    HW163153   3.164   4.474   7.373
17175SOL    HW263154   3.137   4.504   7.227
17176SOL     OW63155   1.895   0.030   4.639
17176SOL    HW163156   1.906   4.759   4.719
17176SOL    HW263157   1.902   0.121   4.668
17177SOL     OW63158   2.185   2.586  26.495
17177SOL    HW163159   2.116   2.651  26.481
17177SOL    HW263160   2.265   2.630  26.467
17178SOL     OW63161   1.447   4.692   3.069
17178SOL    HW163162   1.366   4.643   3.086
17178SOL    HW263163   1.427   4.746   2.992
17179SOL     OW63164   4.187   1.346   5.807
17179SOL    HW163165   4.195   1.283   5.735
17179SOL    HW263166   4.237   1.422   5.778
17180SOL     OW63167   3.332   4.455  12.571
17180SOL    HW163168   3.358   4.546  12.554
17180SOL    HW263169   3.399   4.403  12.527
17181SOL     OW63170   3.444   0.561   2.726
17181SOL    HW163171   3.396   0.480   2.743
17181SOL    HW263172   3.395   0.628   2.774
17182SOL     OW63173   2.845   0.548   3.818
17182SOL    HW163174   2.759   0.578   3.789
17182SOL    HW263175   2.843   0.453   3.804
17183SOL     OW63176   3.097   2.729   7.906
17183SOL    HW163177   3.159   2.671   7.951
17183SOL    HW263178   3.151   2.777   7.843
17184SOL     OW63179   4.180   3.509   2.935
17184SOL    HW163180   4.102   3.522   2.989
17184SOL    HW263181   4.188   3.414   2.927
17185SOL     OW63182   1.231   1.303  25.308
17185SOL    HW163183   1.245   1.220  25.263
17185SOL    HW263184   1.195   1.361  25.241
17186SOL     OW63185   1.059   1.947  25.337
17186SOL    HW163186   1.086   1.957  25.428
17186SOL    HW263187   1.088   1.859  25.313
17187SOL     OW63188   2.581   2.188  11.874
17187SOL    HW163189   2.496   2.230  11.859
17187SOL    HW263190   2.606   2.216  11.962
17188SOL     OW63191   4.334   0.993   5.134
17188SOL    HW163192   4.308   0.920   5.078
17188SOL    HW263193   4.368   1.059   5.073
17189SOL     OW63194   3.089   2.089   6.167
17189SOL    HW163195   3.003   2.128   6.181
17189SOL    HW263196   3.146   2.135   6.229
17190SOL     OW63197   3.758   4.691  27.398
17190SOL    HW163198   3.678   4.638  27.397
17190SOL    HW263199   3.771   4.712  27.490
17191SOL     OW63200   0.762   3.894   9.536
17191SOL    HW163201   0.821   3.907   9.462
17191SOL    HW263202   0.807   3.935   9.610
17192SOL     OW63203   4.448   1.559   9.115
17192SOL    HW163204   4.538   1.547   9.145
17192SOL    HW263205   4.403   1.601   9.188
17193SOL     OW63206   3.850   4.544   6.729
17193SOL    HW163207   3.786   4.474   6.721
17193SOL    HW263208   3.869   4.570   6.639
17194SOL     OW63209   0.679   4.553   0.192
17194SOL    HW163210   0.597   4.523   0.152
17194SOL    HW263211   0.678   4.648   0.181
17195SOL     OW63212   0.298   1.462   6.794
17195SOL    HW163213   0.323   1.552   6.816
17195SOL    HW263214   0.377   1.410   6.809
17196SOL     OW63215   4.283   1.159   9.551
17196SOL    HW163216   4.201   1.188   9.590
17196SOL    HW263217   4.351   1.190   9.611
17197SOL     OW63218   1.657   4.353   6.086
17197SOL    HW163219   1.582   4.412   6.095
17197SOL    HW263220   1.726   4.407   6.048
17198SOL     OW63221   0.178   3.562  26.899
17198SOL    HW163222   0.179   3.475  26.940
17198SOL    HW263223   0.269   3.592  26.903
17199SOL     OW63224   2.883   4.514  27.129
17199SOL    HW163225   2.899   4.423  27.155
17199SOL    HW263226   2.968   4.546  27.099
17200SOL     OW63227   4.235   0.731  23.230
17200SOL    HW163228   4.331   0.737  23.229
17200SOL    HW263229   4.211   0.742  23.322
17201SOL     OW63230   3.770   3.225   0.089
17201SOL    HW163231   3.696   3.193   0.037
17201SOL    HW263232   3.844   3.222   0.029
17202SOL     OW63233   1.825   1.707  25.722
17202SOL    HW163234   1.907   1.679  25.681
17202SOL    HW263235   1.831   1.673  25.811
17203SOL     OW63236   0.778   1.587  11.104
17203SOL    HW163237   0.809   1.632  11.026
17203SOL    HW263238   0.775   1.655  11.171
17204SOL     OW63239   1.196   3.798   9.144
17204SOL    HW163240   1.134   3.749   9.199
17204SOL    HW263241   1.148   3.876   9.118
17205SOL     OW63242   3.298   0.207   3.370
17205SOL    HW163243   3.326   0.268   3.438
17205SOL    HW263244   3.335   0.242   3.289
17206SOL     OW63245   2.715   0.510   7.460
17206SOL    HW163246   2.810   0.504   7.451
17206SOL    HW263247   2.698   0.601   7.485
17207SOL     OW63248   0.259   3.043  20.151
17207SOL    HW163249   0.241   2.972  20.213
17207SOL    HW263250   0.311   3.002  20.082
17208SOL     OW63251   1.700   3.588   2.292
17208SOL    HW163252   1.792   3.595   2.265
17208SOL    HW263253   1.655   3.658   2.244
17209SOL     OW63254   2.168   0.648   5.076
17209SOL    HW163255   2.133   0.614   4.994
17209SOL    HW263256   2.254   0.606   5.085
17210SOL     OW63257   4.095   1.244  11.400
17210SOL    HW163258   4.154   1.227  11.473
17210SOL    HW263259   4.020   1.288  11.439
17211SOL     OW63260   3.855   0.685   0.614
17211SOL    HW163261   3.794   0.641   0.555
17211SOL    HW263262   3.883   0.763   0.565
17212SOL     OW63263   2.049   4.007  24.514
17212SOL    HW163264   2.054   4.008  24.418
17212SOL    HW263265   2.073   4.096  24.540
17213SOL     OW63266   2.958   1.452   4.558
17213SOL    HW163267   2.877   1.500   4.577
17213SOL    HW263268   2.935   1.392   4.487
17214SOL     OW63269   1.946   1.278  27.141
17214SOL    HW163270   1.957   1.366  27.106
17214SOL    HW263271   1.968   1.220  27.068
17215SOL     OW63272   0.678   4.553  10.541
17215SOL    HW163273   0.708   4.644  10.541
17215SOL    HW263274   0.759   4.502  10.548
17216SOL     OW63275   3.431   1.621   6.899
17216SOL    HW163276   3.400   1.689   6.959
17216SOL    HW263277   3.418   1.658   6.812
17217SOL     OW63278   0.887   4.175  11.655
17217SOL    HW163279   0.964   4.223  11.684
17217SOL    HW263280   0.823   4.187  11.725
17218SOL     OW63281   2.552   0.445   6.415
17218SOL    HW163282   2.501   0.423   6.493
17218SOL    HW263283   2.486   0.466   6.349
17219SOL     OW63284   4.347   1.830  23.119
17219SOL    HW163285   4.352   1.892  23.047
17219SOL    HW263286   4.263   1.786  23.107
17220SOL     OW63287   3.727   0.451  27.306
17220SOL    HW163288   3.677   0.521  27.348
17220SOL    HW263289   3.774   0.494  27.235
17221SOL     OW63290   1.391   0.411   7.980
17221SOL    HW163291   1.349   0.496   7.970
17221SOL    HW263292   1.458   0.409   7.911
17222SOL     OW63293   1.319   2.109  12.985
17222SOL    HW163294   1.250   2.043  12.984
17222SOL    HW263295   1.374   2.086  13.060
17223SOL     OW63296   0.082   2.464  13.565
17223SOL    HW163297   0.106   2.398  13.500
17223SOL    HW263298   0.085   2.417  13.649
17224SOL     OW63299   0.782   2.878  12.391
17224SOL    HW163300   0.791   2.830  12.473
17224SOL    HW263301   0.786   2.811  12.323
17225SOL     OW63302   0.777   2.079  13.434
17225SOL    HW163303   0.870   2.093  13.452
17225SOL    HW263304   0.770   2.087  13.339
17226SOL     OW63305   2.644   2.118   9.473
17226SOL    HW163306   2.604   2.160   9.549
17226SOL    HW263307   2.643   2.025   9.494
17227SOL     OW63308   1.477   2.474  13.061
17227SOL    HW163309   1.390   2.447  13.032
17227SOL    HW263310   1.529   2.394  13.056
17228SOL     OW63311   1.668   2.864  12.807
17228SOL    HW163312   1.619   2.851  12.888
17228SOL    HW263313   1.675   2.776  12.769
17229SOL     OW63314   4.219   2.869  12.789
17229SOL    HW163315   4.173   2.854  12.871
17229SOL    HW263316   4.291   2.928  12.812
17230SOL     OW63317   0.505   2.347  11.956
17230SOL    HW163318   0.467   2.307  12.034
17230SOL    HW263319   0.531   2.435  11.984
17231SOL     OW63320   1.334   1.417  18.786
17231SOL    HW163321   1.342   1.372  18.702
17231SOL    HW263322   1.284   1.496  18.766
17232SOL     OW63323   1.007   1.252   0.563
17232SOL    HW163324   0.935   1.285   0.617
17232SOL    HW263325   1.057   1.330   0.539
17233SOL     OW63326   0.782   2.846  13.817
17233SOL    HW163327   0.772   2.929  13.865
17233SOL    HW263328   0.742   2.781  13.874
17234SOL     OW63329   2.454   3.604  12.923
17234SOL    HW163330   2.498   3.545  12.984
17234SOL    HW263331   2.523   3.663  12.892
17235SOL     OW63332   1.199   2.262  12.340
17235SOL    HW163333   1.287   2.231  12.319
17235SOL    HW263334   1.176   2.215  12.420
17236SOL     OW63335   1.357   1.482  13.637
17236SOL    HW163336   1.275   1.511  13.596
17236SOL    HW263337   1.425   1.509  13.576
17237SOL     OW63338   0.753   2.750  13.003
17237SOL    HW163339   0.837   2.763  12.959
17237SOL    HW263340   0.730   2.837  13.037
17238SOL     OW63341   1.441   2.713  11.788
17238SOL    HW163342   1.446   2.638  11.848
17238SOL    HW263343   1.528   2.718  11.749
17239SOL     OW63344   0.942   1.389  12.372
17239SOL    HW163345   0.922   1.393  12.465
17239SOL    HW263346   1.037   1.381  12.369
17240SOL     OW63347   1.114   2.133  12.582
17240SOL    HW163348   1.138   2.043  12.560
17240SOL    HW263349   1.049   2.124  12.652
17241SOL     OW63350   2.672   3.088  14.489
17241SOL    HW163351   2.685   3.015  14.429
17241SOL    HW263352   2.584   3.119  14.470
17242SOL     OW63353   2.773   2.529  25.084
17242SOL    HW163354   2.685   2.518  25.121
17242SOL    HW263355   2.761   2.592  25.013
17243SOL     OW63356   1.439   2.510  12.687
17243SOL    HW163357   1.498   2.449  12.731
17243SOL    HW263358   1.357   2.462  12.678
17244SOL     OW63359   0.983   3.573  11.375
17244SOL    HW163360   1.025   3.514  11.438
17244SOL    HW263361   0.891   3.574  11.400
17245SOL     OW63362   1.089   1.794  13.302
17245SOL    HW163363   1.176   1.833  13.296
17245SOL    HW263364   1.097   1.727  13.370
17246SOL     OW63365   1.627   2.299  12.826
17246SOL    HW163366   1.555   2.247  12.789
17246SOL    HW263367   1.624   2.282  12.920
17247SOL     OW63368   3.819   2.836  11.999
17247SOL    HW163369   3.856   2.917  12.034
17247SOL    HW263370   3.860   2.767  12.052
17248SOL     OW63371   4.522   3.564   2.654
17248SOL    HW163372   4.609   3.596   2.630
17248SOL    HW263373   4.466   3.641   2.648
17249SOL     OW63374   1.967   2.150  13.779
17249SOL    HW163375   1.945   2.062  13.810
17249SOL    HW263376   2.039   2.178  13.835
17250SOL     OW63377   0.253   2.681  13.607
17250SOL    HW163378   0.336   2.632  13.605
17250SOL    HW263379   0.185   2.614  13.598
17251SOL     OW63380   1.813   1.500  12.970
17251SOL    HW163381   1.885   1.452  13.012
17251SOL    HW263382   1.857   1.566  12.916
17252SOL     OW63383   0.848   1.800  13.854
17252SOL    HW163384   0.787   1.749  13.802
17252SOL    HW263385   0.931   1.753  13.846
17253SOL     OW63386   1.154   3.815  13.964
17253SOL    HW163387   1.182   3.882  13.902
17253SOL    HW263388   1.059   3.823  13.966
17254SOL     OW63389   0.662   2.705  13.594
17254SOL    HW163390   0.615   2.629  13.628
17254SOL    HW263391   0.674   2.762  13.670
17255SOL     OW63392   0.932   2.503  12.749
17255SOL    HW163393   1.009   2.446  12.746
17255SOL    HW263394   0.957   2.574  12.808
17256SOL     OW63395   0.709   1.809  12.695
17256SOL    HW163396   0.779   1.786  12.756
17256SOL    HW263397   0.704   1.735  12.634
17257SOL     OW63398   0.826   2.167  13.732
17257SOL    HW163399   0.846   2.138  13.821
17257SOL    HW263400   0.907   2.152  13.683
17258SOL     OW63401   0.867   2.245  15.057
17258SOL    HW163402   0.877   2.306  14.984
17258SOL    HW263403   0.843   2.300  15.131
17259SOL     OW63404   0.066   2.427  12.741
17259SOL    HW163405   0.067   2.490  12.813
17259SOL    HW263406   0.145   2.374  12.754
17260SOL     OW63407   2.783   1.808  14.926
17260SOL    HW163408   2.865   1.760  14.915
17260SOL    HW263409   2.762   1.800  15.019
17261SOL     OW63410   2.225   2.046  13.693
17261SOL    HW163411   2.133   2.057  13.669
17261SOL    HW263412   2.266   2.012  13.614
17262SOL     OW63413   0.930   3.117  13.567
17262SOL    HW163414   0.936   3.205  13.605
17262SOL    HW263415   0.901   3.132  13.477
17263SOL     OW63416   4.750   0.747  12.438
17263SOL    HW163417   0.001   0.657  12.438
17263SOL    HW263418   4.682   0.748  12.506
17264SOL     OW63419   0.114   2.155  14.519
17264SOL    HW163420   0.204   2.182  14.500
17264SOL    HW263421   0.060   2.206  14.459
17265SOL     OW63422   1.636   1.586  14.410
17265SOL    HW163423   1.730   1.596  14.423
17265SOL    HW263424   1.597   1.661  14.455
17266SOL     OW63425   0.573   2.098  13.102
17266SOL    HW163426   0.568   2.022  13.044
17266SOL    HW263427   0.656   2.140  13.080
17267SOL     OW63428   1.624   2.238  13.086
17267SOL    HW163429   1.569   2.173  13.130
17267SOL    HW263430   1.680   2.273  13.155
17268SOL     OW63431   2.269   1.344  14.213
17268SOL    HW163432   2.355   1.343  14.171
17268SOL    HW263433   2.210   1.380  14.147
17269SOL     OW63434   0.638   1.454  15.147
17269SOL    HW163435   0.653   1.544  15.176
17269SOL    HW263436   0.558   1.427  15.193
17270SOL     OW63437   1.970   3.231  12.840
17270SOL    HW163438   2.048   3.209  12.891
17270SOL    HW263439   1.904   3.254  12.906
17271SOL     OW63440   0.992   2.475  14.293
17271SOL    HW163441   0.998   2.397  14.237
17271SOL    HW263442   1.005   2.549  14.233
17272SOL     OW63443   0.950   2.690  14.120
17272SOL    HW163444   0.925   2.782  14.113
17272SOL    HW263445   0.867   2.643  14.126
17273SOL     OW63446   4.590   1.968  15.982
17273SOL    HW163447   4.642   2.046  15.998
17273SOL    HW263448   4.528   1.994  15.913
17274SOL     OW63449   2.889   2.450  14.549
17274SOL    HW163450   2.941   2.370  14.541
17274SOL    HW263451   2.870   2.457  14.642
17275SOL     OW63452   0.938   3.036  15.069
17275SOL    HW163453   1.000   2.967  15.091
17275SOL    HW263454   0.874   2.993  15.011
17276SOL     OW63455   2.509   2.029  14.402
17276SOL    HW163456   2.488   1.966  14.470
17276SOL    HW263457   2.522   1.976  14.323
17277SOL     OW63458   0.352   2.160  12.499
17277SOL    HW163459   0.290   2.193  12.564
17277SOL    HW263460   0.431   2.140  12.550
17278SOL     OW63461   2.373   1.721  13.306
17278SOL    HW163462   2.371   1.776  13.228
17278SOL    HW263463   2.409   1.638  13.275
17279SOL     OW63464   1.937   3.221  13.916
17279SOL    HW163465   1.999   3.176  13.859
17279SOL    HW263466   1.881   3.271  13.856
17280SOL     OW63467   2.800   2.315  15.427
17280SOL    HW163468   2.893   2.329  15.447
17280SOL    HW263469   2.771   2.251  15.492
17281SOL     OW63470   0.911   3.756  14.414
17281SOL    HW163471   0.919   3.661  14.421
17281SOL    HW263472   0.817   3.771  14.402
17282SOL     OW63473   0.921   4.195  15.974
17282SOL    HW163474   0.924   4.283  16.012
17282SOL    HW263475   0.890   4.209  15.884
17283SOL     OW63476   0.495   2.549  16.508
17283SOL    HW163477   0.556   2.622  16.501
17283SOL    HW263478   0.550   2.474  16.530
17284SOL     OW63479   3.504   0.293  17.470
17284SOL    HW163480   3.540   0.215  17.427
17284SOL    HW263481   3.409   0.280  17.469
17285SOL     OW63482   2.101   2.644  16.298
17285SOL    HW163483   2.128   2.698  16.372
17285SOL    HW263484   2.009   2.623  16.316
17286SOL     OW63485   0.975   4.071  27.614
17286SOL    HW163486   1.051   4.054  27.669
17286SOL    HW263487   1.012   4.099  27.530
17287SOL     OW63488   0.115   4.372  15.036
17287SOL    HW163489   0.121   4.328  15.121
17287SOL    HW263490   0.097   4.302  14.974
17288SOL     OW63491   2.092   2.240  16.091
17288SOL    HW163492   2.020   2.301  16.074
17288SOL    HW263493   2.050   2.166  16.135
17289SOL     OW63494   0.466   0.798  15.553
17289SOL    HW163495   0.416   0.730  15.598
17289SOL    HW263496   0.409   0.825  15.481
17290SOL     OW63497   4.173   4.142  17.253
17290SOL    HW163498   4.213   4.058  17.232
17290SOL    HW263499   4.163   4.186  17.168
17291SOL     OW63500   1.995   1.395  15.640
17291SOL    HW163501   1.993   1.340  15.562
17291SOL    HW263502   2.074   1.367  15.687
17292SOL     OW63503   2.781   2.803  26.368
17292SOL    HW163504   2.717   2.733  26.383
17292SOL    HW263505   2.738   2.882  26.401
17293SOL     OW63506   0.216   1.690  14.866
17293SOL    HW163507   0.197   1.601  14.895
17293SOL    HW263508   0.152   1.707  14.797
17294SOL     OW63509   1.283   2.112  16.000
17294SOL    HW163510   1.212   2.174  16.015
17294SOL    HW263511   1.284   2.098  15.905
17295SOL     OW63512   0.898   2.711  14.950
17295SOL    HW163513   0.817   2.746  14.986
17295SOL    HW263514   0.966   2.741  15.010
17296SOL     OW63515   4.699   1.656  13.676
17296SOL    HW163516   4.624   1.627  13.728
17296SOL    HW263517   4.718   1.744  13.709
17297SOL     OW63518   1.297   2.172  14.950
17297SOL    HW163519   1.237   2.221  15.006
17297SOL    HW263520   1.348   2.239  14.905
17298SOL     OW63521   0.754   1.976  14.232
17298SOL    HW163522   0.688   1.939  14.173
17298SOL    HW263523   0.715   1.967  14.319
17299SOL     OW63524   0.638   1.620  14.108
17299SOL    HW163525   0.627   1.705  14.065
17299SOL    HW263526   0.552   1.579  14.103
17300SOL     OW63527   1.890   1.948  15.262
17300SOL    HW163528   1.918   1.856  15.260
17300SOL    HW263529   1.971   1.997  15.274
17301SOL     OW63530   0.392   0.212  15.064
17301SOL    HW163531   0.310   0.184  15.023
17301SOL    HW263532   0.460   0.161  15.020
17302SOL     OW63533   4.222   1.525  23.594
17302SOL    HW163534   4.183   1.609  23.618
17302SOL    HW263535   4.295   1.548  23.536
17303SOL     OW63536   1.004   1.007  16.518
17303SOL    HW163537   0.908   1.009  16.522
17303SOL    HW263538   1.025   0.916  16.497
17304SOL     OW63539   0.254   0.455  14.901
17304SOL    HW163540   0.167   0.415  14.895
17304SOL    HW263541   0.315   0.382  14.888
17305SOL     OW63542   4.248   4.391  17.436
17305SOL    HW163543   4.272   4.308  17.394
17305SOL    HW263544   4.194   4.365  17.511
17306SOL     OW63545   2.528   4.397  16.900
17306SOL    HW163546   2.495   4.321  16.949
17306SOL    HW263547   2.623   4.392  16.909
17307SOL     OW63548   2.723   4.530  17.202
17307SOL    HW163549   2.726   4.527  17.298
17307SOL    HW263550   2.654   4.594  17.182
17308SOL     OW63551   2.273   1.453  16.591
17308SOL    HW163552   2.346   1.494  16.545
17308SOL    HW263553   2.211   1.524  16.607
17309SOL     OW63554   2.506   1.979   3.276
17309SOL    HW163555   2.491   2.059   3.327
17309SOL    HW263556   2.485   1.908   3.336
17310SOL     OW63557   1.503   2.024  16.923
17310SOL    HW163558   1.501   1.943  16.873
17310SOL    HW263559   1.414   2.034  16.956
17311SOL     OW63560   1.727   2.504  17.154
17311SOL    HW163561   1.767   2.538  17.234
17311SOL    HW263562   1.716   2.581  17.098
17312SOL     OW63563   1.642   1.123  18.151
17312SOL    HW163564   1.671   1.168  18.072
17312SOL    HW263565   1.723   1.094  18.193
17313SOL     OW63566   4.398   2.775  24.961
17313SOL    HW163567   4.326   2.791  24.900
17313SOL    HW263568   4.419   2.682  24.949
17314SOL     OW63569   0.972   2.281  18.165
17314SOL    HW163570   1.024   2.207  18.133
17314SOL    HW263571   0.889   2.274  18.118
17315SOL     OW63572   1.897   0.390  15.408
17315SOL    HW163573   1.804   0.399  15.389
17315SOL    HW263574   1.931   0.333  15.339
17316SOL     OW63575   3.216   2.396  18.181
17316SOL    HW163576   3.210   2.486  18.148
17316SOL    HW263577   3.186   2.342  18.108
17317SOL     OW63578   1.528   2.365  17.006
17317SOL    HW163579   1.581   2.329  16.934
17317SOL    HW263580   1.591   2.408  17.063
17318SOL     OW63581   0.817   1.904  17.222
17318SOL    HW163582   0.792   1.995  17.237
17318SOL    HW263583   0.894   1.909  17.165
17319SOL     OW63584   1.786   2.244  17.278
17319SOL    HW163585   1.790   2.193  17.197
17319SOL    HW263586   1.756   2.331  17.250
17320SOL     OW63587   1.353   2.352  18.311
17320SOL    HW163588   1.360   2.403  18.230
17320SOL    HW263589   1.421   2.285  18.303
17321SOL     OW63590   0.210   1.101  17.473
17321SOL    HW163591   0.304   1.101  17.455
17321SOL    HW263592   0.170   1.129  17.391
17322SOL     OW63593   1.423   2.426  21.421
17322SOL    HW163594   1.443   2.467  21.337
17322SOL    HW263595   1.328   2.430  21.427
17323SOL     OW63596   2.511   4.737  17.213
17323SOL    HW163597   2.472   4.694  17.137
17323SOL    HW263598   2.441   4.739  17.278
17324SOL     OW63599   4.038   2.960  15.886
17324SOL    HW163600   4.070   2.873  15.910
17324SOL    HW263601   3.983   2.945  15.809
17325SOL     OW63602   1.766   0.570   5.588
17325SOL    HW163603   1.782   0.552   5.681
17325SOL    HW263604   1.700   0.506   5.563
17326SOL     OW63605   0.874   3.966  26.693
17326SOL    HW163606   0.905   3.926  26.612
17326SOL    HW263607   0.895   4.059  26.684
17327SOL     OW63608   0.295   2.778  16.863
17327SOL    HW163609   0.303   2.844  16.932
17327SOL    HW263610   0.385   2.763  16.833
17328SOL     OW63611   2.588   0.611  16.554
17328SOL    HW163612   2.664   0.616  16.496
17328SOL    HW263613   2.598   0.527  16.600
17329SOL     OW63614   2.548   1.895  20.718
17329SOL    HW163615   2.520   1.831  20.783
17329SOL    HW263616   2.642   1.880  20.707
17330SOL     OW63617   3.746   2.719  28.245
17330SOL    HW163618   3.802   2.685  28.315
17330SOL    HW263619   3.807   2.759  28.183
17331SOL     OW63620   3.078   1.149  25.495
17331SOL    HW163621   3.151   1.210  25.481
17331SOL    HW263622   3.020   1.164  25.421
17332SOL     OW63623   2.052   1.294  15.392
17332SOL    HW163624   2.124   1.343  15.352
17332SOL    HW263625   2.089   1.207  15.409
17333SOL     OW63626   3.746   3.137   0.543
17333SOL    HW163627   3.689   3.166   0.472
17333SOL    HW263628   3.726   3.196   0.616
17334SOL     OW63629   0.734   1.017  16.500
17334SOL    HW163630   0.689   0.980  16.424
17334SOL    HW263631   0.692   1.102  16.514
17335SOL     OW63632   2.744   1.459   2.384
17335SOL    HW163633   2.732   1.543   2.429
17335SOL    HW263634   2.795   1.480   2.306
17336SOL     OW63635   0.878   4.650   3.086
17336SOL    HW163636   0.894   4.678   3.176
17336SOL    HW263637   0.956   4.678   3.038
17337SOL     OW63638   1.647   0.414   4.568
17337SOL    HW163639   1.589   0.340   4.587
17337SOL    HW263640   1.668   0.451   4.654
17338SOL     OW63641   2.180   1.574   1.624
17338SOL    HW163642   2.178   1.664   1.655
17338SOL    HW263643   2.271   1.561   1.596
17339SOL     OW63644   3.785   1.408   0.768
17339SOL    HW163645   3.735   1.346   0.820
17339SOL    HW263646   3.870   1.414   0.813
17340SOL     OW63647   0.220   3.305   6.903
17340SOL    HW163648   0.204   3.302   6.809
17340SOL    HW263649   0.303   3.352   6.912
17341SOL     OW63650   4.391   0.556  10.117
17341SOL    HW163651   4.321   0.544  10.181
17341SOL    HW263652   4.464   0.592  10.168
17342SOL     OW63653   0.446   0.280   4.856
17342SOL    HW163654   0.413   0.224   4.786
17342SOL    HW263655   0.537   0.252   4.868
17343SOL     OW63656   0.864   2.163   2.889
17343SOL    HW163657   0.769   2.165   2.903
17343SOL    HW263658   0.874   2.160   2.794
17344SOL     OW63659   1.538   4.475  27.691
17344SOL    HW163660   1.592   4.409  27.735
17344SOL    HW263661   1.585   4.557  27.704
17345SOL     OW63662   4.440   3.799  22.625
17345SOL    HW163663   4.436   3.706  22.646
17345SOL    HW263664   4.526   3.827  22.656
17346SOL     OW63665   1.650   1.615   7.325
17346SOL    HW163666   1.641   1.604   7.230
17346SOL    HW263667   1.639   1.709   7.339
17347SOL     OW63668   0.218   0.659   1.288
17347SOL    HW163669   0.147   0.723   1.289
17347SOL    HW263670   0.253   0.663   1.199
17348SOL     OW63671   1.045   1.020  17.259
17348SOL    HW163672   0.992   1.089  17.300
17348SOL    HW263673   1.037   1.037  17.165
17349SOL     OW63674   2.494   3.870   0.531
17349SOL    HW163675   2.540   3.896   0.451
17349SOL    HW263676   2.404   3.853   0.502
17350SOL     OW63677   1.779   2.246  21.083
17350SOL    HW163678   1.695   2.202  21.073
17350SOL    HW263679   1.822   2.199  21.154
17351SOL     OW63680   2.071   3.797   2.307
17351SOL    HW163681   2.148   3.808   2.251
17351SOL    HW263682   2.032   3.715   2.277
17352SOL     OW63683   3.675   1.926   6.524
17352SOL    HW163684   3.582   1.946   6.521
17352SOL    HW263685   3.705   1.961   6.608
17353SOL     OW63686   2.882   4.656  20.925
17353SOL    HW163687   2.857   4.575  20.880
17353SOL    HW263688   2.905   4.716  20.854
17354SOL     OW63689   2.523   2.170  10.258
17354SOL    HW163690   2.459   2.236  10.285
17354SOL    HW263691   2.474   2.088  10.257
17355SOL     OW63692   0.797   3.865  23.811
17355SOL    HW163693   0.711   3.830  23.789
17355SOL    HW263694   0.826   3.813  23.886
17356SOL     OW63695   1.422   0.742  17.822
17356SOL    HW163696   1.348   0.743  17.883
17356SOL    HW263697   1.382   0.737  17.735
17357SOL     OW63698   0.708   2.639   0.083
17357SOL    HW163699   0.757   2.561   0.057
17357SOL    HW263700   0.635   2.643   0.022
17358SOL     OW63701   1.648   1.659   1.284
17358SOL    HW163702   1.582   1.707   1.235
17358SOL    HW263703   1.625   1.674   1.376
17359SOL     OW63704   3.756   1.382  19.461
17359SOL    HW163705   3.788   1.316  19.400
17359SOL    HW263706   3.709   1.445  19.406
17360SOL     OW63707   3.415   2.577  21.025
17360SOL    HW163708   3.420   2.653  21.083
17360SOL    HW263709   3.505   2.545  21.019
17361SOL     OW63710   0.367   3.490   7.165
17361SOL    HW163711   0.411   3.555   7.220
17361SOL    HW263712   0.403   3.505   7.077
17362SOL     OW63713   2.728   2.566  27.712
17362SOL    HW163714   2.736   2.550  27.618
17362SOL    HW263715   2.797   2.514  27.752
17363SOL     OW63716   4.135   3.508   5.854
17363SOL    HW163717   4.079   3.509   5.932
17363SOL    HW263718   4.223   3.521   5.888
17364SOL     OW63719   0.423   4.210  21.416
17364SOL    HW163720   0.434   4.194  21.322
17364SOL    HW263721   0.352   4.151  21.442
17365SOL     OW63722   4.167   3.837  23.145
17365SOL    HW163723   4.159   3.924  23.184
17365SOL    HW263724   4.077   3.809  23.129
17366SOL     OW63725   1.975   0.721   0.978
17366SOL    HW163726   1.907   0.721   0.911
17366SOL    HW263727   2.048   0.674   0.938
17367SOL     OW63728   3.552   1.357   7.892
17367SOL    HW163729   3.576   1.438   7.936
17367SOL    HW263730   3.569   1.374   7.799
17368SOL     OW63731   3.498   0.112  25.646
17368SOL    HW163732   3.581   0.068  25.627
17368SOL    HW263733   3.447   0.103  25.565
17369SOL     OW63734   0.355   2.696  27.666
17369SOL    HW163735   0.411   2.771  27.684
17369SOL    HW263736   0.349   2.650  27.750
17370SOL     OW63737   2.802   2.275  17.236
17370SOL    HW163738   2.733   2.278  17.169
17370SOL    HW263739   2.854   2.198  17.213
17371SOL     OW63740   1.870   3.130  20.364
17371SOL    HW163741   1.828   3.049  20.334
17371SOL    HW263742   1.941   3.101  20.421
17372SOL     OW63743   3.107   2.211   7.577
17372SOL    HW163744   3.200   2.217   7.555
17372SOL    HW263745   3.106   2.184   7.669
17373SOL     OW63746   4.228   0.688  16.808
17373SOL    HW163747   4.251   0.703  16.716
17373SOL    HW263748   4.250   0.596  16.823
17374SOL     OW63749   3.108   2.671  27.767
17374SOL    HW163750   3.103   2.733  27.840
17374SOL    HW263751   3.047   2.601  27.791
17375SOL     OW63752   1.602   2.996  21.635
17375SOL    HW163753   1.549   2.941  21.577
17375SOL    HW263754   1.561   3.082  21.630
17376SOL     OW63755   3.179   3.202   9.398
17376SOL    HW163756   3.182   3.107   9.391
17376SOL    HW263757   3.249   3.232   9.339
17377SOL     OW63758   2.630   2.732   9.982
17377SOL    HW163759   2.625   2.817   9.939
17377SOL    HW263760   2.670   2.750  10.067
17378SOL     OW63761   3.057   1.224  23.953
17378SOL    HW163762   3.087   1.144  23.910
17378SOL    HW263763   2.974   1.200  23.994
17379SOL     OW63764   4.564   2.595   7.931
17379SOL    HW163765   4.498   2.635   7.874
17379SOL    HW263766   4.645   2.601   7.880
17380SOL     OW63767   2.339   3.792   7.148
17380SOL    HW163768   2.311   3.721   7.205
17380SOL    HW263769   2.417   3.828   7.190
17381SOL     OW63770   3.332   3.386  27.419
17381SOL    HW163771   3.329   3.352  27.508
17381SOL    HW263772   3.399   3.333  27.375
17382SOL     OW63773   2.539   3.887  17.383
17382SOL    HW163774   2.577   3.917  17.300
17382SOL    HW263775   2.497   3.965  17.420
17383SOL     OW63776   4.083   1.291  21.939
17383SOL    HW163777   4.138   1.213  21.929
17383SOL    HW263778   4.134   1.349  21.996
17384SOL     OW63779   4.346   3.743   1.063
17384SOL    HW163780   4.402   3.695   1.002
17384SOL    HW263781   4.295   3.802   1.008
17385SOL     OW63782   2.448   2.664   6.511
17385SOL    HW163783   2.488   2.612   6.580
17385SOL    HW263784   2.478   2.623   6.430
17386SOL     OW63785   3.817   3.961  21.741
17386SOL    HW163786   3.831   3.932  21.831
17386SOL    HW263787   3.888   3.920  21.691
17387SOL     OW63788   1.453   3.438   9.385
17387SOL    HW163789   1.456   3.533   9.370
17387SOL    HW263790   1.521   3.403   9.327
17388SOL     OW63791   2.829   1.496   7.246
17388SOL    HW163792   2.895   1.478   7.179
17388SOL    HW263793   2.878   1.531   7.320
17389SOL     OW63794   1.059   3.877   5.526
17389SOL    HW163795   1.008   3.873   5.607
17389SOL    HW263796   1.014   3.818   5.466
17390SOL     OW63797   4.226   4.307  27.574
17390SOL    HW163798   4.187   4.324  27.488
17390SOL    HW263799   4.154   4.319  27.636
17391SOL     OW63800   1.766   2.737  19.911
17391SOL    HW163801   1.764   2.655  19.960
17391SOL    HW263802   1.693   2.788  19.946
17392SOL     OW63803   0.321   0.873   8.430
17392SOL    HW163804   0.364   0.945   8.476
17392SOL    HW263805   0.228   0.885   8.449
17393SOL     OW63806   3.640   0.558   7.123
17393SOL    HW163807   3.723   0.513   7.107
17393SOL    HW263808   3.623   0.607   7.042
17394SOL     OW63809   2.252   0.488  19.894
17394SOL    HW163810   2.207   0.456  19.816
17394SOL    HW263811   2.265   0.410  19.948
17395SOL     OW63812   0.269   0.963  22.260
17395SOL    HW163813   0.232   1.048  22.283
17395SOL    HW263814   0.310   0.932  22.341
17396SOL     OW63815   2.056   1.296   9.154
17396SOL    HW163816   2.065   1.333   9.066
17396SOL    HW263817   2.030   1.370   9.209
17397SOL     OW63818   0.897   3.106   8.634
17397SOL    HW163819   0.863   3.018   8.619
17397SOL    HW263820   0.819   3.160   8.647
17398SOL     OW63821   3.175   0.051   5.196
17398SOL    HW163822   3.227   4.751   5.198
17398SOL    HW263823   3.128   0.047   5.113
17399SOL     OW63824   4.111   0.219  23.508
17399SOL    HW163825   4.053   0.249  23.578
17399SOL    HW263826   4.065   0.145  23.469
17400SOL     OW63827   3.770   0.874  19.026
17400SOL    HW163828   3.700   0.891  18.963
17400SOL    HW263829   3.851   0.881  18.975
17401SOL     OW63830   4.092   4.149   1.712
17401SOL    HW163831   4.079   4.095   1.634
17401SOL    HW263832   4.070   4.091   1.785
17402SOL     OW63833   0.267   2.631   3.972
17402SOL    HW163834   0.255   2.604   4.063
17402SOL    HW263835   0.317   2.713   3.977
17403SOL     OW63836   2.074   1.160  22.325
17403SOL    HW163837   2.078   1.155  22.229
17403SOL    HW263838   2.162   1.188  22.351
17404SOL     OW63839   0.252   0.680  23.760
17404SOL    HW163840   0.346   0.698  23.756
17404SOL    HW263841   0.231   0.678  23.853
17405SOL     OW63842   1.821   4.716  11.037
17405SOL    HW163843   1.858   4.646  11.091
17405SOL    HW263844   1.759   4.760  11.095
17406SOL     OW63845   1.558   2.872  21.911
17406SOL    HW163846   1.620   2.917  21.854
17406SOL    HW263847   1.488   2.936  21.926
17407SOL     OW63848   0.756   1.014   4.584
17407SOL    HW163849   0.754   1.103   4.549
17407SOL    HW263850   0.848   0.999   4.606
17408SOL     OW63851   1.742   1.559   5.524
17408SOL    HW163852   1.704   1.512   5.598
17408SOL    HW263853   1.729   1.501   5.449
17409SOL     OW63854   0.414   0.266  24.190
17409SOL    HW163855   0.441   0.333  24.253
17409SOL    HW263856   0.465   0.189  24.213
17410SOL     OW63857   0.031   4.283  25.195
17410SOL    HW163858   4.774   4.254  25.278
17410SOL    HW263859   0.054   4.375  25.210
17411SOL     OW63860   3.998   4.353  21.716
17411SOL    HW163861   4.015   4.447  21.710
17411SOL    HW263862   4.083   4.312  21.700
17412SOL     OW63863   4.132   4.111   2.820
17412SOL    HW163864   4.159   4.032   2.866
17412SOL    HW263865   4.154   4.094   2.728
17413SOL     OW63866   3.494   3.769  17.209
17413SOL    HW163867   3.492   3.768  17.305
17413SOL    HW263868   3.427   3.832  17.184
17414SOL     OW63869   3.854   1.071  19.549
17414SOL    HW163870   3.860   1.119  19.466
17414SOL    HW263871   3.831   1.138  19.614
17415SOL     OW63872   1.032   0.124  23.092
17415SOL    HW163873   1.038   0.160  23.181
17415SOL    HW263874   1.099   0.172  23.042
17416SOL     OW63875   4.317   3.716  22.963
17416SOL    HW163876   4.407   3.732  22.990
17416SOL    HW263877   4.264   3.762  23.028
17417SOL     OW63878   1.345   4.182  11.664
17417SOL    HW163879   1.412   4.168  11.597
17417SOL    HW263880   1.390   4.230  11.734
17418SOL     OW63881   0.404   4.532  24.161
17418SOL    HW163882   0.408   4.586  24.082
17418SOL    HW263883   0.382   4.593  24.231
17419SOL     OW63884   2.581   3.232  18.587
17419SOL    HW163885   2.578   3.242  18.682
17419SOL    HW263886   2.491   3.248  18.558
17420SOL     OW63887   2.733   4.144   2.980
17420SOL    HW163888   2.644   4.121   2.954
17420SOL    HW263889   2.789   4.089   2.925
17421SOL     OW63890   2.884   0.036  20.659
17421SOL    HW163891   2.872   4.758  20.584
17421SOL    HW263892   2.954   0.095  20.632
17422SOL     OW63893   0.018   4.704   9.934
17422SOL    HW163894   4.724   4.653   9.965
17422SOL    HW263895   0.017   0.003   9.987
17423SOL     OW63896   2.395   0.505   5.139
17423SOL    HW163897   2.422   0.535   5.226
17423SOL    HW263898   2.473   0.516   5.085
17424SOL     OW63899   3.121   1.584  26.733
17424SOL    HW163900   3.105   1.655  26.796
17424SOL    HW263901   3.134   1.629  26.649
17425SOL     OW63902   1.666   4.236  22.002
17425SOL    HW163903   1.747   4.280  22.026
17425SOL    HW263904   1.676   4.147  22.034
17426SOL     OW63905   0.790   0.841   6.205
17426SOL    HW163906   0.868   0.795   6.235
17426SOL    HW263907   0.718   0.781   6.224
17427SOL     OW63908   3.744   4.162   0.943
17427SOL    HW163909   3.671   4.110   0.910
17427SOL    HW263910   3.727   4.250   0.909
17428SOL     OW63911   2.458   2.460   4.243
17428SOL    HW163912   2.548   2.468   4.211
17428SOL    HW263913   2.466   2.467   4.338
17429SOL     OW63914   0.730   3.843  19.669
17429SOL    HW163915   0.739   3.783  19.595
17429SOL    HW263916   0.650   3.814  19.714
17430SOL     OW63917   1.036   2.884   2.989
17430SOL    HW163918   0.969   2.820   2.965
17430SOL    HW263919   1.117   2.847   2.955
17431SOL     OW63920   3.812   3.725   6.667
17431SOL    HW163921   3.906   3.734   6.681
17431SOL    HW263922   3.772   3.781   6.733
17432SOL     OW63923   2.676   3.340   8.530
17432SOL    HW163924   2.654   3.269   8.591
17432SOL    HW263925   2.720   3.296   8.457
17433SOL     OW63926   1.282   0.987  16.297
17433SOL    HW163927   1.374   0.976  16.272
17433SOL    HW263928   1.234   0.931  16.236
17434SOL     OW63929   1.763   1.464  22.792
17434SOL    HW163930   1.854   1.479  22.768
17434SOL    HW263931   1.768   1.412  22.872
17435SOL     OW63932   2.229   0.585  19.351
17435SOL    HW163933   2.225   0.506  19.404
17435SOL    HW263934   2.158   0.640  19.384
17436SOL     OW63935   2.554   3.700  20.563
17436SOL    HW163936   2.467   3.712  20.524
17436SOL    HW263937   2.549   3.744  20.648
17437SOL     OW63938   2.442   1.663  27.754
17437SOL    HW163939   2.348   1.650  27.743
17437SOL    HW263940   2.462   1.738  27.697
17438SOL     OW63941   2.086   3.669   5.060
17438SOL    HW163942   2.092   3.584   5.017
17438SOL    HW263943   2.174   3.686   5.092
17439SOL     OW63944   2.730   3.098  17.835
17439SOL    HW163945   2.812   3.050  17.826
17439SOL    HW263946   2.742   3.151  17.914
17440SOL     OW63947   0.996   3.785   8.201
17440SOL    HW163948   0.988   3.880   8.203
17440SOL    HW263949   0.945   3.754   8.276
17441SOL     OW63950   2.595   3.482   4.697
17441SOL    HW163951   2.621   3.479   4.605
17441SOL    HW263952   2.671   3.448   4.745
17442SOL     OW63953   1.431   2.971  28.513
17442SOL    HW163954   1.398   2.967  28.423
17442SOL    HW263955   1.361   3.014   0.043
17443SOL     OW63956   3.576   3.154  22.833
17443SOL    HW163957   3.548   3.220  22.770
17443SOL    HW263958   3.654   3.191  22.874
17444SOL     OW63959   2.269   3.951  20.046
17444SOL    HW163960   2.311   3.865  20.052
17444SOL    HW263961   2.182   3.932  20.011
17445SOL     OW63962   0.340   2.391  26.228
17445SOL    HW163963   0.250   2.403  26.199
17445SOL    HW263964   0.347   2.297  26.246
17446SOL     OW63965   3.006   3.943   1.458
17446SOL    HW163966   3.068   4.013   1.477
17446SOL    HW263967   3.027   3.875   1.522
17447SOL     OW63968   0.203   0.637   4.644
17447SOL    HW163969   0.271   0.574   4.668
17447SOL    HW263970   0.233   0.676   4.562
17448SOL     OW63971   3.684   0.694   9.166
17448SOL    HW163972   3.666   0.603   9.190
17448SOL    HW263973   3.779   0.698   9.156
17449SOL     OW63974   2.735   3.772   0.845
17449SOL    HW163975   2.643   3.755   0.827
17449SOL    HW263976   2.734   3.849   0.902
17450SOL     OW63977   2.784   2.969  21.432
17450SOL    HW163978   2.815   3.047  21.479
17450SOL    HW263979   2.864   2.921  21.411
17451SOL     OW63980   1.727   3.865   1.785
17451SOL    HW163981   1.682   3.781   1.773
17451SOL    HW263982   1.670   3.929   1.741
17452SOL     OW63983   3.378   1.426   2.366
17452SOL    HW163984   3.382   1.448   2.459
17452SOL    HW263985   3.296   1.377   2.357
17453SOL     OW63986   4.683   0.042  24.840
17453SOL    HW163987   4.653   4.758  24.776
17453SOL    HW263988   4.769   0.070  24.808
17454SOL     OW63989   3.789   4.622  21.816
17454SOL    HW163990   3.789   4.529  21.838
17454SOL    HW263991   3.882   4.643  21.804
17455SOL     OW63992   4.754   3.951   3.412
17455SOL    HW163993   4.682   3.993   3.365
17455SOL    HW263994   4.746   3.858   3.390
17456SOL     OW63995   1.642   0.534  24.346
17456SOL    HW163996   1.598   0.609  24.307
17456SOL    HW263997   1.732   0.563  24.358
17457SOL     OW63998   1.140   3.381  25.642
17457SOL    HW163999   1.098   3.333  25.570
17457SOL    HW264000   1.069   3.433  25.680
17458SOL     OW64001   1.579   2.182   7.172
17458SOL    HW164002   1.591   2.156   7.081
17458SOL    HW264003   1.521   2.258   7.167
17459SOL     OW64004   0.816   4.636  20.708
17459SOL    HW164005   0.831   4.552  20.751
17459SOL    HW264006   0.762   4.615  20.632
17460SOL     OW64007   1.598   1.202  22.650
17460SOL    HW164008   1.541   1.198  22.573
17460SOL    HW264009   1.541   1.180  22.724
17461SOL     OW64010   1.937   1.724   1.765
17461SOL    HW164011   1.990   1.693   1.838
17461SOL    HW264012   1.914   1.644   1.717
17462SOL     OW64013   3.036   1.217   1.096
17462SOL    HW164014   3.010   1.150   1.033
17462SOL    HW264015   2.957   1.269   1.110
17463SOL     OW64016   2.156   4.043  26.161
17463SOL    HW164017   2.199   3.990  26.228
17463SOL    HW264018   2.198   4.129  26.167
17464SOL     OW64019   1.637   3.893  27.620
17464SOL    HW164020   1.672   3.815  27.663
17464SOL    HW264021   1.624   3.956  27.691
17465SOL     OW64022   0.234   2.089  25.392
17465SOL    HW164023   0.234   1.993  25.390
17465SOL    HW264024   0.326   2.113  25.399
17466SOL     OW64025   4.341   0.831   3.692
17466SOL    HW164026   4.385   0.848   3.609
17466SOL    HW264027   4.407   0.852   3.759
17467SOL     OW64028   3.730   1.198   6.534
17467SOL    HW164029   3.769   1.181   6.448
17467SOL    HW264030   3.756   1.288   6.555
17468SOL     OW64031   4.691   1.354  20.520
17468SOL    HW164032   4.615   1.370  20.577
17468SOL    HW264033   4.738   1.437  20.519
17469SOL     OW64034   1.271   3.577  23.319
17469SOL    HW164035   1.265   3.496  23.370
17469SOL    HW264036   1.263   3.647  23.384
17470SOL     OW64037   4.213   1.165   1.063
17470SOL    HW164038   4.251   1.077   1.068
17470SOL    HW264039   4.127   1.156   1.103
17471SOL     OW64040   4.455   1.031  26.554
17471SOL    HW164041   4.393   1.065  26.489
17471SOL    HW264042   4.412   1.044  26.638
17472SOL     OW64043   3.754   2.204  23.489
17472SOL    HW164044   3.786   2.139  23.427
17472SOL    HW264045   3.789   2.176  23.574
17473SOL     OW64046   3.893   3.457   3.806
17473SOL    HW164047   3.889   3.380   3.863
17473SOL    HW264048   3.896   3.421   3.717
17474SOL     OW64049   3.014   1.146  20.528
17474SOL    HW164050   2.928   1.144  20.571
17474SOL    HW264051   3.040   1.054  20.522
17475SOL     OW64052   2.050   2.717   9.417
17475SOL    HW164053   2.141   2.724   9.387
17475SOL    HW264054   1.998   2.730   9.338
17476SOL     OW64055   3.750   1.133   0.957
17476SOL    HW164056   3.841   1.144   0.929
17476SOL    HW264057   3.750   1.156   1.050
17477SOL     OW64058   0.794   3.427  21.193
17477SOL    HW164059   0.723   3.491  21.188
17477SOL    HW264060   0.803   3.408  21.286
17478SOL     OW64061   0.696   2.921   0.288
17478SOL    HW164062   0.675   2.922   0.195
17478SOL    HW264063   0.631   2.978   0.329
17479SOL     OW64064   0.342   0.670   8.647
17479SOL    HW164065   0.285   0.745   8.662
17479SOL    HW264066   0.306   0.627   8.570
17480SOL     OW64067   2.650   3.056  27.165
17480SOL    HW164068   2.578   3.116  27.148
17480SOL    HW264069   2.701   3.055  27.084
17481SOL     OW64070   3.653   4.407   5.772
17481SOL    HW164071   3.725   4.469   5.759
17481SOL    HW264072   3.694   4.331   5.814
17482SOL     OW64073   3.272   3.799   0.918
17482SOL    HW164074   3.209   3.729   0.936
17482SOL    HW264075   3.224   3.861   0.863
17483SOL     OW64076   3.108   4.755   1.937
17483SOL    HW164077   3.036   0.005   1.993
17483SOL    HW264078   3.071   4.681   1.889
17484SOL     OW64079   0.038   3.378   9.206
17484SOL    HW164080   4.747   3.377   9.270
17484SOL    HW264081   0.019   3.305   9.147
17485SOL     OW64082   0.537   2.836  27.421
17485SOL    HW164083   0.611   2.891  27.446
17485SOL    HW264084   0.497   2.810  27.504
17486SOL     OW64085   2.153   2.726  26.730
17486SOL    HW164086   2.213   2.778  26.676
17486SOL    HW264087   2.081   2.703  26.671
17487SOL     OW64088   0.184   4.681  22.841
17487SOL    HW164089   0.102   4.662  22.795
17487SOL    HW264090   0.252   4.662  22.776
17488SOL     OW64091   3.591   3.323  18.024
17488SOL    HW164092   3.576   3.414  18.048
17488SOL    HW264093   3.593   3.323  17.928
17489SOL     OW64094   2.749   3.681  22.600
17489SOL    HW164095   2.699   3.730  22.665
17489SOL    HW264096   2.816   3.742  22.570
17490SOL     OW64097   4.705   1.327  15.998
17490SOL    HW164098   4.760   1.305  15.923
17490SOL    HW264099   4.765   1.324  16.073
17491SOL     OW64100   0.989   4.545   5.532
17491SOL    HW164101   0.979   4.500   5.448
17491SOL    HW264102   0.958   4.634   5.516
17492SOL     OW64103   0.311   1.266  11.364
17492SOL    HW164104   0.312   1.323  11.441
17492SOL    HW264105   0.227   1.221  11.369
17493SOL     OW64106   3.619   1.952  19.785
17493SOL    HW164107   3.560   1.971  19.858
17493SOL    HW264108   3.562   1.916  19.717
17494SOL     OW64109   2.856   3.458   7.553
17494SOL    HW164110   2.869   3.551   7.570
17494SOL    HW264111   2.835   3.453   7.460
17495SOL     OW64112   1.544   2.272  26.959
17495SOL    HW164113   1.481   2.339  26.935
17495SOL    HW264114   1.495   2.212  27.015
17496SOL     OW64115   3.365   3.960   1.222
17496SOL    HW164116   3.446   3.938   1.176
17496SOL    HW264117   3.313   3.879   1.219
17497SOL     OW64118   2.687   1.742  18.823
17497SOL    HW164119   2.644   1.794  18.756
17497SOL    HW264120   2.768   1.790  18.842
17498SOL     OW64121   2.441   1.700   3.939
17498SOL    HW164122   2.474   1.611   3.951
17498SOL    HW264123   2.353   1.697   3.976
17499SOL     OW64124   3.373   2.233   2.351
17499SOL    HW164125   3.291   2.271   2.320
17499SOL    HW264126   3.355   2.209   2.442
17500SOL     OW64127   1.890   3.837  18.587
17500SOL    HW164128   1.903   3.911  18.647
17500SOL    HW264129   1.803   3.803  18.609
17501SOL     OW64130   1.648   1.912  24.444
17501SOL    HW164131   1.583   1.979  24.466
17501SOL    HW264132   1.729   1.943  24.485
17502SOL     OW64133   1.187   4.570   4.433
17502SOL    HW164134   1.168   4.592   4.524
17502SOL    HW264135   1.108   4.596   4.386
17503SOL     OW64136   3.384   3.257  23.412
17503SOL    HW164137   3.459   3.317  23.414
17503SOL    HW264138   3.403   3.198  23.339
17504SOL     OW64139   2.815   0.533   6.715
17504SOL    HW164140   2.735   0.580   6.740
17504SOL    HW264141   2.869   0.533   6.794
17505SOL     OW64142   2.700   4.571   1.211
17505SOL    HW164143   2.776   4.623   1.185
17505SOL    HW264144   2.628   4.607   1.160
17506SOL     OW64145   0.729   0.265   2.993
17506SOL    HW164146   0.770   0.185   2.961
17506SOL    HW264147   0.635   0.250   2.981
17507SOL     OW64148   1.012   4.201   0.338
17507SOL    HW164149   1.055   4.193   0.253
17507SOL    HW264150   0.935   4.255   0.321
17508SOL     OW64151   3.241   3.910   5.661
17508SOL    HW164152   3.240   4.000   5.693
17508SOL    HW264153   3.333   3.885   5.664
17509SOL     OW64154   0.283   2.476   0.469
17509SOL    HW164155   0.248   2.473   0.558
17509SOL    HW264156   0.253   2.560   0.434
17510SOL     OW64157   3.374   4.181   1.549
17510SOL    HW164158   3.450   4.239   1.552
17510SOL    HW264159   3.403   4.101   1.592
17511SOL     OW64160   4.642   2.621   6.851
17511SOL    HW164161   4.677   2.544   6.896
17511SOL    HW264162   4.636   2.595   6.759
17512SOL     OW64163   2.633   1.755   7.952
17512SOL    HW164164   2.617   1.839   7.995
17512SOL    HW264165   2.566   1.697   7.987
17513SOL     OW64166   2.283   2.037  20.503
17513SOL    HW164167   2.285   1.960  20.560
17513SOL    HW264168   2.287   2.111  20.563
17514SOL     OW64169   4.582   2.034   4.517
17514SOL    HW164170   4.610   2.125   4.514
17514SOL    HW264171   4.661   1.985   4.539
17515SOL     OW64172   4.719   2.191  26.509
17515SOL    HW164173   0.008   2.190  26.575
17515SOL    HW264174   4.762   2.163  26.428
17516SOL     OW64175   0.774   3.099   5.392
17516SOL    HW164176   0.724   3.028   5.352
17516SOL    HW264177   0.753   3.176   5.339
17517SOL     OW64178   4.730   1.913  25.594
17517SOL    HW164179   0.039   1.883  25.612
17517SOL    HW264180   4.717   1.895  25.501
17518SOL     OW64181   3.743   1.303  21.059
17518SOL    HW164182   3.821   1.289  21.112
17518SOL    HW264183   3.768   1.371  20.996
17519SOL     OW64184   1.823   1.124   2.551
17519SOL    HW164185   1.746   1.105   2.498
17519SOL    HW264186   1.896   1.085   2.502
17520SOL     OW64187   0.495   2.754  23.182
17520SOL    HW164188   0.461   2.843  23.174
17520SOL    HW264189   0.467   2.710  23.101
17521SOL     OW64190   1.520   0.333  11.178
17521SOL    HW164191   1.506   0.277  11.102
17521SOL    HW264192   1.613   0.356  11.174
17522SOL     OW64193   2.752   3.233   2.119
17522SOL    HW164194   2.827   3.292   2.126
17522SOL    HW264195   2.689   3.267   2.182
17523SOL     OW64196   1.233   0.970  17.437
17523SOL    HW164197   1.258   1.051  17.482
17523SOL    HW264198   1.170   0.998  17.370
17524SOL     OW64199   2.439   1.941  24.967
17524SOL    HW164200   2.500   1.926  25.039
17524SOL    HW264201   2.389   2.018  24.993
17525SOL     OW64202   2.292   4.554  23.518
17525SOL    HW164203   2.263   4.477  23.470
17525SOL    HW264204   2.371   4.582  23.473
17526SOL     OW64205   0.103   3.222  25.313
17526SOL    HW164206   0.111   3.129  25.334
17526SOL    HW264207   0.167   3.237  25.244
17527SOL     OW64208   3.081   4.030   5.961
17527SOL    HW164209   3.143   4.046   6.032
17527SOL    HW264210   3.131   4.045   5.881
17528SOL     OW64211   2.137   2.408   8.277
17528SOL    HW164212   2.230   2.422   8.292
17528SOL    HW264213   2.093   2.456   8.347
17529SOL     OW64214   4.778   0.987  26.267
17529SOL    HW164215   4.771   1.010  26.360
17529SOL    HW264216   0.021   1.069  26.223
17530SOL     OW64217   2.594   1.524  25.970
17530SOL    HW164218   2.608   1.438  26.010
17530SOL    HW264219   2.513   1.556  26.009
17531SOL     OW64220   1.000   2.751   2.227
17531SOL    HW164221   1.069   2.711   2.174
17531SOL    HW264222   0.990   2.839   2.192
17532SOL     OW64223   3.885   3.764  10.976
17532SOL    HW164224   3.964   3.716  10.949
17532SOL    HW264225   3.917   3.850  11.002
17533SOL     OW64226   3.342   3.531  23.177
17533SOL    HW164227   3.345   3.439  23.152
17533SOL    HW264228   3.425   3.568  23.146
17534SOL     OW64229   4.087   3.450  22.718
17534SOL    HW164230   4.142   3.525  22.695
17534SOL    HW264231   4.078   3.455  22.813
17535SOL     OW64232   1.151   4.195  10.672
17535SOL    HW164233   1.131   4.183  10.765
17535SOL    HW264234   1.108   4.121  10.628
17536SOL     OW64235   4.201   0.589  20.044
17536SOL    HW164236   4.268   0.521  20.046
17536SOL    HW264237   4.192   0.611  19.951
17537SOL     OW64238   3.998   2.907   4.415
17537SOL    HW164239   4.074   2.874   4.367
17537SOL    HW264240   4.005   3.002   4.408
17538SOL     OW64241   1.523   3.147  25.808
17538SOL    HW164242   1.522   3.092  25.886
17538SOL    HW264243   1.454   3.211  25.822
17539SOL     OW64244   2.339   2.079   7.113
17539SOL    HW164245   2.352   1.986   7.129
17539SOL    HW264246   2.305   2.083   7.023
17540SOL     OW64247   4.641   1.198   0.788
17540SOL    HW164248   4.736   1.190   0.786
17540SOL    HW264249   4.625   1.279   0.837
17541SOL     OW64250   1.008   1.733   0.427
17541SOL    HW164251   1.049   1.804   0.377
17541SOL    HW264252   0.926   1.770   0.459
17542SOL     OW64253   3.828   2.611   8.513
17542SOL    HW164254   3.905   2.636   8.463
17542SOL    HW264255   3.860   2.601   8.603
17543SOL     OW64256   2.768   3.463  20.941
17543SOL    HW164257   2.697   3.528  20.942
17543SOL    HW264258   2.848   3.515  20.949
17544SOL     OW64259   4.341   2.030   1.072
17544SOL    HW164260   4.267   1.992   1.025
17544SOL    HW264261   4.416   2.015   1.015
17545SOL     OW64262   2.514   1.873  19.872
17545SOL    HW164263   2.474   1.850  19.956
17545SOL    HW264264   2.440   1.879  19.811
17546SOL     OW64265   2.652   2.977  22.427
17546SOL    HW164266   2.626   3.049  22.484
17546SOL    HW264267   2.579   2.968  22.365
17547SOL     OW64268   1.443   1.171   4.818
17547SOL    HW164269   1.442   1.248   4.761
17547SOL    HW264270   1.495   1.106   4.770
17548SOL     OW64271   0.700   2.108  27.727
17548SOL    HW164272   0.745   2.192  27.737
17548SOL    HW264273   0.760   2.043  27.764
17549SOL     OW64274   4.574   3.183   6.255
17549SOL    HW164275   4.486   3.148   6.267
17549SOL    HW264276   4.563   3.278   6.260
17550SOL     OW64277   4.682   0.308  27.925
17550SOL    HW164278   4.622   0.278  27.993
17550SOL    HW264279   4.728   0.229  27.898
17551SOL     OW64280   4.257   1.123  21.529
17551SOL    HW164281   4.177   1.075  21.551
17551SOL    HW264282   4.300   1.069  21.463
17552SOL     OW64283   0.910   4.351   7.017
17552SOL    HW164284   0.996   4.392   7.022
17552SOL    HW264285   0.928   4.257   7.014
17553SOL     OW64286   2.907   2.450  20.671
17553SOL    HW164287   2.903   2.421  20.580
17553SOL    HW264288   2.866   2.536  20.671
17554SOL     OW64289   1.027   1.245   9.033
17554SOL    HW164290   0.988   1.185   8.969
17554SOL    HW264291   0.966   1.319   9.036
17555SOL     OW64292   0.291   3.274  28.406
17555SOL    HW164293   0.208   3.240  28.372
17555SOL    HW264294   0.297   3.363  28.371
17556SOL     OW64295   0.469   1.745   4.115
17556SOL    HW164296   0.452   1.805   4.188
17556SOL    HW264297   0.489   1.661   4.157
17557SOL     OW64298   0.071   0.621  27.530
17557SOL    HW164299   0.000   0.668  27.485
17557SOL    HW264300   0.092   0.676  27.606
17558SOL     OW64301   3.045   3.419   3.863
17558SOL    HW164302   3.071   3.509   3.881
17558SOL    HW264303   3.127   3.370   3.861
17559SOL     OW64304   2.703   3.279   2.718
17559SOL    HW164305   2.760   3.318   2.784
17559SOL    HW264306   2.762   3.248   2.650
17560SOL     OW64307   0.090   4.166   5.821
17560SOL    HW164308   0.078   4.257   5.848
17560SOL    HW264309   0.025   4.117   5.871
17561SOL     OW64310   1.894   3.313   8.006
17561SOL    HW164311   1.868   3.306   8.098
17561SOL    HW264312   1.951   3.390   8.003
17562SOL     OW64313   3.359   0.914   2.602
17562SOL    HW164314   3.367   0.824   2.571
17562SOL    HW264315   3.408   0.966   2.538
17563SOL     OW64316   0.528   3.373   9.546
17563SOL    HW164317   0.589   3.445   9.559
17563SOL    HW264318   0.517   3.335   9.633
17564SOL     OW64319   4.294   0.760   5.331
17564SOL    HW164320   4.270   0.829   5.270
17564SOL    HW264321   4.315   0.806   5.412
17565SOL     OW64322   0.662   0.580  22.905
17565SOL    HW164323   0.697   0.507  22.956
17565SOL    HW264324   0.719   0.586  22.829
17566SOL     OW64325   3.127   3.655   5.035
17566SOL    HW164326   3.095   3.627   5.121
17566SOL    HW264327   3.190   3.725   5.054
17567SOL     OW64328   1.157   1.701   1.247
17567SOL    HW164329   1.135   1.716   1.339
17567SOL    HW264330   1.180   1.787   1.213
17568SOL     OW64331   2.942   3.521   8.703
17568SOL    HW164332   2.999   3.598   8.711
17568SOL    HW264333   2.873   3.535   8.767
17569SOL     OW64334   3.147   1.191   9.175
17569SOL    HW164335   3.222   1.160   9.125
17569SOL    HW264336   3.158   1.152   9.262
17570SOL     OW64337   1.853   1.552  26.875
17570SOL    HW164338   1.899   1.635  26.866
17570SOL    HW264339   1.834   1.545  26.969
17571SOL     OW64340   0.055   0.458   2.255
17571SOL    HW164341   4.763   0.476   2.315
17571SOL    HW264342   0.056   0.363   2.247
17572SOL     OW64343   2.667   4.149  27.148
17572SOL    HW164344   2.613   4.192  27.215
17572SOL    HW264345   2.731   4.216  27.123
17573SOL     OW64346   3.462   1.610  20.010
17573SOL    HW164347   3.456   1.631  19.917
17573SOL    HW264348   3.425   1.522  20.017
17574SOL     OW64349   1.234   4.642   7.228
17574SOL    HW164350   1.176   4.577   7.267
17574SOL    HW264351   1.322   4.604   7.235
17575SOL     OW64352   2.432   2.758   0.543
17575SOL    HW164353   2.455   2.689   0.606
17575SOL    HW264354   2.424   2.712   0.459
17576SOL     OW64355   1.420   1.150   2.806
17576SOL    HW164356   1.451   1.117   2.722
17576SOL    HW264357   1.407   1.244   2.791
17577SOL     OW64358   1.929   2.653   7.595
17577SOL    HW164359   1.914   2.633   7.687
17577SOL    HW264360   1.957   2.570   7.556
17578SOL     OW64361   4.621   0.441   5.215
17578SOL    HW164362   4.666   0.372   5.166
17578SOL    HW264363   4.687   0.509   5.228
17579SOL     OW64364   3.785   1.586  21.858
17579SOL    HW164365   3.814   1.639  21.783
17579SOL    HW264366   3.744   1.649  21.917
17580SOL     OW64367   1.304   0.730  25.994
17580SOL    HW164368   1.223   0.734  25.944
17580SOL    HW264369   1.314   0.818  26.031
17581SOL     OW64370   1.202   4.441   6.022
17581SOL    HW164371   1.157   4.516   5.984
17581SOL    HW264372   1.198   4.374   5.954
17582SOL     OW64373   0.209   0.224   4.584
17582SOL    HW164374   0.201   0.134   4.615
17582SOL    HW264375   0.123   0.263   4.600
17583SOL     OW64376   2.513   1.944   4.367
17583SOL    HW164377   2.586   1.932   4.427
17583SOL    HW264378   2.549   1.925   4.281
17584SOL     OW64379   0.658   2.423  25.273
17584SOL    HW164380   0.592   2.491  25.288
17584SOL    HW264381   0.738   2.458  25.311
17585SOL     OW64382   3.278   2.397   4.456
17585SOL    HW164383   3.265   2.476   4.508
17585SOL    HW264384   3.373   2.392   4.442
17586SOL     OW64385   2.787   2.515  19.737
17586SOL    HW164386   2.771   2.438  19.683
17586SOL    HW264387   2.876   2.504  19.769
17587SOL     OW64388   3.270   2.060   1.477
17587SOL    HW164389   3.222   1.978   1.485
17587SOL    HW264390   3.347   2.037   1.424
17588SOL     OW64391   3.837   0.058   7.847
17588SOL    HW164392   3.796   0.086   7.929
17588SOL    HW264393   3.829   4.743   7.848
17589SOL     OW64394   4.556   0.722   4.760
17589SOL    HW164395   4.645   0.753   4.776
17589SOL    HW264396   4.550   0.640   4.808
17590SOL     OW64397   2.633   3.959   8.166
17590SOL    HW164398   2.539   3.979   8.167
17590SOL    HW264399   2.639   3.872   8.205
17591SOL     OW64400   0.480   3.402  25.206
17591SOL    HW164401   0.558   3.384  25.259
17591SOL    HW264402   0.476   3.497  25.201
17592SOL     OW64403   3.299   4.776  20.179
17592SOL    HW164404   3.333   4.775  20.090
17592SOL    HW264405   3.218   0.046  20.173
17593SOL     OW64406   1.448   0.609  26.439
17593SOL    HW164407   1.386   0.623  26.510
17593SOL    HW264408   1.394   0.609  26.360
17594SOL     OW64409   2.705   0.368  18.612
17594SOL    HW164410   2.695   0.299  18.546
17594SOL    HW264411   2.634   0.353  18.674
17595SOL     OW64412   1.799   0.426   0.125
17595SOL    HW164413   1.863   0.384   0.068
17595SOL    HW264414   1.771   0.356   0.184
17596SOL     OW64415   4.450   4.302   2.808
17596SOL    HW164416   4.498   4.279   2.728
17596SOL    HW264417   4.382   4.362   2.779
17597SOL     OW64418   1.040   1.019  24.847
17597SOL    HW164419   0.988   1.072  24.908
17597SOL    HW264420   1.082   0.953  24.902
17598SOL     OW64421   3.665   3.427  21.489
17598SOL    HW164422   3.628   3.410  21.403
17598SOL    HW264423   3.719   3.505  21.477
17599SOL     OW64424   3.503   4.221  19.749
17599SOL    HW164425   3.476   4.202  19.659
17599SOL    HW264426   3.598   4.213  19.748
17600SOL     OW64427   0.437   4.772   5.112
17600SOL    HW164428   0.451   4.769   5.207
17600SOL    HW264429   0.404   0.080   5.095
17601SOL     OW64430   4.563   1.957   9.311
17601SOL    HW164431   4.528   1.879   9.354
17601SOL    HW264432   4.658   1.946   9.314
17602SOL     OW64433   3.792   0.265  27.827
17602SOL    HW164434   3.772   0.317  27.749
17602SOL    HW264435   3.866   0.310  27.868
17603SOL     OW64436   3.906   1.449   5.865
17603SOL    HW164437   3.999   1.432   5.848
17603SOL    HW264438   3.867   1.362   5.872
17604SOL     OW64439   3.988   2.205   8.554
17604SOL    HW164440   3.918   2.142   8.568
17604SOL    HW264441   4.062   2.170   8.603
17605SOL     OW64442   3.609   0.770   1.410
17605SOL    HW164443   3.524   0.765   1.366
17605SOL    HW264444   3.672   0.786   1.340
17606SOL     OW64445   1.317   0.311  27.340
17606SOL    HW164446   1.312   0.270  27.426
17606SOL    HW264447   1.303   0.404  27.357
17607SOL     OW64448   3.326   2.242   8.828
17607SOL    HW164449   3.349   2.153   8.855
17607SOL    HW264450   3.265   2.231   8.756
17608SOL     OW64451   1.226   2.809   7.499
17608SOL    HW164452   1.269   2.774   7.577
17608SOL    HW264453   1.298   2.825   7.438
17609SOL     OW64454   4.341   3.823  10.817
17609SOL    HW164455   4.321   3.811  10.724
17609SOL    HW264456   4.433   3.796  10.825
17610SOL     OW64457   1.764   1.163  21.945
17610SOL    HW164458   1.669   1.156  21.958
17610SOL    HW264459   1.801   1.152  22.033
17611SOL     OW64460   2.513   3.648   1.758
17611SOL    HW164461   2.461   3.615   1.831
17611SOL    HW264462   2.507   3.743   1.765
17612SOL     OW64463   1.316   4.755   2.048
17612SOL    HW164464   1.258   0.051   2.044
17612SOL    HW264465   1.404   0.012   2.058
17613SOL     OW64466   2.911   4.646  20.448
17613SOL    HW164467   2.883   4.667  20.359
17613SOL    HW264468   2.899   4.551  20.455
17614SOL     OW64469   1.149   0.625   7.110
17614SOL    HW164470   1.159   0.543   7.158
17614SOL    HW264471   1.057   0.625   7.082
17615SOL     OW64472   4.403   4.115   0.465
17615SOL    HW164473   4.468   4.061   0.420
17615SOL    HW264474   4.446   4.200   0.476
17616SOL     OW64475   0.594   1.367  26.465
17616SOL    HW164476   0.635   1.326  26.541
17616SOL    HW264477   0.665   1.376  26.402
17617SOL     OW64478   3.305   0.447   7.729
17617SOL    HW164479   3.223   0.493   7.746
17617SOL    HW264480   3.280   0.372   7.675
17618SOL     OW64481   0.086   1.906  26.660
17618SOL    HW164482   0.117   1.996  26.649
17618SOL    HW264483   0.024   1.893  26.589
17619SOL     OW64484   2.900   2.341  28.163
17619SOL    HW164485   2.824   2.387  28.198
17619SOL    HW264486   2.964   2.342  28.234
17620SOL     OW64487   2.926   0.839   6.513
17620SOL    HW164488   2.958   0.865   6.427
17620SOL    HW264489   2.999   0.790   6.552
17621SOL     OW64490   2.547   3.767  26.229
17621SOL    HW164491   2.544   3.733  26.140
17621SOL    HW264492   2.605   3.843  26.224
17622SOL     OW64493   2.416   3.270   0.308
17622SOL    HW164494   2.494   3.243   0.356
17622SOL    HW264495   2.346   3.217   0.346
17623SOL     OW64496   4.664   1.952  20.938
17623SOL    HW164497   4.741   1.977  20.887
17623SOL    HW264498   4.603   2.025  20.927
17624SOL     OW64499   1.966   0.267  22.150
17624SOL    HW164500   2.029   0.334  22.178
17624SOL    HW264501   2.017   0.207  22.096
17625SOL     OW64502   4.524   1.439  28.284
17625SOL    HW164503   4.499   1.470  28.371
17625SOL    HW264504   4.549   1.518  28.236
17626SOL     OW64505   4.255   4.211   6.472
17626SOL    HW164506   4.303   4.248   6.546
17626SOL    HW264507   4.299   4.247   6.395
17627SOL     OW64508   4.694   1.448  25.016
17627SOL    HW164509   4.762   1.381  25.016
17627SOL    HW264510   4.628   1.415  24.954
17628SOL     OW64511   3.796   0.032   5.675
17628SOL    HW164512   3.853   0.099   5.713
17628SOL    HW264513   3.708   0.070   5.679
17629SOL     OW64514   2.843   4.717  28.284
17629SOL    HW164515   2.801   4.641  28.323
17629SOL    HW264516   2.780   4.749  28.219
17630SOL     OW64517   4.638   0.291   3.080
17630SOL    HW164518   4.551   0.271   3.044
17630SOL    HW264519   4.697   0.234   3.031
17631SOL     OW64520   4.270   3.756  10.089
17631SOL    HW164521   4.323   3.747  10.168
17631SOL    HW264522   4.186   3.790  10.121
17632SOL     OW64523   2.143   0.108   2.411
17632SOL    HW164524   2.178   0.090   2.324
17632SOL    HW264525   2.129   0.203   2.412
17633SOL     OW64526   1.193   4.737   3.812
17633SOL    HW164527   1.103   4.712   3.789
17633SOL    HW264528   1.205   4.703   3.901
17634SOL     OW64529   1.696   4.173   5.292
17634SOL    HW164530   1.683   4.149   5.384
17634SOL    HW264531   1.787   4.204   5.288
17635SOL     OW64532   0.603   0.915  23.848
17635SOL    HW164533   0.534   0.873  23.899
17635SOL    HW264534   0.573   0.908  23.757
17636SOL     OW64535   1.383   1.870   1.603
17636SOL    HW164536   1.290   1.856   1.623
17636SOL    HW264537   1.416   1.783   1.579
17637SOL     OW64538   1.121   3.078   0.704
17637SOL    HW164539   1.039   3.030   0.696
17637SOL    HW264540   1.188   3.015   0.677
17638SOL     OW64541   0.296   3.654   5.970
17638SOL    HW164542   0.323   3.745   5.984
17638SOL    HW264543   0.234   3.659   5.898
17639SOL     OW64544   0.031   2.439  24.529
17639SOL    HW164545   0.080   2.392  24.462
17639SOL    HW264546   0.088   2.438  24.606
17640SOL     OW64547   2.644   1.974  26.383
17640SOL    HW164548   2.697   2.015  26.315
17640SOL    HW264549   2.588   1.912  26.336
17641SOL     OW64550   2.941   4.307   4.565
17641SOL    HW164551   2.887   4.311   4.644
17641SOL    HW264552   2.879   4.318   4.493
17642SOL     OW64553   2.471   1.745   8.566
17642SOL    HW164554   2.516   1.696   8.497
17642SOL    HW264555   2.490   1.837   8.546
17643SOL     OW64556   0.555   4.262   2.799
17643SOL    HW164557   0.611   4.185   2.787
17643SOL    HW264558   0.610   4.324   2.848
17644SOL     OW64559   2.402   0.161   6.863
17644SOL    HW164560   2.410   0.084   6.807
17644SOL    HW264561   2.449   0.137   6.943
17645SOL     OW64562   3.801   1.368  25.505
17645SOL    HW164563   3.733   1.374  25.572
17645SOL    HW264564   3.766   1.307  25.441
17646SOL     OW64565   2.260   3.213  26.076
17646SOL    HW164566   2.188   3.161  26.040
17646SOL    HW264567   2.329   3.208  26.009
17647SOL     OW64568   2.899   1.224  28.421
17647SOL    HW164569   2.935   1.194  28.504
17647SOL    HW264570   2.920   1.154  28.359
17648SOL     OW64571   4.369   0.589  10.569
17648SOL    HW164572   4.456   0.628  10.562
17648SOL    HW264573   4.360   0.568  10.662
17649SOL     OW64574   3.384   4.249  19.992
17649SOL    HW164575   3.409   4.247  19.900
17649SOL    HW264576   3.467   4.246  20.040
17650SOL     OW64577   1.614   4.399  20.741
17650SOL    HW164578   1.670   4.447  20.802
17650SOL    HW264579   1.674   4.367  20.674
17651SOL     OW64580   0.699   0.707  17.186
17651SOL    HW164581   0.722   0.649  17.113
17651SOL    HW264582   0.651   0.779  17.146
17652SOL     OW64583   2.036   3.242   1.449
17652SOL    HW164584   2.020   3.277   1.537
17652SOL    HW264585   2.080   3.313   1.402
17653SOL     OW64586   2.851   1.368  24.373
17653SOL    HW164587   2.757   1.355  24.362
17653SOL    HW264588   2.860   1.459  24.401
17654SOL     OW64589   3.559   4.098   0.619
17654SOL    HW164590   3.490   4.156   0.588
17654SOL    HW264591   3.556   4.106   0.714
17655SOL     OW64592   2.368   4.649   5.897
17655SOL    HW164593   2.399   4.604   5.976
17655SOL    HW264594   2.417   4.608   5.825
17656SOL     OW64595   2.687   4.588  26.781
17656SOL    HW164596   2.697   4.538  26.862
17656SOL    HW264597   2.773   4.584  26.740
17657SOL     OW64598   0.855   2.785  22.246
17657SOL    HW164599   0.794   2.859  22.248
17657SOL    HW264600   0.829   2.731  22.320
17658SOL     OW64601   0.097   0.959  24.244
17658SOL    HW164602   0.146   0.896  24.297
17658SOL    HW264603   0.008   0.956  24.279
17659SOL     OW64604   3.719   4.564   7.191
17659SOL    HW164605   3.799   4.599   7.151
17659SOL    HW264606   3.748   4.483   7.234
17660SOL     OW64607   4.560   2.498   3.786
17660SOL    HW164608   4.652   2.506   3.811
17660SOL    HW264609   4.541   2.578   3.736
17661SOL     OW64610   1.833   3.383  20.299
17661SOL    HW164611   1.901   3.445  20.327
17661SOL    HW264612   1.870   3.297  20.318
17662SOL     OW64613   1.910   4.656  12.836
17662SOL    HW164614   1.837   4.705  12.874
17662SOL    HW264615   1.912   4.574  12.885
17663SOL     OW64616   4.404   0.335   9.490
17663SOL    HW164617   4.466   0.309   9.558
17663SOL    HW264618   4.431   0.423   9.465
17664SOL     OW64619   2.641   4.442  25.126
17664SOL    HW164620   2.684   4.406  25.049
17664SOL    HW264621   2.649   4.537  25.116
17665SOL     OW64622   0.575   0.012   0.273
17665SOL    HW164623   0.490   0.049   0.298
17665SOL    HW264624   0.599   4.736   0.347
17666SOL     OW64625   3.702   1.976   4.919
17666SOL    HW164626   3.625   1.950   4.868
17666SOL    HW264627   3.761   1.900   4.914
17667SOL     OW64628   1.054   2.210  25.288
17667SOL    HW164629   1.112   2.229  25.214
17667SOL    HW264630   1.080   2.123  25.318
17668SOL     OW64631   2.163   0.110  23.469
17668SOL    HW164632   2.192   0.023  23.441
17668SOL    HW264633   2.209   0.170  23.410
17669SOL     OW64634   0.598   2.343  24.484
17669SOL    HW164635   0.631   2.253  24.476
17669SOL    HW264636   0.521   2.336  24.540
17670SOL     OW64637   4.025   2.694  27.385
17670SOL    HW164638   4.007   2.766  27.325
17670SOL    HW264639   4.108   2.718  27.427
17671SOL     OW64640   3.685   3.362  24.621
17671SOL    HW164641   3.596   3.361  24.585
17671SOL    HW264642   3.742   3.369  24.544
17672SOL     OW64643   4.661   3.591   5.432
17672SOL    HW164644   4.710   3.515   5.401
17672SOL    HW264645   4.570   3.562   5.434
17673SOL     OW64646   2.329   2.055  20.200
17673SOL    HW164647   2.285   2.092  20.276
17673SOL    HW264648   2.414   2.098  20.198
17674SOL     OW64649   3.145   0.133   0.916
17674SOL    HW164650   3.204   0.172   0.980
17674SOL    HW264651   3.101   0.062   0.964
17675SOL     OW64652   2.462   3.677  22.239
17675SOL    HW164653   2.391   3.707  22.183
17675SOL    HW264654   2.435   3.589  22.267
17676SOL     OW64655   4.536   0.397  27.137
17676SOL    HW164656   4.542   0.481  27.092
17676SOL    HW264657   4.465   0.409  27.201
17677SOL     OW64658   1.564   3.200  21.340
17677SOL    HW164659   1.482   3.217  21.294
17677SOL    HW264660   1.540   3.201  21.433
17678SOL     OW64661   2.626   0.837   6.176
17678SOL    HW164662   2.664   0.806   6.258
17678SOL    HW264663   2.532   0.821   6.186
17679SOL     OW64664   0.169   1.106   2.841
17679SOL    HW164665   0.193   1.013   2.843
17679SOL    HW264666   0.123   1.117   2.758
17680SOL     OW64667   3.753   1.829  11.581
17680SOL    HW164668   3.795   1.763  11.637
17680SOL    HW264669   3.789   1.912  11.612
17681SOL     OW64670   0.724   3.727   9.982
17681SOL    HW164671   0.750   3.764  10.067
17681SOL    HW264672   0.805   3.724   9.932
17682SOL     OW64673   3.237   0.185   8.879
17682SOL    HW164674   3.295   0.197   8.954
17682SOL    HW264675   3.290   0.212   8.804
17683SOL     OW64676   0.363   0.408  25.108
17683SOL    HW164677   0.313   0.490  25.106
17683SOL    HW264678   0.355   0.374  25.019
17684SOL     OW64679   2.202   0.638  24.372
17684SOL    HW164680   2.155   0.588  24.306
17684SOL    HW264681   2.208   0.579  24.447
17685SOL     OW64682   2.321   2.213   3.681
17685SOL    HW164683   2.368   2.130   3.690
17685SOL    HW264684   2.285   2.230   3.768
17686SOL     OW64685   3.040   0.491  25.025
17686SOL    HW164686   3.030   0.398  25.044
17686SOL    HW264687   3.012   0.535  25.105
17687SOL     OW64688   2.947   3.019  24.114
17687SOL    HW164689   2.885   3.085  24.085
17687SOL    HW264690   2.897   2.937  24.114
17688SOL     OW64691   1.798   4.069  22.339
17688SOL    HW164692   1.754   3.997  22.294
17688SOL    HW264693   1.727   4.119  22.380
17689SOL     OW64694   2.296   1.267   1.510
17689SOL    HW164695   2.251   1.335   1.560
17689SOL    HW264696   2.309   1.305   1.423
17690SOL     OW64697   3.935   2.534   7.882
17690SOL    HW164698   4.026   2.530   7.852
17690SOL    HW264699   3.922   2.453   7.932
17691SOL     OW64700   2.823   1.031  26.095
17691SOL    HW164701   2.893   0.967  26.102
17691SOL    HW264702   2.838   1.074  26.011
17692SOL     OW64703   1.040   1.194   6.317
17692SOL    HW164704   1.082   1.272   6.354
17692SOL    HW264705   1.038   1.131   6.389
17693SOL     OW64706   0.186   0.560  10.122
17693SOL    HW164707   0.129   0.504  10.175
17693SOL    HW264708   0.222   0.624  10.184
17694SOL     OW64709   1.420   2.067   6.951
17694SOL    HW164710   1.406   1.974   6.971
17694SOL    HW264711   1.447   2.068   6.859
17695SOL     OW64712   3.900   2.570   0.861
17695SOL    HW164713   3.910   2.619   0.779
17695SOL    HW264714   3.956   2.615   0.923
17696SOL     OW64715   1.461   2.654   8.190
17696SOL    HW164716   1.401   2.580   8.186
17696SOL    HW264717   1.408   2.729   8.162
17697SOL     OW64718   1.731   3.825  24.137
17697SOL    HW164719   1.725   3.820  24.232
17697SOL    HW264720   1.660   3.883  24.112
17698SOL     OW64721   1.029   1.019  27.298
17698SOL    HW164722   1.047   0.941  27.350
17698SOL    HW264723   1.017   0.986  27.209
17699SOL     OW64724   0.007   2.264  25.120
17699SOL    HW164725   4.723   2.275  25.050
17699SOL    HW264726   0.080   2.219  25.078
17700SOL     OW64727   1.188   0.195  25.319
17700SOL    HW164728   1.231   0.112  25.341
17700SOL    HW264729   1.190   0.245  25.400
17701SOL     OW64730   2.354   0.760  20.911
17701SOL    HW164731   2.274   0.714  20.937
17701SOL    HW264732   2.325   0.848  20.889
17702K        K64733   2.050   3.396  10.257
17703K        K64734   2.806   4.398  11.909
17704K        K64735   1.949   4.031  25.690
17705K        K64736   3.252   1.733  17.725
17706K        K64737   1.615   3.432  18.266
17707K        K64738   3.890   1.213  11.870
17708K        K64739   3.196   0.558  11.035
17709K        K64740   0.711   1.861   3.533
17710K        K64741   2.857   0.568  10.198
17711K        K64742   2.736   4.348  11.575
17712K        K64743   1.307   0.780  10.948
17713K        K64744   4.303   3.033  17.300
17714K        K64745   0.079   1.633  18.092
17715K        K64746   1.771   4.079  18.243
17716K        K64747   4.547   1.342  10.706
17717K        K64748   2.685   2.740  11.758
17718K        K64749   2.237   2.146  11.477
17719K        K64750   0.230   2.564   1.337
17720K        K64751   1.438   0.312   8.376
17721K        K64752   0.423   0.086  17.320
17722K        K64753   1.713   3.018  10.880
17723K        K64754   2.897   4.610  10.894
17724K        K64755   3.292   1.703  11.919
17725K        K64756   1.045   3.884  11.957
17726K        K64757   0.572   3.683  20.415
17727K        K64758   3.312   1.119  10.504
17728K        K64759   3.413   1.583  18.191
17729K        K64760   2.280   1.243   4.276
   4.78041   4.78041  28.51927
