Membrane in water t=  20.00000 step= 20000
64760
    1TCq1    O1    1   3.488   1.038  11.892
    1TCq1    C1    2   3.384   1.073  11.815
    1TCq1    O2    3   3.372   1.172  11.747
    1TCq1    C2    4   3.283   0.967  11.813
    1TCq1    C3    5   3.168   0.997  11.743
    1TCq1    C4    6   3.065   0.908  11.739
    1TCq1    C5    7   3.083   0.783  11.787
    1TCq1    C6    8   3.202   0.751  11.846
    1TCq1    C7    9   3.304   0.842  11.864
    1TCq1    C8   10   3.232   0.615  11.883
    1TCq1    O4   11   3.133   0.547  11.905
    1TCq1    C9   12   2.960   0.933  11.651
    1TCq1    O5   13   2.972   1.026  11.567
    1TCq1    O6   14   2.876   0.837  11.640
    1TCq1    H1   15   3.478   0.958  11.947
    1TCq1    H2   16   3.154   1.095  11.698
    1TCq1    H3   17   3.006   0.708  11.780
    1TCq1    H4   18   3.388   0.816  11.927
    2MPD2     C   19   3.513   0.188  11.928
    2MPD2    C1   20   3.401   0.222  11.994
    2MPD2    C2   21   3.357   0.353  11.974
    2MPD2    C3   22   3.416   0.440  11.883
    2MPD2    C4   23   3.541   0.406  11.829
    2MPD2    C5   24   3.585   0.279  11.851
    2MPD2     H   25   3.265   0.372  12.027
    2MPD2    H1   26   3.585   0.466  11.750
    2MPD2    H2   27   3.554   0.088  11.927
    2MPD2    H3   28   3.677   0.259  11.797
    2MPD2     N   29   3.363   0.574  11.853
    2MPD2    H5   30   3.416   0.644  11.802
    2MPD2    N1   31   3.320   0.135  12.073
    2MPD2    H7   32   3.242   0.179  12.120
    3TCq1    O1   33   2.869   1.220  10.819
    3TCq1    C1   34   2.800   1.135  10.739
    3TCq1    O2   35   2.838   1.077  10.641
    3TCq1    C2   36   2.658   1.174  10.761
    3TCq1    C3   37   2.604   1.245  10.660
    3TCq1    C4   38   2.478   1.303  10.687
    3TCq1    C5   39   2.429   1.288  10.815
    3TCq1    C6   40   2.482   1.210  10.917
    3TCq1    C7   41   2.599   1.147  10.881
    3TCq1    C8   42   2.387   1.149  11.008
    3TCq1    O4   43   2.414   1.032  11.038
    3TCq1    C9   44   2.411   1.377  10.585
    3TCq1    O5   45   2.308   1.436  10.620
    3TCq1    O6   46   2.466   1.381  10.473
    3TCq1    H1   47   2.814   1.274  10.880
    3TCq1    H2   48   2.673   1.260  10.578
    3TCq1    H3   49   2.327   1.321  10.829
    3TCq1    H4   50   2.642   1.081  10.954
    4MPD2     C   51   2.034   1.118  11.356
    4MPD2    C1   52   2.070   1.245  11.355
    4MPD2    C2   53   2.148   1.292  11.246
    4MPD2    C3   54   2.197   1.200  11.155
    4MPD2    C4   55   2.160   1.066  11.156
    4MPD2    C5   56   2.075   1.027  11.261
    4MPD2     H   57   2.186   1.393  11.247
    4MPD2    H1   58   2.184   0.993  11.080
    4MPD2    H2   59   1.977   1.076  11.437
    4MPD2    H3   60   2.053   0.922  11.272
    4MPD2     N   61   2.300   1.238  11.067
    4MPD2    H5   62   2.297   1.333  11.030
    4MPD2    N1   63   2.050   1.333  11.466
    4MPD2    H7   64   2.068   1.431  11.446
    5TCq1    O1   65   3.726   2.745  12.552
    5TCq1    C1   66   3.714   2.787  12.426
    5TCq1    O2   67   3.788   2.760  12.330
    5TCq1    C2   68   3.588   2.853  12.416
    5TCq1    C3   69   3.535   2.934  12.518
    5TCq1    C4   70   3.418   2.999  12.497
    5TCq1    C5   71   3.346   2.985  12.375
    5TCq1    C6   72   3.402   2.897  12.280
    5TCq1    C7   73   3.523   2.836  12.297
    5TCq1    C8   74   3.359   2.898  12.146
    5TCq1    O4   75   3.400   2.808  12.072
    5TCq1    C9   76   3.361   3.078  12.602
    5TCq1    O5   77   3.437   3.108  12.698
    5TCq1    O6   78   3.243   3.121  12.589
    5TCq1    H1   79   3.641   2.762  12.598
    5TCq1    H2   80   3.596   2.955  12.606
    5TCq1    H3   81   3.248   3.026  12.359
    5TCq1    H4   82   3.572   2.776  12.221
    6MPD2     C   83   3.139   3.151  11.986
    6MPD2    C1   84   3.204   3.030  12.001
    6MPD2    C2   85   3.205   2.939  11.897
    6MPD2    C3   86   3.127   2.969  11.785
    6MPD2    C4   87   3.065   3.088  11.765
    6MPD2    C5   88   3.061   3.174  11.876
    6MPD2     H   89   3.248   2.840  11.907
    6MPD2    H1   90   3.003   3.115  11.681
    6MPD2    H2   91   3.118   3.212  12.074
    6MPD2    H3   92   3.002   3.264  11.867
    6MPD2     N   93   3.106   2.862  11.692
    6MPD2    H5   94   3.187   2.805  11.670
    6MPD2    N1   95   3.272   3.004  12.119
    6MPD2    H7   96   3.251   3.063  12.199
    7TCq1    O1   97   0.646   2.417  13.647
    7TCq1    C1   98   0.514   2.438  13.656
    7TCq1    O2   99   0.461   2.549  13.642
    7TCq1    C2  100   0.437   2.316  13.679
    7TCq1    C3  101   0.307   2.342  13.704
    7TCq1    C4  102   0.230   2.233  13.748
    7TCq1    C5  103   0.285   2.109  13.754
    7TCq1    C6  104   0.409   2.090  13.710
    7TCq1    C7  105   0.494   2.193  13.672
    7TCq1    C8  106   0.448   1.951  13.695
    7TCq1    O4  107   0.393   1.884  13.780
    7TCq1    C9  108   0.103   2.262  13.806
    7TCq1    O5  109   0.051   2.374  13.789
    7TCq1    O6  110   0.054   2.165  13.875
    7TCq1    H1  111   0.682   2.330  13.675
    7TCq1    H2  112   0.266   2.443  13.709
    7TCq1    H3  113   0.223   2.027  13.787
    7TCq1    H4  114   0.593   2.170  13.635
    8MPD2     C  115   0.776   1.562  13.621
    8MPD2    C1  116   0.667   1.570  13.701
    8MPD2    C2  117   0.587   1.683  13.706
    8MPD2    C3  118   0.627   1.796  13.630
    8MPD2    C4  119   0.741   1.786  13.554
    8MPD2    C5  120   0.815   1.672  13.548
    8MPD2     H  121   0.503   1.686  13.775
    8MPD2    H1  122   0.772   1.876  13.502
    8MPD2    H2  123   0.828   1.467  13.609
    8MPD2    H3  124   0.898   1.676  13.479
    8MPD2     N  125   0.565   1.924  13.624
    8MPD2    H5  126   0.605   1.994  13.563
    8MPD2    N1  127   0.643   1.451  13.771
    8MPD2    H7  128   0.718   1.393  13.806
    9TCq1    O1  129   2.694   1.243  11.215
    9TCq1    C1  130   2.768   1.328  11.145
    9TCq1    O2  131   2.743   1.359  11.030
    9TCq1    C2  132   2.818   1.427  11.241
    9TCq1    C3  133   2.822   1.554  11.194
    9TCq1    C4  134   2.849   1.654  11.278
    9TCq1    C5  135   2.885   1.631  11.409
    9TCq1    C6  136   2.877   1.499  11.445
    9TCq1    C7  137   2.835   1.397  11.370
    9TCq1    C8  138   2.913   1.476  11.579
    9TCq1    O4  139   2.987   1.555  11.631
    9TCq1    C9  140   2.866   1.787  11.228
    9TCq1    O5  141   2.885   1.868  11.317
    9TCq1    O6  142   2.905   1.805  11.108
    9TCq1    H1  143   2.732   1.227  11.305
    9TCq1    H2  144   2.806   1.567  11.088
    9TCq1    H3  145   2.922   1.705  11.480
    9TCq1    H4  146   2.830   1.293  11.402
   10MPD2     C  147   2.973   1.378  11.849
   10MPD2    C1  148   2.888   1.319  11.769
   10MPD2    C2  149   2.819   1.205  11.811
   10MPD2    C3  150   2.838   1.146  11.935
   10MPD2    C4  151   2.941   1.198  12.013
   10MPD2    C5  152   3.005   1.317  11.972
   10MPD2     H  153   2.737   1.163  11.753
   10MPD2    H1  154   2.949   1.156  12.112
   10MPD2    H2  155   3.025   1.471  11.830
   10MPD2    H3  156   3.069   1.367  12.044
   10MPD2     N  157   2.760   1.048  12.001
   10MPD2    H5  158   2.791   1.038  12.097
   10MPD2    N1  159   2.857   1.368  11.637
   10MPD2    H7  160   2.794   1.310  11.582
   11TCq1    O1  161   4.333   0.405  14.412
   11TCq1    C1  162   4.262   0.337  14.503
   11TCq1    O2  163   4.200   0.233  14.486
   11TCq1    C2  164   4.207   0.434  14.597
   11TCq1    C3  165   4.297   0.499  14.683
   11TCq1    C4  166   4.252   0.533  14.811
   11TCq1    C5  167   4.121   0.504  14.850
   11TCq1    C6  168   4.041   0.434  14.764
   11TCq1    C7  169   4.080   0.400  14.637
   11TCq1    C8  170   3.898   0.400  14.796
   11TCq1    O4  171   3.852   0.457  14.896
   11TCq1    C9  172   4.337   0.607  14.897
   11TCq1    O5  173   4.440   0.660  14.837
   11TCq1    O6  174   4.304   0.613  15.017
   11TCq1    H1  175   4.338   0.500  14.433
   11TCq1    H2  176   4.399   0.522  14.654
   11TCq1    H3  177   4.083   0.537  14.946
   11TCq1    H4  178   4.019   0.347  14.565
   12MPD2     C  179   3.608   0.357  14.763
   12MPD2    C1  180   3.701   0.277  14.707
   12MPD2    C2  181   3.663   0.173  14.628
   12MPD2    C3  182   3.527   0.150  14.599
   12MPD2    C4  183   3.439   0.249  14.633
   12MPD2    C5  184   3.477   0.345  14.721
   12MPD2     H  185   3.736   0.100  14.594
   12MPD2    H1  186   3.336   0.245  14.599
   12MPD2    H2  187   3.627   0.441  14.829
   12MPD2    H3  188   3.415   0.421  14.768
   12MPD2     N  189   3.491   0.042  14.514
   12MPD2    H5  190   3.410   0.057  14.455
   12MPD2    N1  191   3.844   0.303  14.712
   12MPD2    H7  192   3.918   0.253  14.663
   13TCq1    O1  193   3.431   1.328  11.283
   13TCq1    C1  194   3.485   1.251  11.185
   13TCq1    O2  195   3.602   1.219  11.175
   13TCq1    C2  196   3.386   1.227  11.083
   13TCq1    C3  197   3.439   1.182  10.964
   13TCq1    C4  198   3.350   1.149  10.865
   13TCq1    C5  199   3.217   1.140  10.886
   13TCq1    C6  200   3.172   1.170  11.011
   13TCq1    C7  201   3.255   1.214  11.114
   13TCq1    C8  202   3.044   1.101  11.056
   13TCq1    O4  203   3.006   1.128  11.171
   13TCq1    C9  204   3.404   1.116  10.734
   13TCq1    O5  205   3.526   1.143  10.710
   13TCq1    O6  206   3.327   1.053  10.657
   13TCq1    H1  207   3.339   1.352  11.257
   13TCq1    H2  208   3.545   1.196  10.945
   13TCq1    H3  209   3.147   1.125  10.805
   13TCq1    H4  210   3.216   1.228  11.215
   14MPD2     C  211   2.887   0.814  10.897
   14MPD2    C1  212   2.906   0.914  10.994
   14MPD2    C2  213   2.812   0.930  11.095
   14MPD2    C3  214   2.700   0.841  11.108
   14MPD2    C4  215   2.695   0.734  11.022
   14MPD2    C5  216   2.784   0.724  10.916
   14MPD2     H  217   2.816   1.019  11.156
   14MPD2    H1  218   2.610   0.666  11.030
   14MPD2    H2  219   2.964   0.787  10.825
   14MPD2    H3  220   2.763   0.644  10.846
   14MPD2     N  221   2.611   0.860  11.210
   14MPD2    H5  222   2.633   0.934  11.275
   14MPD2    N1  223   3.010   0.996  10.974
   14MPD2    H7  224   3.058   0.992  10.885
   15TCq1    O1  225   0.019   3.348  20.153
   15TCq1    C1  226   0.099   3.428  20.231
   15TCq1    O2  227   0.071   3.450  20.348
   15TCq1    C2  228   0.213   3.473  20.150
   15TCq1    C3  229   0.320   3.499  20.224
   15TCq1    C4  230   0.432   3.563  20.172
   15TCq1    C5  231   0.437   3.598  20.041
   15TCq1    C6  232   0.322   3.573  19.961
   15TCq1    C7  233   0.209   3.517  20.020
   15TCq1    C8  234   0.326   3.604  19.816
   15TCq1    O4  235   0.433   3.638  19.774
   15TCq1    C9  236   0.549   3.587  20.256
   15TCq1    O5  237   0.635   3.657  20.201
   15TCq1    O6  238   0.551   3.531  20.369
   15TCq1    H1  239   0.051   3.338  20.061
   15TCq1    H2  240   0.310   3.478  20.330
   15TCq1    H3  241   0.524   3.645  19.996
   15TCq1    H4  242   0.132   3.481  19.953
   16MPD2     C  243   0.038   3.620  19.577
   16MPD2    C1  244   0.174   3.605  19.616
   16MPD2    C2  245   0.269   3.597  19.525
   16MPD2    C3  246   0.237   3.615  19.390
   16MPD2    C4  247   0.108   3.642  19.348
   16MPD2    C5  248   0.009   3.633  19.445
   16MPD2     H  249   0.371   3.566  19.545
   16MPD2    H1  250   0.072   3.666  19.249
   16MPD2    H2  251   4.744   3.641  19.651
   16MPD2    H3  252   4.697   3.678  19.418
   16MPD2     N  253   0.344   3.619  19.304
   16MPD2    H5  254   0.435   3.613  19.348
   16MPD2    N1  255   0.198   3.600  19.755
   16MPD2    H7  256   0.117   3.605  19.816
   17TCq1    O1  257   2.442   0.166  11.792
   17TCq1    C1  258   2.477   0.054  11.736
   17TCq1    O2  259   2.412   4.736  11.757
   17TCq1    C2  260   2.624   0.060  11.715
   17TCq1    C3  261   2.694   4.724  11.723
   17TCq1    C4  262   2.823   4.729  11.678
   17TCq1    C5  263   2.889   0.056  11.641
   17TCq1    C6  264   2.812   0.174  11.631
   17TCq1    C7  265   2.678   0.181  11.674
   17TCq1    C8  266   2.876   0.299  11.588
   17TCq1    O4  267   2.803   0.399  11.584
   17TCq1    C9  268   2.899   4.604  11.682
   17TCq1    O5  269   3.021   4.611  11.657
   17TCq1    O6  270   2.835   4.499  11.704
   17TCq1    H1  271   2.500   0.243  11.775
   17TCq1    H2  272   2.653   4.629  11.753
   17TCq1    H3  273   2.989   0.045  11.600
   17TCq1    H4  274   2.621   0.271  11.653
   18MPD2     C  275   3.065   0.520  11.527
   18MPD2    C1  276   3.102   0.384  11.532
   18MPD2    C2  277   3.230   0.343  11.497
   18MPD2    C3  278   3.320   0.440  11.462
   18MPD2    C4  279   3.281   0.577  11.476
   18MPD2    C5  280   3.156   0.619  11.507
   18MPD2     H  281   3.233   0.235  11.488
   18MPD2    H1  282   3.366   0.641  11.459
   18MPD2    H2  283   2.967   0.549  11.562
   18MPD2    H3  284   3.127   0.723  11.516
   18MPD2     N  285   3.459   0.417  11.424
   18MPD2    H5  286   3.516   0.493  11.390
   18MPD2    N1  287   3.009   0.286  11.571
   18MPD2    H7  288   3.056   0.199  11.591
   19TMC2    C1  289   0.116   0.266  14.184
   19TMC2    C2  290   0.057   0.380  14.136
   19TMC2    C3  291   4.704   0.399  14.160
   19TMC2    C4  292   0.042   0.165  14.249
   19TMC2    C5  293   4.688   0.187  14.256
   19TMC2    C6  294   4.625   0.298  14.210
   19TMC2     C  295   0.258   0.276  14.193
   19TMC2     O  296   0.317   0.340  14.104
   19TMC2     H  297   0.117   0.451  14.080
   19TMC2    H1  298   0.078   0.069  14.282
   19TMC2    H2  299   4.518   0.317  14.215
   19TMC2    C7  300   4.618   0.069  14.298
   19TMC2    C8  301   4.638   0.489  14.070
   19TMC2    O1  302   4.679   4.767  14.364
   19TMC2    O2  303   4.535   0.467  14.009
   19TMC2    O5  304   4.694   0.610  14.075
   19TMC2    H5  305   4.754   0.612  14.152
   20MPD2     C  306   0.543   0.246  14.244
   20MPD2    C1  307   0.444   0.192  14.326
   20MPD2    C2  308   0.487   0.125  14.437
   20MPD2    C3  309   0.617   0.095  14.457
   20MPD2    C4  310   0.709   0.147  14.376
   20MPD2    C5  311   0.673   0.225  14.271
   20MPD2     H  312   0.406   0.098  14.503
   20MPD2    H1  313   0.813   0.121  14.391
   20MPD2    H2  314   0.533   0.314  14.160
   20MPD2    H3  315   0.744   0.271  14.203
   20MPD2     N  316   0.661   0.017  14.556
   20MPD2    H5  317   0.761   0.015  14.576
   20MPD2    N1  318   0.309   0.216  14.305
   20MPD2    H7  319   0.240   0.185  14.373
   21TMC2    C1  320   2.127   0.438  14.453
   21TMC2    C2  321   2.224   0.338  14.443
   21TMC2    C3  322   2.263   0.270  14.558
   21TMC2    C4  323   2.071   0.470  14.574
   21TMC2    C5  324   2.120   0.406  14.683
   21TMC2    C6  325   2.201   0.298  14.675
   21TMC2     C  326   2.123   0.523  14.337
   21TMC2     O  327   2.080   0.469  14.237
   21TMC2     H  328   2.270   0.330  14.345
   21TMC2    H1  329   1.989   0.542  14.571
   21TMC2    H2  330   2.243   0.255  14.765
   21TMC2    C7  331   2.108   0.489  14.805
   21TMC2    C8  332   2.358   0.158  14.563
   21TMC2    O1  333   2.151   0.441  14.908
   21TMC2    O2  334   2.366   0.087  14.663
   21TMC2    O5  335   2.396   0.118  14.438
   21TMC2    H5  336   2.416   0.198  14.385
   22MPD2     C  337   2.320   0.895  14.654
   22MPD2    C1  338   2.354   0.757  14.649
   22MPD2    C2  339   2.296   0.678  14.544
   22MPD2    C3  340   2.206   0.730  14.464
   22MPD2    C4  341   2.177   0.864  14.472
   22MPD2    C5  342   2.237   0.950  14.560
   22MPD2     H  343   2.341   0.579  14.538
   22MPD2    H1  344   2.093   0.898  14.413
   22MPD2    H2  345   2.353   0.956  14.737
   22MPD2    H3  346   2.216   1.056  14.564
   22MPD2     N  347   2.143   0.654  14.355
   22MPD2    H5  348   2.115   0.707  14.273
   22MPD2    N1  349   2.425   0.686  14.744
   22MPD2    H7  350   2.450   0.591  14.718
   23TMC2    C1  351   3.323   1.773  14.621
   23TMC2    C2  352   3.310   1.911  14.627
   23TMC2    C3  353   3.181   1.956  14.617
   23TMC2    C4  354   3.217   1.684  14.610
   23TMC2    C5  355   3.090   1.734  14.593
   23TMC2    C6  356   3.073   1.873  14.599
   23TMC2     C  357   3.428   1.719  14.703
   23TMC2     O  358   3.412   1.606  14.747
   23TMC2     H  359   3.399   1.973  14.625
   23TMC2    H1  360   3.230   1.576  14.608
   23TMC2    H2  361   2.975   1.913  14.574
   23TMC2    C7  362   2.977   1.645  14.571
   23TMC2    C8  363   3.176   2.092  14.570
   23TMC2    O1  364   2.988   1.528  14.606
   23TMC2    O2  365   3.272   2.151  14.519
   23TMC2    O5  366   3.071   2.147  14.635
   23TMC2    H5  367   3.015   2.092  14.694
   24MPD2     C  368   3.890   1.689  14.909
   24MPD2    C1  369   3.770   1.655  14.962
   24MPD2    C2  370   3.651   1.679  14.892
   24MPD2    C3  371   3.662   1.753  14.773
   24MPD2    C4  372   3.783   1.789  14.723
   24MPD2    C5  373   3.899   1.766  14.797
   24MPD2     H  374   3.555   1.636  14.919
   24MPD2    H1  375   3.802   1.846  14.633
   24MPD2    H2  376   3.986   1.667  14.954
   24MPD2    H3  377   3.993   1.787  14.746
   24MPD2     N  378   3.548   1.786  14.699
   24MPD2    H5  379   3.554   1.855  14.625
   24MPD2    N1  380   3.760   1.598  15.089
   24MPD2    H7  381   3.678   1.607  15.147
   25TMC2    C1  382   2.529   3.904  12.217
   25TMC2    C2  383   2.502   3.854  12.347
   25TMC2    C3  384   2.497   3.948  12.447
   25TMC2    C4  385   2.542   4.039  12.197
   25TMC2    C5  386   2.522   4.123  12.304
   25TMC2    C6  387   2.512   4.079  12.427
   25TMC2     C  388   2.564   3.816  12.101
   25TMC2     O  389   2.611   3.866  11.998
   25TMC2     H  390   2.493   3.747  12.361
   25TMC2    H1  391   2.560   4.072  12.095
   25TMC2    H2  392   2.493   4.155  12.502
   25TMC2    C7  393   2.502   4.261  12.285
   25TMC2    C8  394   2.433   3.914  12.574
   25TMC2    O1  395   2.606   4.322  12.280
   25TMC2    O2  396   2.356   3.992  12.629
   25TMC2    O5  397   2.416   3.781  12.584
   25TMC2    H5  398   2.502   3.742  12.559
   26MPD2     C  399   2.568   3.384  11.825
   26MPD2    C1  400   2.454   3.392  11.902
   26MPD2    C2  401   2.439   3.488  12.004
   26MPD2    C3  402   2.532   3.586  12.015
   26MPD2    C4  403   2.643   3.582  11.939
   26MPD2    C5  404   2.659   3.486  11.845
   26MPD2     H  405   2.348   3.501  12.060
   26MPD2    H1  406   2.724   3.654  11.953
   26MPD2    H2  407   2.582   3.305  11.752
   26MPD2    H3  408   2.747   3.497  11.783
   26MPD2     N  409   2.510   3.689  12.104
   26MPD2    H5  410   2.419   3.676  12.148
   26MPD2    N1  411   2.347   3.309  11.865
   26MPD2    H7  412   2.366   3.269  11.774
   27TMC2    C1  413   1.377   1.546  12.507
   27TMC2    C2  414   1.302   1.658  12.512
   27TMC2    C3  415   1.371   1.778  12.503
   27TMC2    C4  416   1.512   1.542  12.471
   27TMC2    C5  417   1.575   1.662  12.453
   27TMC2    C6  418   1.503   1.781  12.476
   27TMC2     C  419   1.339   1.425  12.577
   27TMC2     O  420   1.418   1.331  12.570
   27TMC2     H  421   1.197   1.658  12.540
   27TMC2    H1  422   1.567   1.449  12.464
   27TMC2    H2  423   1.554   1.877  12.479
   27TMC2    C7  424   1.715   1.666  12.506
   27TMC2    C8  425   1.299   1.900  12.544
   27TMC2    O1  426   1.786   1.612  12.428
   27TMC2    O2  427   1.349   1.991  12.614
   27TMC2    O5  428   1.184   1.913  12.463
   27TMC2    H5  429   1.153   1.837  12.409
   28MPD2     C  430   1.027   1.135  12.871
   28MPD2    C1  431   0.989   1.266  12.886
   28MPD2    C2  432   1.059   1.362  12.817
   28MPD2    C3  433   1.163   1.337  12.727
   28MPD2    C4  434   1.199   1.206  12.708
   28MPD2    C5  435   1.132   1.108  12.783
   28MPD2     H  436   1.037   1.466  12.840
   28MPD2    H1  437   1.278   1.171  12.643
   28MPD2    H2  438   0.984   1.046  12.916
   28MPD2    H3  439   1.155   1.004  12.765
   28MPD2     N  440   1.226   1.441  12.661
   28MPD2    H5  441   1.190   1.534  12.682
   28MPD2    N1  442   0.893   1.295  12.989
   28MPD2    H7  443   0.862   1.215  13.044
   29TMC2    C1  444   0.727   3.774  14.829
   29TMC2    C2  445   0.714   3.763  14.966
   29TMC2    C3  446   0.753   3.870  15.040
   29TMC2    C4  447   0.753   3.885  14.763
   29TMC2    C5  448   0.790   3.994  14.840
   29TMC2    C6  449   0.796   3.986  14.977
   29TMC2     C  450   0.704   3.647  14.755
   29TMC2     O  451   0.741   3.546  14.813
   29TMC2     H  452   0.702   3.668  15.016
   29TMC2    H1  453   0.760   3.891  14.655
   29TMC2    H2  454   0.850   4.065  15.029
   29TMC2    C7  455   0.850   4.113  14.773
   29TMC2    C8  456   0.716   3.885  15.178
   29TMC2    O1  457   0.825   4.122  14.653
   29TMC2    O2  458   0.778   3.950  15.260
   29TMC2    O5  459   0.615   3.802  15.200
   29TMC2    H5  460   0.566   3.793  15.115
   30MPD2     C  461   0.589   3.389  14.324
   30MPD2    C1  462   0.663   3.354  14.440
   30MPD2    C2  463   0.684   3.443  14.541
   30MPD2    C3  464   0.636   3.570  14.531
   30MPD2    C4  465   0.563   3.601  14.419
   30MPD2    C5  466   0.547   3.516  14.316
   30MPD2     H  467   0.742   3.419  14.629
   30MPD2    H1  468   0.523   3.701  14.413
   30MPD2    H2  469   0.590   3.327  14.235
   30MPD2    H3  470   0.492   3.542  14.227
   30MPD2     N  471   0.653   3.671  14.631
   30MPD2    H5  472   0.632   3.762  14.591
   30MPD2    N1  473   0.729   3.236  14.456
   30MPD2    H7  474   0.789   3.232  14.538
   31TMC2    C1  475   3.278   2.281  15.781
   31TMC2    C2  476   3.150   2.335  15.782
   31TMC2    C3  477   3.090   2.384  15.891
   31TMC2    C4  478   3.349   2.287  15.901
   31TMC2    C5  479   3.283   2.327  16.009
   31TMC2    C6  480   3.160   2.380  16.006
   31TMC2     C  481   3.346   2.277  15.652
   31TMC2     O  482   3.276   2.294  15.553
   31TMC2     H  483   3.097   2.341  15.688
   31TMC2    H1  484   3.449   2.247  15.914
   31TMC2    H2  485   3.103   2.407  16.094
   31TMC2    C7  486   3.358   2.338  16.141
   31TMC2    C8  487   2.947   2.355  15.904
   31TMC2    O1  488   3.439   2.250  16.163
   31TMC2    O2  489   2.886   2.300  15.996
   31TMC2    O5  490   2.898   2.424  15.799
   31TMC2    H5  491   2.964   2.481  15.754
   32MPD2     C  492   3.757   2.442  15.395
   32MPD2    C1  493   3.624   2.458  15.363
   32MPD2    C2  494   3.534   2.399  15.448
   32MPD2    C3  495   3.571   2.342  15.566
   32MPD2    C4  496   3.707   2.340  15.603
   32MPD2    C5  497   3.793   2.394  15.515
   32MPD2     H  498   3.428   2.402  15.426
   32MPD2    H1  499   3.741   2.289  15.692
   32MPD2    H2  500   3.833   2.478  15.327
   32MPD2    H3  501   3.900   2.388  15.530
   32MPD2     N  502   3.480   2.280  15.662
   32MPD2    H5  503   3.520   2.218  15.732
   32MPD2    N1  504   3.601   2.512  15.233
   32MPD2    H7  505   3.683   2.554  15.190
   33MPD2     C  506   3.970   0.446  10.760
   33MPD2    C1  507   3.841   0.436  10.814
   33MPD2    C2  508   3.731   0.475  10.746
   33MPD2    C3  509   3.743   0.510  10.607
   33MPD2    C4  510   3.871   0.505  10.551
   33MPD2    C5  511   3.985   0.484  10.627
   33MPD2     H  512   3.635   0.486  10.795
   33MPD2    H1  513   3.886   0.537  10.449
   33MPD2    H2  514   4.057   0.432  10.822
   33MPD2    H3  515   4.081   0.492  10.578
   33MPD2     N  516   3.636   0.537  10.522
   33MPD2    H5  517   3.656   0.595  10.442
   33MPD2    N1  518   3.840   0.399  10.953
   33MPD2    H7  519   3.932   0.385  10.992
   34TCq2    C1  520   3.499   0.535  10.564
   34TCq2    O2  521   3.445   0.508  10.667
   34TCq2    C2  522   3.412   0.571  10.454
   34TCq2    C3  523   3.282   0.532  10.448
   34TCq2    C4  524   3.205   0.569  10.342
   34TCq2    C5  525   3.255   0.664  10.248
   34TCq2    C6  526   3.384   0.710  10.267
   34TCq2    C7  527   3.465   0.659  10.367
   34TCq2    C8  528   3.445   0.812  10.181
   34TCq2    O4  529   3.566   0.811  10.180
   34TCq2    C9  530   3.073   0.505  10.326
   34TCq2    O5  531   2.993   0.545  10.235
   34TCq2    O6  532   3.044   0.408  10.406
   34TCq2    H2  533   3.250   0.450  10.512
   34TCq2    H3  534   3.191   0.695  10.166
   34TCq2    H4  535   3.564   0.703  10.371
   35TMC2    C1  536   4.579   1.870  12.059
   35TMC2    C2  537   4.474   1.955  12.053
   35TMC2    C3  538   4.346   1.903  12.077
   35TMC2    C4  539   4.560   1.734  12.099
   35TMC2    C5  540   4.433   1.693  12.119
   35TMC2    C6  541   4.323   1.771  12.103
   35TMC2     C  542   4.706   1.902  12.006
   35TMC2     O  543   4.705   1.989  11.917
   35TMC2     H  544   4.489   2.051  12.006
   35TMC2    H1  545   4.644   1.666  12.105
   35TMC2    H2  546   4.220   1.740  12.112
   35TMC2    C7  547   4.405   1.555  12.144
   35TMC2    C8  548   4.236   1.978  12.014
   35TMC2    O1  549   4.306   1.502  12.095
   35TMC2    O2  550   4.129   1.927  11.993
   35TMC2    O5  551   4.259   2.113  12.028
   35TMC2    H5  552   4.346   2.156  12.042
   36MPD2     C  553   0.410   2.015  12.077
   36MPD2    C1  554   0.384   1.901  12.155
   36MPD2    C2  555   0.261   1.840  12.144
   36MPD2    C3  556   0.161   1.899  12.069
   36MPD2    C4  557   0.199   1.991  11.977
   36MPD2    C5  558   0.324   2.055  11.983
   36MPD2     H  559   0.241   1.742  12.184
   36MPD2    H1  560   0.126   2.029  11.907
   36MPD2    H2  561   0.508   2.061  12.082
   36MPD2    H3  562   0.353   2.133  11.913
   36MPD2     N  563   0.027   1.850  12.078
   36MPD2    H5  564   0.005   1.777  12.146
   36MPD2    N1  565   0.496   1.855  12.227
   36MPD2    H7  566   0.588   1.879  12.191
   37TMC2    C1  567   2.550   1.526  12.680
   37TMC2    C2  568   2.429   1.461  12.645
   37TMC2    C3  569   2.398   1.451  12.511
   37TMC2    C4  570   2.614   1.602  12.584
   37TMC2    C5  571   2.564   1.598  12.457
   37TMC2    C6  572   2.470   1.507  12.409
   37TMC2     C  573   2.563   1.570  12.819
   37TMC2     O  574   2.463   1.585  12.888
   37TMC2     H  575   2.370   1.402  12.715
   37TMC2    H1  576   2.693   1.670  12.614
   37TMC2    H2  577   2.421   1.519  12.313
   37TMC2    C7  578   2.624   1.675  12.348
   37TMC2    C8  579   2.264   1.405  12.478
   37TMC2    O1  580   2.679   1.780  12.376
   37TMC2    O2  581   2.179   1.381  12.563
   37TMC2    O5  582   2.257   1.359  12.347
   37TMC2    H5  583   2.325   1.391  12.285
   38MPD2     C  584   2.824   1.782  13.207
   38MPD2    C1  585   2.919   1.708  13.132
   38MPD2    C2  586   2.869   1.653  13.014
   38MPD2    C3  587   2.737   1.668  12.970
   38MPD2    C4  588   2.650   1.748  13.044
   38MPD2    C5  589   2.698   1.813  13.157
   38MPD2     H  590   2.942   1.587  12.969
   38MPD2    H1  591   2.548   1.762  13.012
   38MPD2    H2  592   2.854   1.829  13.300
   38MPD2    H3  593   2.637   1.873  13.224
   38MPD2     N  594   2.693   1.597  12.853
   38MPD2    H5  595   2.773   1.565  12.800
   38MPD2    N1  596   3.044   1.676  13.188
   38MPD2    H7  597   3.097   1.611  13.131
   39TMC2    C1  598   0.582   3.210  19.977
   39TMC2    C2  599   0.510   3.201  20.097
   39TMC2    C3  600   0.580   3.163  20.210
   39TMC2    C4  601   0.720   3.206  19.967
   39TMC2    C5  602   0.783   3.182  20.091
   39TMC2    C6  603   0.715   3.156  20.210
   39TMC2     C  604   0.498   3.263  19.864
   39TMC2     O  605   0.377   3.243  19.880
   39TMC2     H  606   0.402   3.208  20.094
   39TMC2    H1  607   0.776   3.218  19.874
   39TMC2    H2  608   0.764   3.137  20.305
   39TMC2    C7  609   0.926   3.185  20.092
   39TMC2    C8  610   0.520   3.186  20.343
   39TMC2    O1  611   0.982   3.110  20.172
   39TMC2    O2  612   0.592   3.221  20.440
   39TMC2    O5  613   0.389   3.201  20.339
   39TMC2    H5  614   0.345   3.151  20.267
   40MPD2     C  615   0.608   3.315  19.520
   40MPD2    C1  616   0.519   3.290  19.625
   40MPD2    C2  617   0.381   3.274  19.594
   40MPD2    C3  618   0.347   3.267  19.462
   40MPD2    C4  619   0.440   3.286  19.356
   40MPD2    C5  620   0.569   3.310  19.387
   40MPD2     H  621   0.309   3.258  19.674
   40MPD2    H1  622   0.416   3.269  19.251
   40MPD2    H2  623   0.709   3.342  19.549
   40MPD2    H3  624   0.646   3.333  19.314
   40MPD2     N  625   0.209   3.250  19.420
   40MPD2    H5  626   0.195   3.255  19.319
   40MPD2    N1  627   0.577   3.289  19.756
   40MPD2    H7  628   0.672   3.320  19.771
   41TMC2    C1  629   4.375   1.840  14.227
   41TMC2    C2  630   4.295   1.912  14.317
   41TMC2    C3  631   4.245   2.028  14.275
   41TMC2    C4  632   4.399   1.879  14.099
   41TMC2    C5  633   4.331   1.991  14.060
   41TMC2    C6  634   4.263   2.072  14.145
   41TMC2     C  635   4.446   1.715  14.271
   41TMC2     O  636   4.519   1.663  14.190
   41TMC2     H  637   4.275   1.871  14.416
   41TMC2    H1  638   4.466   1.832  14.028
   41TMC2    H2  639   4.222   2.169  14.116
   41TMC2    C7  640   4.396   2.067  13.954
   41TMC2    C8  641   4.148   2.096  14.360
   41TMC2    O1  642   4.418   2.182  13.985
   41TMC2    O2  643   4.073   2.040  14.439
   41TMC2    O5  644   4.191   2.227  14.373
   41TMC2    H5  645   4.267   2.254  14.316
   42MPD2     C  646   4.578   1.495  14.418
   42MPD2    C1  647   4.477   1.567  14.464
   42MPD2    C2  648   4.433   1.536  14.590
   42MPD2    C3  649   4.503   1.435  14.661
   42MPD2    C4  650   4.615   1.374  14.618
   42MPD2    C5  651   4.645   1.401  14.486
   42MPD2     H  652   4.347   1.578  14.640
   42MPD2    H1  653   4.671   1.302  14.676
   42MPD2    H2  654   4.608   1.505  14.314
   42MPD2    H3  655   4.739   1.358  14.452
   42MPD2     N  656   4.468   1.397  14.793
   42MPD2    H5  657   4.523   1.325  14.840
   42MPD2    N1  658   4.418   1.678  14.400
   42MPD2    H7  659   4.340   1.725  14.444
   43TMC2    C1  660   0.833   0.153  19.403
   43TMC2    C2  661   0.715   0.223  19.409
   43TMC2    C3  662   0.717   0.348  19.458
   43TMC2    C4  663   0.951   0.202  19.448
   43TMC2    C5  664   0.949   0.336  19.488
   43TMC2    C6  665   0.837   0.410  19.493
   43TMC2     C  666   0.850   0.030  19.326
   43TMC2     O  667   0.949   4.744  19.347
   43TMC2     H  668   0.616   0.184  19.386
   43TMC2    H1  669   1.049   0.156  19.445
   43TMC2    H2  670   0.853   0.515  19.516
   43TMC2    C7  671   1.075   0.401  19.485
   43TMC2    C8  672   0.587   0.413  19.474
   43TMC2    O1  673   1.147   0.370  19.389
   43TMC2    O2  674   0.479   0.375  19.445
   43TMC2    O5  675   0.604   0.514  19.555
   43TMC2    H5  676   0.693   0.551  19.575
   44MPD2     C  677   0.788   4.588  18.865
   44MPD2    C1  678   0.904   4.618  18.936
   44MPD2    C2  679   0.898   4.687  19.054
   44MPD2    C3  680   0.771   4.723  19.108
   44MPD2    C4  681   0.666   4.702  19.028
   44MPD2    C5  682   0.667   4.628  18.914
   44MPD2     H  683   0.991   4.703  19.109
   44MPD2    H1  684   0.571   4.734  19.070
   44MPD2    H2  685   0.791   4.514  18.785
   44MPD2    H3  686   0.572   4.605  18.867
   44MPD2     N  687   0.749   0.012  19.226
   44MPD2    H5  688   0.663   0.066  19.225
   44MPD2    N1  689   1.033   4.583  18.890
   44MPD2    H7  690   1.117   4.603  18.944
   45TMC2    C1  691   1.683   1.776   9.939
   45TMC2    C2  692   1.705   1.792   9.800
   45TMC2    C3  693   1.797   1.887   9.772
   45TMC2    C4  694   1.737   1.844  10.040
   45TMC2    C5  695   1.836   1.939   9.998
   45TMC2    C6  696   1.854   1.967   9.867
   45TMC2     C  697   1.599   1.667   9.981
   45TMC2     O  698   1.626   1.630  10.095
   45TMC2     H  699   1.650   1.725   9.734
   45TMC2    H1  700   1.703   1.830  10.142
   45TMC2    H2  701   1.923   2.045   9.838
   45TMC2    C7  702   1.883   2.040  10.091
   45TMC2    C8  703   1.814   1.926   9.638
   45TMC2    O1  704   1.897   2.003  10.207
   45TMC2    O2  705   1.916   1.966   9.590
   45TMC2    O5  706   1.707   1.891   9.569
   45TMC2    H5  707   1.621   1.897   9.616
   46MPD2     C  708   1.386   1.465  10.009
   46MPD2    C1  709   1.372   1.589   9.944
   46MPD2    C2  710   1.255   1.616   9.884
   46MPD2    C3  711   1.142   1.532   9.898
   46MPD2    C4  712   1.162   1.411   9.950
   46MPD2    C5  713   1.280   1.375  10.004
   46MPD2     H  714   1.233   1.716   9.849
   46MPD2    H1  715   1.080   1.342   9.962
   46MPD2    H2  716   1.479   1.437  10.056
   46MPD2    H3  717   1.284   1.278  10.052
   46MPD2     N  718   1.019   1.586   9.847
   46MPD2    H5  719   1.027   1.683   9.819
   46MPD2    N1  720   1.480   1.669   9.918
   46MPD2    H7  721   1.473   1.741   9.847
   47TMC2    C1  722   3.739   2.942   9.194
   47TMC2    C2  723   3.811   2.865   9.111
   47TMC2    C3  724   3.733   2.794   9.024
   47TMC2    C4  725   3.609   2.955   9.204
   47TMC2    C5  726   3.539   2.894   9.104
   47TMC2    C6  727   3.600   2.808   9.014
   47TMC2     C  728   3.818   3.006   9.301
   47TMC2     O  729   3.769   3.098   9.368
   47TMC2     H  730   3.919   2.871   9.104
   47TMC2    H1  731   3.571   3.025   9.278
   47TMC2    H2  732   3.543   2.763   8.933
   47TMC2    C7  733   3.400   2.913   9.084
   47TMC2    C8  734   3.797   2.704   8.930
   47TMC2    O1  735   3.341   2.839   9.001
   47TMC2    O2  736   3.770   2.686   8.813
   47TMC2    O5  737   3.924   2.683   8.975
   47TMC2    H5  738   3.917   2.691   9.073
   48MPD2     C  739   4.006   3.062   9.522
   48MPD2    C1  740   4.009   2.946   9.446
   48MPD2    C2  741   4.099   2.850   9.483
   48MPD2    C3  742   4.174   2.863   9.592
   48MPD2    C4  743   4.186   2.986   9.655
   48MPD2    C5  744   4.097   3.086   9.617
   48MPD2     H  745   4.096   2.755   9.432
   48MPD2    H1  746   4.252   3.002   9.740
   48MPD2    H2  747   3.936   3.141   9.494
   48MPD2    H3  748   4.092   3.178   9.674
   48MPD2     N  749   4.254   2.755   9.633
   48MPD2    H5  750   4.231   2.665   9.592
   48MPD2    N1  751   3.927   2.931   9.335
   48MPD2    H7  752   3.930   2.851   9.273
   49TMC2    C1  753   2.367   0.131  10.172
   49TMC2    C2  754   2.344   0.201  10.056
   49TMC2    C3  755   2.265   0.150   9.962
   49TMC2    C4  756   2.304   0.009  10.192
   49TMC2    C5  757   2.218   4.747  10.097
   49TMC2    C6  758   2.192   0.036   9.985
   49TMC2     C  759   2.452   0.177  10.278
   49TMC2     O  760   2.524   0.271  10.247
   49TMC2     H  761   2.381   0.303  10.053
   49TMC2    H1  762   2.333   4.728  10.275
   49TMC2    H2  763   2.112   4.779   9.924
   49TMC2    C7  764   2.147   4.616  10.114
   49TMC2    C8  765   2.242   0.219   9.841
   49TMC2    O1  766   2.093   4.579  10.014
   49TMC2    O2  767   2.163   0.179   9.761
   49TMC2    O5  768   2.351   0.293   9.807
   49TMC2    H5  769   2.428   0.299   9.867
   50MPD2     C  770   2.620   0.226  10.529
   50MPD2    C1  771   2.493   0.163  10.524
   50MPD2    C2  772   2.439   0.117  10.645
   50MPD2    C3  773   2.493   0.153  10.764
   50MPD2    C4  774   2.613   0.225  10.771
   50MPD2    C5  775   2.683   0.250  10.654
   50MPD2     H  776   2.337   0.080  10.637
   50MPD2    H1  777   2.659   0.263  10.862
   50MPD2    H2  778   2.673   0.235  10.436
   50MPD2    H3  779   2.777   0.301  10.673
   50MPD2     N  780   2.430   0.129  10.890
   50MPD2    H5  781   2.481   0.144  10.976
   50MPD2    N1  782   2.423   0.132  10.402
   50MPD2    H7  783   2.344   0.070  10.417
   51TMC2    C1  784   2.587   3.711  19.171
   51TMC2    C2  785   2.605   3.789  19.278
   51TMC2    C3  786   2.591   3.924  19.262
   51TMC2    C4  787   2.561   3.764  19.053
   51TMC2    C5  788   2.542   3.906  19.045
   51TMC2    C6  789   2.557   3.984  19.149
   51TMC2     C  790   2.650   3.578  19.173
   51TMC2     O  791   2.697   3.543  19.275
   51TMC2     H  792   2.621   3.757  19.381
   51TMC2    H1  793   2.551   3.698  18.969
   51TMC2    H2  794   2.544   4.092  19.144
   51TMC2    C7  795   2.529   3.970  18.921
   51TMC2    C8  796   2.648   4.007  19.368
   51TMC2    O1  797   2.442   4.054  18.922
   51TMC2    O2  798   2.719   3.959  19.455
   51TMC2    O5  799   2.580   4.121  19.382
   51TMC2    H5  800   2.507   4.121  19.316
   52MPD2     C  801   3.021   3.307  18.942
   52MPD2    C1  802   3.002   3.323  19.073
   52MPD2    C2  803   2.893   3.397  19.113
   52MPD2    C3  804   2.792   3.435  19.021
   52MPD2    C4  805   2.811   3.399  18.890
   52MPD2    C5  806   2.928   3.343  18.852
   52MPD2     H  807   2.890   3.440  19.212
   52MPD2    H1  808   2.743   3.420  18.808
   52MPD2    H2  809   3.116   3.282  18.896
   52MPD2    H3  810   2.951   3.329  18.747
   52MPD2     N  811   2.687   3.529  19.046
   52MPD2    H5  812   2.639   3.559  18.961
   52MPD2    N1  813   3.116   3.327  19.160
   52MPD2    H7  814   3.125   3.387  19.242
   53TMC2    C1  815   2.911   2.162  11.858
   53TMC2    C2  816   2.873   2.250  11.758
   53TMC2    C3  817   2.847   2.378  11.796
   53TMC2    C4  818   2.942   2.207  11.983
   53TMC2    C5  819   2.936   2.339  12.011
   53TMC2    C6  820   2.877   2.426  11.920
   53TMC2     C  821   2.887   2.019  11.835
   53TMC2     O  822   2.865   1.985  11.721
   53TMC2     H  823   2.835   2.212  11.665
   53TMC2    H1  824   2.984   2.134  12.051
   53TMC2    H2  825   2.851   2.527  11.948
   53TMC2    C7  826   2.932   2.372  12.150
   53TMC2    C8  827   2.807   2.480  11.701
   53TMC2    O1  828   2.832   2.428  12.193
   53TMC2    O2  829   2.772   2.592  11.728
   53TMC2    O5  830   2.835   2.447  11.569
   53TMC2    H5  831   2.892   2.367  11.562
   54MPD2     C  832   2.761   1.744  11.851
   54MPD2    C1  833   2.776   1.833  11.962
   54MPD2    C2  834   2.736   1.789  12.089
   54MPD2    C3  835   2.663   1.664  12.100
   54MPD2    C4  836   2.669   1.575  11.993
   54MPD2    C5  837   2.711   1.617  11.870
   54MPD2     H  838   2.753   1.848  12.178
   54MPD2    H1  839   2.631   1.473  11.991
   54MPD2    H2  840   2.786   1.774  11.750
   54MPD2    H3  841   2.695   1.555  11.783
   54MPD2     N  842   2.625   1.610  12.227
   54MPD2    H5  843   2.561   1.533  12.218
   54MPD2    N1  844   2.832   1.963  11.950
   54MPD2    H7  845   2.856   1.997  12.043
   55TMC2    C1  846   4.234   4.337  17.972
   55TMC2    C2  847   4.185   4.345  17.846
   55TMC2    C3  848   4.164   4.224  17.788
   55TMC2    C4  849   4.253   4.217  18.039
   55TMC2    C5  850   4.208   4.100  17.985
   55TMC2    C6  851   4.175   4.097  17.849
   55TMC2     C  852   4.195   4.449  18.063
   55TMC2     O  853   4.160   4.423  18.178
   55TMC2     H  854   4.190   4.431  17.780
   55TMC2    H1  855   4.306   4.228  18.133
   55TMC2    H2  856   4.153   4.002  17.800
   55TMC2    C7  857   4.107   4.024  18.063
   55TMC2    C8  858   4.113   4.230  17.652
   55TMC2    O1  859   4.046   3.931  18.014
   55TMC2    O2  860   4.052   4.326  17.604
   55TMC2    O5  861   4.157   4.122  17.578
   55TMC2    H5  862   4.216   4.071  17.638
   56MPD2     C  863   4.216   0.035  18.010
   56MPD2    C1  864   4.169   4.696  18.060
   56MPD2    C2  865   4.092   4.701  18.178
   56MPD2    C3  866   4.065   0.040  18.235
   56MPD2    C4  867   4.124   0.161  18.190
   56MPD2    C5  868   4.195   0.159  18.069
   56MPD2     H  869   4.055   4.608  18.219
   56MPD2    H1  870   4.109   0.261  18.231
   56MPD2    H2  871   4.273   0.025  17.918
   56MPD2    H3  872   4.243   0.244  18.022
   56MPD2     N  873   3.978   0.046  18.348
   56MPD2    H5  874   3.941   4.740  18.380
   56MPD2    N1  875   4.210   4.569  18.007
   56MPD2    H7  876   4.254   4.580  17.916
   57MPD2     C  877   2.717   0.480  14.133
   57MPD2    C1  878   2.757   0.597  14.188
   57MPD2    C2  879   2.899   0.620  14.205
   57MPD2    C3  880   2.983   0.519  14.173
   57MPD2    C4  881   2.941   0.406  14.108
   57MPD2    C5  882   2.809   0.384  14.100
   57MPD2     H  883   2.934   0.705  14.262
   57MPD2    H1  884   3.001   0.328  14.062
   57MPD2    H2  885   2.612   0.456  14.120
   57MPD2    H3  886   2.772   0.292  14.055
   57MPD2     N  887   3.124   0.533  14.187
   57MPD2    H5  888   3.180   0.450  14.169
   57MPD2    N1  889   2.665   0.697  14.236
   57MPD2    H7  890   2.700   0.788  14.264
   58TCq2    C1  891   3.193   0.642  14.230
   58TCq2    O2  892   3.162   0.757  14.267
   58TCq2    C2  893   3.331   0.603  14.220
   58TCq2    C3  894   3.360   0.489  14.274
   58TCq2    C4  895   3.466   0.418  14.227
   58TCq2    C5  896   3.545   0.465  14.131
   58TCq2    C6  897   3.493   0.573  14.064
   58TCq2    C7  898   3.396   0.650  14.114
   58TCq2    C8  899   3.554   0.606  13.935
   58TCq2    O4  900   3.537   0.718  13.892
   58TCq2    C9  901   3.500   0.297  14.282
   58TCq2    O5  902   3.603   0.239  14.244
   58TCq2    O6  903   3.392   0.239  14.309
   58TCq2    H2  904   3.315   0.450  14.364
   58TCq2    H3  905   3.628   0.403  14.100
   58TCq2    H4  906   3.358   0.742  14.071
   59TMC2    C1  907   0.469   0.838  13.123
   59TMC2    C2  908   0.442   0.715  13.169
   59TMC2    C3  909   0.395   0.627  13.070
   59TMC2    C4  910   0.429   0.885  13.000
   59TMC2    C5  911   0.388   0.795  12.903
   59TMC2    C6  912   0.375   0.668  12.940
   59TMC2     C  913   0.517   0.937  13.216
   59TMC2     O  914   0.510   1.053  13.183
   59TMC2     H  915   0.459   0.683  13.271
   59TMC2    H1  916   0.439   0.991  12.983
   59TMC2    H2  917   0.324   0.596  12.877
   59TMC2    C7  918   0.351   0.838  12.769
   59TMC2    C8  919   0.390   0.483  13.087
   59TMC2    O1  920   0.343   0.753  12.681
   59TMC2    O2  921   0.436   0.394  13.016
   59TMC2    O5  922   0.316   0.466  13.199
   59TMC2    H5  923   0.252   0.539  13.215
   60MPD2     C  924   0.620   1.103  13.435
   60MPD2    C1  925   0.659   0.975  13.418
   60MPD2    C2  926   0.757   0.924  13.499
   60MPD2    C3  927   0.823   1.014  13.589
   60MPD2    C4  928   0.771   1.141  13.614
   60MPD2    C5  929   0.668   1.184  13.534
   60MPD2     H  930   0.787   0.821  13.484
   60MPD2    H1  931   0.820   1.198  13.691
   60MPD2    H2  932   0.542   1.156  13.382
   60MPD2    H3  933   0.633   1.285  13.517
   60MPD2     N  934   0.950   0.993  13.643
   60MPD2    H5  935   0.974   1.070  13.705
   60MPD2    N1  936   0.600   0.889  13.318
   60MPD2    H7  937   0.643   0.798  13.303
   61TMC2    C1  938   4.710   1.810  15.390
   61TMC2    C2  939   4.715   1.705  15.488
   61TMC2    C3  940   4.729   1.738  15.624
   61TMC2    C4  941   4.717   1.939  15.437
   61TMC2    C5  942   4.740   1.967  15.573
   61TMC2    C6  943   4.743   1.864  15.664
   61TMC2     C  944   4.682   1.775  15.255
   61TMC2     O  945   4.634   1.664  15.241
   61TMC2     H  946   4.711   1.603  15.452
   61TMC2    H1  947   4.697   2.029  15.380
   61TMC2    H2  948   4.751   1.884  15.771
   61TMC2    C7  949   4.765   2.108  15.605
   61TMC2    C8  950   4.705   1.636  15.725
   61TMC2    O1  951   4.736   2.196  15.530
   61TMC2    O2  952   4.616   1.647  15.810
   61TMC2    O5  953   4.738   1.523  15.670
   61TMC2    H5  954   0.028   1.543  15.606
   62MPD2     C  955   4.555   1.791  14.984
   62MPD2    C1  956   4.637   1.890  15.038
   62MPD2    C2  957   4.659   2.012  14.975
   62MPD2    C3  958   4.585   2.036  14.859
   62MPD2    C4  959   4.505   1.936  14.808
   62MPD2    C5  960   4.488   1.817  14.869
   62MPD2     H  961   4.734   2.079  15.017
   62MPD2    H1  962   4.453   1.950  14.714
   62MPD2    H2  963   4.547   1.691  15.027
   62MPD2    H3  964   4.425   1.736  14.834
   62MPD2     N  965   4.563   2.169  14.801
   62MPD2    H5  966   4.518   2.169  14.711
   62MPD2    N1  967   4.695   1.882  15.168
   62MPD2    H7  968   4.749   1.956  15.212
   63TMC2    C1  969   3.907   2.722  10.739
   63TMC2    C2  970   4.016   2.638  10.739
   63TMC2    C3  971   4.111   2.667  10.651
   63TMC2    C4  972   3.885   2.819  10.646
   63TMC2    C5  973   3.981   2.834  10.548
   63TMC2    C6  974   4.099   2.763  10.557
   63TMC2     C  975   3.795   2.702  10.831
   63TMC2     O  976   3.703   2.781  10.814
   63TMC2     H  977   4.034   2.549  10.799
   63TMC2    H1  978   3.792   2.875  10.647
   63TMC2    H2  979   4.167   2.749  10.474
   63TMC2    C7  980   3.924   2.830  10.415
   63TMC2    C8  981   4.251   2.636  10.688
   63TMC2    O1  982   3.808   2.801  10.394
   63TMC2    O2  983   4.343   2.664  10.612
   63TMC2    O5  984   4.265   2.604  10.822
   63TMC2    H5  985   4.184   2.612  10.876
   64MPD2     C  986   3.524   2.364  11.112
   64MPD2    C1  987   3.637   2.300  11.072
   64MPD2    C2  988   3.724   2.377  10.996
   64MPD2    C3  989   3.705   2.510  10.972
   64MPD2    C4  990   3.581   2.569  11.006
   64MPD2    C5  991   3.498   2.494  11.084
   64MPD2     H  992   3.805   2.331  10.939
   64MPD2    H1  993   3.556   2.673  10.984
   64MPD2    H2  994   3.448   2.308  11.166
   64MPD2    H3  995   3.408   2.539  11.124
   64MPD2     N  996   3.805   2.575  10.894
   64MPD2    H5  997   3.887   2.518  10.876
   64MPD2    N1  998   3.677   2.167  11.100
   64MPD2    H7  999   3.764   2.130  11.064
   65TMC2    C1 1000   0.907   1.684  15.910
   65TMC2    C2 1001   0.930   1.655  15.777
   65TMC2    C3 1002   0.930   1.757  15.686
   65TMC2    C4 1003   0.890   1.816  15.955
   65TMC2    C5 1004   0.881   1.905  15.856
   65TMC2    C6 1005   0.907   1.884  15.719
   65TMC2     C 1006   0.946   1.588  16.011
   65TMC2     O 1007   0.996   1.625  16.118
   65TMC2     H 1008   0.953   1.556  15.739
   65TMC2    H1 1009   0.881   1.842  16.060
   65TMC2    H2 1010   0.900   1.964  15.646
   65TMC2    C7 1011   0.839   2.040  15.886
   65TMC2    C8 1012   0.926   1.729  15.541
   65TMC2    O1 1013   0.849   2.125  15.800
   65TMC2    O2 1014   1.005   1.653  15.490
   65TMC2    O5 1015   0.837   1.811  15.481
   65TMC2    H5 1016   0.783   1.870  15.538
   66MPD2     C 1017   0.953   1.324  16.166
   66MPD2    C1 1018   0.914   1.338  16.035
   66MPD2    C2 1019   0.895   1.225  15.959
   66MPD2    C3 1020   0.900   1.096  16.015
   66MPD2    C4 1021   0.916   1.082  16.145
   66MPD2    C5 1022   0.948   1.194  16.217
   66MPD2     H 1023   0.855   1.242  15.860
   66MPD2    H1 1024   0.925   0.986  16.195
   66MPD2    H2 1025   0.996   1.407  16.221
   66MPD2    H3 1026   0.974   1.169  16.319
   66MPD2     N 1027   0.857   0.979  15.952
   66MPD2    H5 1028   0.821   0.900  16.006
   66MPD2    N1 1029   0.914   1.461  15.965
   66MPD2    H7 1030   0.876   1.451  15.872
   67TMC2    C1 1031   1.166   1.013  14.713
   67TMC2    C2 1032   1.068   1.095  14.773
   67TMC2    C3 1033   1.106   1.187  14.872
   67TMC2    C4 1034   1.293   1.024  14.758
   67TMC2    C5 1035   1.328   1.122  14.856
   67TMC2    C6 1036   1.237   1.203  14.910
   67TMC2     C 1037   1.127   0.904  14.627
   67TMC2     O 1038   1.201   0.809  14.615
   67TMC2     H 1039   0.963   1.079  14.751
   67TMC2    H1 1040   1.371   0.971  14.703
   67TMC2    H2 1041   1.274   1.283  14.973
   67TMC2    C7 1042   1.448   1.094  14.929
   67TMC2    C8 1043   1.017   1.300  14.880
   67TMC2    O1 1044   1.546   1.064  14.867
   67TMC2    O2 1045   0.942   1.341  14.793
   67TMC2    O5 1046   1.045   1.354  14.999
   67TMC2    H5 1047   1.099   1.288  15.048
   68MPD2     C 1048   0.995   0.747  14.395
   68MPD2    C1 1049   0.936   0.851  14.468
   68MPD2    C2 1050   0.805   0.889  14.450
   68MPD2    C3 1051   0.725   0.811  14.372
   68MPD2    C4 1052   0.780   0.707  14.300
   68MPD2    C5 1053   0.914   0.680  14.314
   68MPD2     H 1054   0.773   0.978  14.503
   68MPD2    H1 1055   0.722   0.637  14.240
   68MPD2    H2 1056   1.099   0.718  14.409
   68MPD2    H3 1057   0.956   0.596  14.261
   68MPD2     N 1058   0.585   0.828  14.365
   68MPD2    H5 1059   0.533   0.800  14.282
   68MPD2    N1 1060   1.007   0.935  14.558
   68MPD2    H7 1061   0.947   0.997  14.612
   69MPD2     C 1062   3.164   2.317  13.248
   69MPD2    C1 1063   3.037   2.269  13.235
   69MPD2    C2 1064   2.996   2.171  13.326
   69MPD2    C3 1065   3.087   2.123  13.420
   69MPD2    C4 1066   3.213   2.168  13.427
   69MPD2    C5 1067   3.251   2.270  13.342
   69MPD2     H 1068   2.900   2.122  13.307
   69MPD2    H1 1069   3.285   2.139  13.503
   69MPD2    H2 1070   3.188   2.392  13.172
   69MPD2    H3 1071   3.350   2.313  13.347
   69MPD2     N 1072   3.054   2.030  13.514
   69MPD2    H5 1073   3.126   2.009  13.582
   69MPD2    N1 1074   2.957   2.328  13.138
   69MPD2    H7 1075   2.993   2.407  13.086
   70TCq2    C1 1076   2.836   2.285  13.088
   70TCq2    O2 1077   2.758   2.199  13.126
   70TCq2    C2 1078   2.806   2.345  12.955
   70TCq2    C3 1079   2.673   2.332  12.909
   70TCq2    C4 1080   2.646   2.380  12.785
   70TCq2    C5 1081   2.740   2.450  12.710
   70TCq2    C6 1082   2.871   2.460  12.758
   70TCq2    C7 1083   2.903   2.403  12.881
   70TCq2    C8 1084   2.969   2.508  12.668
   70TCq2    O4 1085   3.085   2.498  12.702
   70TCq2    C9 1086   2.522   2.345  12.725
   70TCq2    O5 1087   2.450   2.257  12.777
   70TCq2    O6 1088   2.492   2.396  12.614
   70TCq2    H2 1089   2.612   2.266  12.969
   70TCq2    H3 1090   2.717   2.480  12.609
   70TCq2    H4 1091   3.008   2.413  12.908
   71TMC2    C1 1092   4.706   2.847  19.597
   71TMC2    C2 1093   4.681   2.964  19.660
   71TMC2    C3 1094   4.550   2.992  19.695
   71TMC2    C4 1095   4.601   2.757  19.570
   71TMC2    C5 1096   4.476   2.794  19.610
   71TMC2    C6 1097   4.449   2.909  19.672
   71TMC2     C 1098   0.055   2.800  19.546
   71TMC2     O 1099   0.055   2.694  19.483
   71TMC2     H 1100   4.762   3.029  19.692
   71TMC2    H1 1101   4.616   2.666  19.513
   71TMC2    H2 1102   4.351   2.925  19.715
   71TMC2    C7 1103   4.362   2.708  19.568
   71TMC2    C8 1104   4.519   3.128  19.727
   71TMC2    O1 1105   4.382   2.590  19.576
   71TMC2    O2 1106   4.599   3.198  19.793
   71TMC2    O5 1107   4.447   3.178  19.628
   71TMC2    H5 1108   4.378   3.118  19.592
   72MPD2     C 1109   0.547   2.868  19.421
   72MPD2    C1 1110   0.447   2.796  19.362
   72MPD2    C2 1111   0.315   2.812  19.403
   72MPD2    C3 1112   0.294   2.878  19.527
   72MPD2    C4 1113   0.399   2.942  19.591
   72MPD2    C5 1114   0.523   2.934  19.540
   72MPD2     H 1115   0.224   2.781  19.354
   72MPD2    H1 1116   0.375   3.000  19.680
   72MPD2    H2 1117   0.648   2.871  19.382
   72MPD2    H3 1118   0.596   2.993  19.594
   72MPD2     N 1119   0.162   2.885  19.584
   72MPD2    H5 1120   0.159   2.975  19.631
   72MPD2    N1 1121   0.473   2.738  19.236
   72MPD2    H7 1122   0.386   2.699  19.203
   73TMC2    C1 1123   0.058   4.341  14.379
   73TMC2    C2 1124   0.012   4.439  14.469
   73TMC2    C3 1125   0.046   4.438  14.601
   73TMC2    C4 1126   0.149   4.250  14.418
   73TMC2    C5 1127   0.200   4.279  14.543
   73TMC2    C6 1128   0.146   4.358  14.634
   73TMC2     C 1129   0.076   4.384  14.244
   73TMC2     O 1130   0.185   4.376  14.201
   73TMC2     H 1131   4.724   4.510  14.427
   73TMC2    H1 1132   0.208   4.193  14.347
   73TMC2    H2 1133   0.196   4.373  14.729
   73TMC2    C7 1134   0.346   4.297  14.535
   73TMC2    C8 1135   0.030   4.564  14.669
   73TMC2    O1 1136   0.412   4.274  14.634
   73TMC2    O2 1137   0.112   4.609  14.746
   73TMC2    O5 1138   4.691   4.614  14.646
   73TMC2    H5 1139   4.628   4.552  14.602
   74MPD2     C 1140   4.748   4.738  13.891
   74MPD2    C1 1141   0.086   4.700  13.947
   74MPD2    C2 1142   0.089   4.605  14.048
   74MPD2    C3 1143   4.752   4.555  14.095
   74MPD2    C4 1144   4.635   4.601  14.053
   74MPD2    C5 1145   4.634   4.695  13.947
   74MPD2     H 1146   0.178   4.568  14.097
   74MPD2    H1 1147   4.545   4.575  14.108
   74MPD2    H2 1148   4.728   0.026  13.810
   74MPD2    H3 1149   4.542   4.743  13.916
   74MPD2     N 1150   4.749   4.458  14.200
   74MPD2    H5 1151   4.658   4.425  14.232
   74MPD2    N1 1152   0.200   4.764  13.897
   74MPD2    H7 1153   0.203   0.014  13.801
   75TMC2    C1 1154   0.382   0.933  14.438
   75TMC2    C2 1155   0.311   0.967  14.549
   75TMC2    C3 1156   0.226   1.073  14.533
   75TMC2    C4 1157   0.364   0.990  14.319
   75TMC2    C5 1158   0.269   1.094  14.304
   75TMC2    C6 1159   0.202   1.138  14.412
   75TMC2     C 1160   0.513   0.879  14.476
   75TMC2     O 1161   0.555   0.890  14.592
   75TMC2     H 1162   0.328   0.923  14.647
   75TMC2    H1 1163   0.421   0.960  14.232
   75TMC2    H2 1164   0.126   1.215  14.407
   75TMC2    C7 1165   0.203   1.112  14.176
   75TMC2    C8 1166   0.173   1.141  14.647
   75TMC2    O1 1167   0.219   1.027  14.086
   75TMC2    O2 1168   0.149   1.261  14.656
   75TMC2    O5 1169   0.124   1.050  14.735
   75TMC2    H5 1170   0.116   0.959  14.698
   76TMC2    C1 1171   3.974   1.515  12.301
   76TMC2    C2 1172   3.871   1.441  12.260
   76TMC2    C3 1173   3.880   1.310  12.285
   76TMC2    C4 1174   4.082   1.461  12.372
   76TMC2    C5 1175   4.086   1.326  12.388
   76TMC2    C6 1176   3.987   1.247  12.340
   76TMC2     C 1177   3.959   1.662  12.286
   76TMC2     O 1178   3.858   1.702  12.226
   76TMC2     H 1179   3.790   1.472  12.195
   76TMC2    H1 1180   4.163   1.528  12.401
   76TMC2    H2 1181   3.996   1.142  12.363
   76TMC2    C7 1182   4.186   1.261  12.464
   76TMC2    C8 1183   3.776   1.223  12.235
   76TMC2    O1 1184   4.193   1.138  12.455
   76TMC2    O2 1185   3.801   1.118  12.180
   76TMC2    O5 1186   3.660   1.264  12.285
   76TMC2    H5 1187   3.673   1.345  12.339
   77MPD2     C 1188   4.058   2.164  12.349
   77MPD2    C1 1189   3.947   2.100  12.299
   77MPD2    C2 1190   3.947   1.961  12.288
   77MPD2    C3 1191   4.059   1.882  12.331
   77MPD2    C4 1192   4.164   1.948  12.381
   77MPD2    C5 1193   4.163   2.085  12.384
   77MPD2     H 1194   3.852   1.919  12.256
   77MPD2    H1 1195   4.251   1.898  12.422
   77MPD2    H2 1196   4.083   2.270  12.354
   77MPD2    H3 1197   4.260   2.130  12.403
   77MPD2     N 1198   4.056   1.742  12.334
   77MPD2    H5 1199   4.140   1.696  12.369
   77MPD2    N1 1200   3.831   2.172  12.268
   77MPD2    H7 1201   3.750   2.125  12.229
   78TMC2    C1 1202   0.250   2.599  19.803
   78TMC2    C2 1203   0.318   2.691  19.875
   78TMC2    C3 1204   0.453   2.713  19.859
   78TMC2    C4 1205   0.311   2.510  19.721
   78TMC2    C5 1206   0.447   2.534  19.698
   78TMC2    C6 1207   0.513   2.642  19.756
   78TMC2     C 1208   0.103   2.592  19.821
   78TMC2     O 1209   0.050   2.484  19.803
   78TMC2     H 1210   0.270   2.756  19.947
   78TMC2    H1 1211   0.243   2.442  19.670
   78TMC2    H2 1212   0.618   2.651  19.730
   78TMC2    C7 1213   0.524   2.452  19.606
   78TMC2    C8 1214   0.503   2.839  19.919
   78TMC2    O1 1215   0.632   2.492  19.560
   78TMC2    O2 1216   0.427   2.910  19.990
   78TMC2    O5 1217   0.612   2.876  19.850
   78TMC2    H5 1218   0.672   2.799  19.840
   79MPD1     C 1219   4.453   2.776  20.032
   79MPD1    C1 1220   4.477   2.649  19.988
   79MPD1    C2 1221   4.606   2.624  19.950
   79MPD1    C3 1222   4.701   2.724  19.933
   79MPD1    C4 1223   4.672   2.850  19.974
   79MPD1    C5 1224   4.545   2.877  20.020
   79MPD1     H 1225   4.638   2.523  19.928
   79MPD1    H1 1226   4.751   2.923  19.975
   79MPD1    H2 1227   4.356   2.806  20.070
   79MPD1    H3 1228   4.513   2.976  20.052
   79MPD1     N 1229   0.047   2.706  19.875
   79MPD1    H5 1230   0.105   2.789  19.883
   79MPD1    N1 1231   4.389   2.544  20.019
   79MPD1    H6 1232   4.389   2.474  19.945
   79MPD1    H7 1233   4.297   2.586  20.014
   80MPD2     C 1234   3.426   1.150  12.702
   80MPD2    C1 1235   3.366   1.271  12.689
   80MPD2    C2 1236   3.391   1.367  12.784
   80MPD2    C3 1237   3.464   1.329  12.895
   80MPD2    C4 1238   3.533   1.208  12.901
   80MPD2    C5 1239   3.515   1.119  12.799
   80MPD2     H 1240   3.337   1.461  12.784
   80MPD2    H1 1241   3.597   1.175  12.982
   80MPD2    H2 1242   3.411   1.066  12.635
   80MPD2    H3 1243   3.566   1.024  12.808
   80MPD2     N 1244   3.470   1.418  13.006
   80MPD2    H5 1245   3.542   1.399  13.074
   80MPD2    N1 1246   3.281   1.302  12.580
   80MPD2    H7 1247   3.246   1.397  12.566
   81TCq2    C1 1248   3.233   1.220  12.487
   81TCq2    O2 1249   3.244   1.098  12.463
   81TCq2    C2 1250   3.151   1.290  12.391
   81TCq2    C3 1251   3.191   1.413  12.358
   81TCq2    C4 1252   3.096   1.501  12.304
   81TCq2    C5 1253   2.968   1.464  12.281
   81TCq2    C6 1254   2.926   1.341  12.331
   81TCq2    C7 1255   3.018   1.256  12.388
   81TCq2    C8 1256   2.791   1.311  12.346
   81TCq2    O4 1257   2.714   1.347  12.257
   81TCq2    C9 1258   3.147   1.632  12.272
   81TCq2    O5 1259   3.062   1.718  12.238
   81TCq2    O6 1260   3.271   1.654  12.287
   81TCq2    H2 1261   3.298   1.422  12.369
   81TCq2    H3 1262   2.897   1.535  12.240
   81TCq2    H4 1263   2.998   1.151  12.406
   82TMC2    C1 1264   1.065   0.868  11.666
   82TMC2    C2 1265   1.143   0.945  11.753
   82TMC2    C3 1266   1.199   0.882  11.859
   82TMC2    C4 1267   1.047   0.735  11.684
   82TMC2    C5 1268   1.099   0.674  11.802
   82TMC2    C6 1269   1.186   0.746  11.882
   82TMC2     C 1270   0.962   0.932  11.591
   82TMC2     O 1271   0.929   0.872  11.486
   82TMC2     H 1272   1.164   1.050  11.735
   82TMC2    H1 1273   0.967   0.693  11.625
   82TMC2    H2 1274   1.231   0.693  11.965
   82TMC2    C7 1275   1.058   0.543  11.846
   82TMC2    C8 1276   1.297   0.960  11.938
   82TMC2    O1 1277   1.089   0.503  11.960
   82TMC2    O2 1278   1.402   0.905  11.969
   82TMC2    O5 1279   1.223   1.034  12.023
   82TMC2    H5 1280   1.128   1.040  12.001
   83MPD2     C 1281   0.535   1.211  11.581
   83MPD2    C1 1282   0.601   1.147  11.474
   83MPD2    C2 1283   0.721   1.078  11.501
   83MPD2    C3 1284   0.777   1.094  11.630
   83MPD2    C4 1285   0.711   1.160  11.728
   83MPD2    C5 1286   0.596   1.222  11.703
   83MPD2     H 1287   0.771   1.015  11.428
   83MPD2    H1 1288   0.750   1.163  11.829
   83MPD2    H2 1289   0.444   1.267  11.566
   83MPD2    H3 1290   0.558   1.287  11.782
   83MPD2     N 1291   0.899   1.031  11.665
   83MPD2    H5 1292   0.929   1.059  11.758
   83MPD2    N1 1293   0.538   1.145  11.345
   83MPD2    H7 1294   0.440   1.172  11.337
   84TCq2    C1 1295   2.304   0.072  10.911
   84TCq2    O2 1296   2.224   0.023  10.831
   84TCq2    C2 1297   2.291   0.040  11.054
   84TCq2    C3 1298   2.391   4.760  11.123
   84TCq2    C4 1299   2.369   4.749  11.257
   84TCq2    C5 1300   2.256   0.007  11.321
   84TCq2    C6 1301   2.155   0.065  11.251
   84TCq2    C7 1302   2.174   0.076  11.115
   84TCq2    C8 1303   2.040   0.125  11.315
   84TCq2    O4 1304   2.022   0.244  11.295
   84TCq2    C9 1305   2.466   4.666  11.326
   84TCq2    O5 1306   2.571   4.633  11.261
   84TCq2    O6 1307   2.420   4.597  11.420
   84TCq2    H2 1308   2.477   4.718  11.074
   84TCq2    H3 1309   2.250   4.773  11.428
   84TCq2    H4 1310   2.110   0.141  11.056
   85TMC2    C1 1311   3.016   2.824  16.053
   85TMC2    C2 1312   2.908   2.908  16.079
   85TMC2    C3 1313   2.918   3.039  16.034
   85TMC2    C4 1314   3.113   2.866  15.966
   85TMC2    C5 1315   3.114   2.991  15.917
   85TMC2    C6 1316   3.022   3.084  15.956
   85TMC2     C 1317   3.040   2.701  16.124
   85TMC2     O 1318   3.158   2.672  16.130
   85TMC2     H 1319   2.838   2.875  16.155
   85TMC2    H1 1320   3.190   2.795  15.938
   85TMC2    H2 1321   3.034   3.189  15.932
   85TMC2    C7 1322   3.225   3.030  15.824
   85TMC2    C8 1323   2.875   3.140  16.121
   85TMC2    O1 1324   3.315   2.950  15.811
   85TMC2    O2 1325   2.956   3.222  16.161
   85TMC2    O5 1326   2.772   3.091  16.187
   85TMC2    H5 1327   2.721   3.042  16.119
   86MPD2     C 1328   2.864   2.343  16.457
   86MPD2    C1 1329   2.770   2.364  16.358
   86MPD2    C2 1330   2.788   2.465  16.265
   86MPD2    C3 1331   2.903   2.539  16.260
   86MPD2    C4 1332   3.000   2.515  16.353
   86MPD2    C5 1333   2.976   2.428  16.461
   86MPD2     H 1334   2.721   2.491  16.184
   86MPD2    H1 1335   3.090   2.574  16.361
   86MPD2    H2 1336   2.867   2.260  16.527
   86MPD2    H3 1337   3.054   2.420  16.537
   86MPD2     N 1338   2.923   2.631  16.153
   86MPD2    H5 1339   2.843   2.657  16.096
   86MPD2    N1 1340   2.657   2.280  16.333
   86MPD2    H7 1341   2.608   2.305  16.247
   87TMC2    C1 1342   0.613   0.972  19.221
   87TMC2    C2 1343   0.686   1.036  19.314
   87TMC2    C3 1344   0.643   1.154  19.348
   87TMC2    C4 1345   0.502   1.033  19.169
   87TMC2    C5 1346   0.447   1.145  19.221
   87TMC2    C6 1347   0.527   1.215  19.304
   87TMC2     C 1348   0.693   0.892  19.124
   87TMC2     O 1349   0.659   0.902  19.005
   87TMC2     H 1350   0.778   0.993  19.353
   87TMC2    H1 1351   0.458   0.983  19.083
   87TMC2    H2 1352   0.491   1.306  19.350
   87TMC2    C7 1353   0.335   1.205  19.153
   87TMC2    C8 1354   0.739   1.247  19.406
   87TMC2    O1 1355   0.325   1.326  19.165
   87TMC2    O2 1356   0.843   1.214  19.460
   87TMC2    O5 1357   0.701   1.375  19.370
   87TMC2    H5 1358   0.641   1.368  19.293
   88MPD2     C 1359   0.080   1.060  18.936
   88MPD2    C1 1360   0.142   1.162  19.000
   88MPD2    C2 1361   0.106   1.287  18.975
   88MPD2    C3 1362   4.779   1.315  18.889
   88MPD2    C4 1363   4.708   1.211  18.835
   88MPD2    C5 1364   4.751   1.088  18.860
   88MPD2     H 1365   0.163   1.366  19.023
   88MPD2    H1 1366   4.631   1.228  18.760
   88MPD2    H2 1367   0.108   0.956  18.950
   88MPD2    H3 1368   4.700   1.006  18.810
   88MPD2     N 1369   4.734   1.446  18.852
   88MPD2    H5 1370   4.669   1.445  18.774
   88MPD2    N1 1371   0.257   1.119  19.079
   88MPD2    H7 1372   0.279   1.022  19.097
   89TMC2    C1 1373   1.410   3.802  19.818
   89TMC2    C2 1374   1.298   3.822  19.752
   89TMC2    C3 1375   1.307   3.915  19.651
   89TMC2    C4 1376   1.521   3.892  19.812
   89TMC2    C5 1377   1.527   3.992  19.719
   89TMC2    C6 1378   1.418   3.994  19.639
   89TMC2     C 1379   1.425   3.683  19.904
   89TMC2     O 1380   1.534   3.653  19.951
   89TMC2     H 1381   1.214   3.753  19.751
   89TMC2    H1 1382   1.603   3.873  19.880
   89TMC2    H2 1383   1.412   4.064  19.556
   89TMC2    C7 1384   1.662   3.982  19.655
   89TMC2    C8 1385   1.210   3.918  19.544
   89TMC2    O1 1386   1.734   3.886  19.683
   89TMC2    O2 1387   1.232   3.979  19.439
   89TMC2    O5 1388   1.089   3.910  19.596
   89TMC2    H5 1389   1.070   3.875  19.685
   90MPD2     C 1390   1.217   3.244  20.069
   90MPD2    C1 1391   1.115   3.327  20.017
   90MPD2    C2 1392   1.148   3.451  19.967
   90MPD2    C3 1393   1.286   3.497  19.973
   90MPD2    C4 1394   1.387   3.405  20.007
   90MPD2    C5 1395   1.351   3.287  20.063
   90MPD2     H 1396   1.066   3.513  19.933
   90MPD2    H1 1397   1.494   3.421  19.998
   90MPD2    H2 1398   1.198   3.144  20.107
   90MPD2    H3 1399   1.427   3.218  20.100
   90MPD2     N 1400   1.304   3.624  19.916
   90MPD2    H5 1401   1.218   3.672  19.891
   90MPD2    N1 1402   0.977   3.294  20.030
   90MPD2    H7 1403   0.906   3.351  19.985
   91TMC2    C1 1404   2.998   3.885  16.611
   91TMC2    C2 1405   3.060   3.983  16.681
   91TMC2    C3 1406   3.000   4.018  16.794
   91TMC2    C4 1407   2.874   3.843  16.628
   91TMC2    C5 1408   2.808   3.891  16.736
   91TMC2    C6 1409   2.869   3.979  16.823
   91TMC2     C 1410   3.073   3.824  16.501
   91TMC2     O 1411   3.010   3.788  16.401
   91TMC2     H 1412   3.153   4.022  16.641
   91TMC2    H1 1413   2.837   3.758  16.573
   91TMC2    H2 1414   2.814   4.015  16.909
   91TMC2    C7 1415   2.695   3.815  16.786
   91TMC2    C8 1416   3.046   4.125  16.876
   91TMC2    O1 1417   2.687   3.815  16.907
   91TMC2    O2 1418   2.974   4.194  16.947
   91TMC2    O5 1419   3.179   4.139  16.866
   91TMC2    H5 1420   3.219   4.078  16.800
   92MPD2     C 1421   3.272   3.707  16.317
   92MPD2    C1 1422   3.310   3.780  16.430
   92MPD2    C2 1423   3.442   3.783  16.464
   92MPD2    C3 1424   3.541   3.723  16.388
   92MPD2    C4 1425   3.501   3.655  16.272
   92MPD2    C5 1426   3.371   3.651  16.239
   92MPD2     H 1427   3.473   3.838  16.552
   92MPD2    H1 1428   3.565   3.609  16.197
   92MPD2    H2 1429   3.172   3.673  16.291
   92MPD2    H3 1430   3.347   3.597  16.148
   92MPD2     N 1431   3.673   3.743  16.430
   92MPD2    H5 1432   3.693   3.793  16.516
   92MPD2    N1 1433   3.213   3.828  16.522
   92MPD2    H7 1434   3.248   3.859  16.612
   93MPD2     C 1435   4.679   3.729  14.041
   93MPD2    C1 1436   4.659   3.751  14.172
   93MPD2    C2 1437   4.530   3.744  14.214
   93MPD2    C3 1438   4.427   3.708  14.120
   93MPD2    C4 1439   4.450   3.680  13.987
   93MPD2    C5 1440   4.578   3.701  13.946
   93MPD2     H 1441   4.508   3.749  14.320
   93MPD2    H1 1442   4.372   3.687  13.912
   93MPD2    H2 1443   4.768   3.771  13.994
   93MPD2    H3 1444   4.599   3.680  13.842
   93MPD2     N 1445   4.290   3.698  14.161
   93MPD2    H5 1446   4.222   3.674  14.090
   93MPD2    N1 1447   4.767   3.786  14.256
   93MPD2    H7 1448   4.739   3.791  14.353
   94TCq2    C1 1449   0.114   3.798  14.219
   94TCq2    O2 1450   0.174   3.765  14.121
   94TCq2    C2 1451   0.197   3.862  14.321
   94TCq2    C3 1452   0.166   3.844  14.456
   94TCq2    C4 1453   0.261   3.878  14.547
   94TCq2    C5 1454   0.381   3.936  14.511
   94TCq2    C6 1455   0.408   3.956  14.379
   94TCq2    C7 1456   0.320   3.915  14.280
   94TCq2    C8 1457   0.541   3.995  14.339
   94TCq2    O4 1458   0.634   3.942  14.402
   94TCq2    C9 1459   0.237   3.860  14.692
   94TCq2    O5 1460   0.334   3.829  14.762
   94TCq2    O6 1461   0.118   3.885  14.728
   94TCq2    H2 1462   0.077   3.792  14.489
   94TCq2    H3 1463   0.456   3.961  14.585
   94TCq2    H4 1464   0.343   3.930  14.175
   95TMC2    C1 1465   4.763   0.481  16.087
   95TMC2    C2 1466   4.775   0.563  16.194
   95TMC2    C3 1467   4.681   0.656  16.224
   95TMC2    C4 1468   4.663   0.514  15.995
   95TMC2    C5 1469   4.563   0.600  16.037
   95TMC2    C6 1470   4.568   0.674  16.154
   95TMC2     C 1471   0.106   0.437  16.027
   95TMC2     O 1472   0.209   0.471  16.088
   95TMC2     H 1473   0.076   0.558  16.263
   95TMC2    H1 1474   4.665   0.479  15.892
   95TMC2    H2 1475   4.484   0.731  16.191
   95TMC2    C7 1476   4.462   0.630  15.936
   95TMC2    C8 1477   4.678   0.688  16.367
   95TMC2    O1 1478   4.398   0.734  15.933
   95TMC2    O2 1479   4.724   0.619  16.453
   95TMC2    O5 1480   4.600   0.799  16.386
   95TMC2    H5 1481   4.583   0.845  16.301
   96MPD2     C 1482   0.412   0.292  15.644
   96MPD2    C1 1483   0.418   0.397  15.731
   96MPD2    C2 1484   0.320   0.424  15.824
   96MPD2    C3 1485   0.203   0.351  15.819
   96MPD2    C4 1486   0.189   0.255  15.719
   96MPD2    C5 1487   0.294   0.228  15.640
   96MPD2     H 1488   0.341   0.494  15.904
   96MPD2    H1 1489   0.106   0.185  15.712
   96MPD2    H2 1490   0.498   0.266  15.584
   96MPD2    H3 1491   0.290   0.143  15.573
   96MPD2     N 1492   0.097   0.374  15.905
   96MPD2    H5 1493   0.004   0.336  15.892
   96MPD2    N1 1494   0.544   0.468  15.733
   96MPD2    H7 1495   0.617   0.438  15.670
   97MPD2     C 1496   2.119   3.013  18.794
   97MPD2    C1 1497   2.224   3.100  18.793
   97MPD2    C2 1498   2.227   3.197  18.702
   97MPD2    C3 1499   2.118   3.218  18.615
   97MPD2    C4 1500   2.010   3.142  18.640
   97MPD2    C5 1501   2.009   3.029  18.721
   97MPD2     H 1502   2.313   3.261  18.688
   97MPD2    H1 1503   1.924   3.165  18.579
   97MPD2    H2 1504   2.129   2.926  18.858
   97MPD2    H3 1505   1.920   2.967  18.732
   97MPD2     N 1506   2.098   3.327  18.522
   97MPD2    H5 1507   2.014   3.318  18.465
   97MPD2    N1 1508   2.328   3.066  18.882
   97MPD2    H7 1509   2.315   2.991  18.949
   98TCq2    C1 1510   2.197   3.412  18.486
   98TCq2    O2 1511   2.318   3.408  18.509
   98TCq2    C2 1512   2.142   3.527  18.405
   98TCq2    C3 1513   2.010   3.531  18.388
   98TCq2    C4 1514   1.967   3.622  18.296
   98TCq2    C5 1515   2.052   3.708  18.234
   98TCq2    C6 1516   2.186   3.701  18.253
   98TCq2    C7 1517   2.236   3.601  18.339
   98TCq2    C8 1518   2.282   3.812  18.226
   98TCq2    O4 1519   2.399   3.800  18.265
   98TCq2    C9 1520   1.823   3.621  18.279
   98TCq2    O5 1521   1.774   3.712  18.211
   98TCq2    O6 1522   1.753   3.546  18.352
   98TCq2    H2 1523   1.931   3.483  18.445
   98TCq2    H3 1524   2.003   3.777  18.166
   98TCq2    H4 1525   2.344   3.590  18.336
   99TMC2    C1 1526   1.432   0.851  20.082
   99TMC2    C2 1527   1.532   0.883  20.172
   99TMC2    C3 1528   1.500   0.951  20.282
   99TMC2    C4 1529   1.305   0.903  20.104
   99TMC2    C5 1530   1.275   0.954  20.231
   99TMC2    C6 1531   1.373   0.983  20.325
   99TMC2     C 1532   1.464   0.798  19.950
   99TMC2     O 1533   1.583   0.778  19.928
   99TMC2     H 1534   1.634   0.853  20.149
   99TMC2    H1 1535   1.227   0.897  20.029
   99TMC2    H2 1536   1.355   1.024  20.424
   99TMC2    C7 1537   1.141   1.001  20.260
   99TMC2    C8 1538   1.591   0.953  20.390
   99TMC2    O1 1539   1.140   1.099  20.334
   99TMC2    O2 1540   1.557   0.926  20.502
   99TMC2    O5 1541   1.711   0.992  20.347
   99TMC2    H5 1542   1.705   1.009  20.251
  100MPD2     C 1543   1.471   0.623  19.711
  100MPD2    C1 1544   1.357   0.643  19.788
  100MPD2    C2 1545   1.240   0.589  19.753
  100MPD2    C3 1546   1.222   0.523  19.638
  100MPD2    C4 1547   1.332   0.501  19.558
  100MPD2    C5 1548   1.457   0.542  19.599
  100MPD2     H 1549   1.155   0.611  19.817
  100MPD2    H1 1550   1.340   0.438  19.470
  100MPD2    H2 1551   1.570   0.659  19.735
  100MPD2    H3 1552   1.539   0.518  19.532
  100MPD2     N 1553   1.097   0.471  19.600
  100MPD2    H5 1554   1.014   0.481  19.657
  100MPD2    N1 1555   1.356   0.732  19.899
  100MPD2    H7 1556   1.267   0.740  19.946
  101MPD2     C 1557   1.705   1.241  13.187
  101MPD2    C1 1558   1.622   1.318  13.258
  101MPD2    C2 1559   1.546   1.250  13.357
  101MPD2    C3 1560   1.543   1.113  13.367
  101MPD2    C4 1561   1.628   1.038  13.291
  101MPD2    C5 1562   1.703   1.101  13.197
  101MPD2     H 1563   1.483   1.306  13.426
  101MPD2    H1 1564   1.639   0.930  13.290
  101MPD2    H2 1565   1.762   1.295  13.112
  101MPD2    H3 1566   1.762   1.049  13.122
  101MPD2     N 1567   1.477   1.058  13.488
  101MPD2    H5 1568   1.424   1.122  13.546
  101MPD2    N1 1569   1.624   1.459  13.248
  101MPD2    H7 1570   1.687   1.497  13.178
  102TCq2    C1 1571   1.850   1.868  13.139
  102TCq2    O2 1572   1.947   1.788  13.141
  102TCq2    C2 1573   1.726   1.838  13.208
  102TCq2    C3 1574   1.621   1.927  13.218
  102TCq2    C4 1575   1.495   1.892  13.255
  102TCq2    C5 1576   1.471   1.766  13.292
  102TCq2    C6 1577   1.570   1.674  13.277
  102TCq2    C7 1578   1.700   1.708  13.242
  102TCq2    C8 1579   1.552   1.545  13.327
  102TCq2    O4 1580   1.463   1.535  13.408
  102TCq2    C9 1581   1.392   1.989  13.240
  102TCq2    O5 1582   1.278   1.951  13.276
  102TCq2    O6 1583   1.414   2.084  13.166
  102TCq2    H2 1584   1.641   2.032  13.198
  102TCq2    H3 1585   1.373   1.740  13.329
  102TCq2    H4 1586   1.781   1.639  13.263
  103TMC2    C1 1587   4.594   1.659  13.017
  103TMC2    C2 1588   4.717   1.692  12.975
  103TMC2    C3 1589   0.001   1.772  13.069
  103TMC2    C4 1590   4.531   1.704  13.130
  103TMC2    C5 1591   4.597   1.799  13.205
  103TMC2    C6 1592   4.732   1.825  13.186
  103TMC2     C 1593   4.511   1.583  12.926
  103TMC2     O 1594   4.387   1.585  12.934
  103TMC2     H 1595   0.001   1.646  12.902
  103TMC2    H1 1596   4.435   1.664  13.159
  103TMC2    H2 1597   0.010   1.881  13.257
  103TMC2    C7 1598   4.534   1.839  13.325
  103TMC2    C8 1599   0.146   1.792  13.050
  103TMC2    O1 1600   4.451   1.766  13.382
  103TMC2    O2 1601   0.218   1.716  12.985
  103TMC2    O5 1602   0.146   1.932  13.035
  103TMC2    H5 1603   0.061   1.971  13.066
  104MPD2     C 1604   4.617   1.304  12.736
  104MPD2    C1 1605   4.537   1.406  12.764
  104MPD2    C2 1606   4.409   1.414  12.710
  104MPD2    C3 1607   4.368   1.325  12.609
  104MPD2    C4 1608   4.456   1.227  12.572
  104MPD2    C5 1609   4.578   1.212  12.640
  104MPD2     H 1610   4.342   1.498  12.725
  104MPD2    H1 1611   4.443   1.159  12.489
  104MPD2    H2 1612   4.712   1.307  12.789
  104MPD2    H3 1613   4.642   1.127  12.621
  104MPD2     N 1614   4.241   1.346  12.551
  104MPD2    H5 1615   4.193   1.433  12.574
  104MPD2    N1 1616   4.587   1.494  12.858
  104MPD2    H7 1617   4.688   1.495  12.861
  105MPD2     C 1618   1.805   0.722  18.011
  105MPD2    C1 1619   1.700   0.814  17.990
  105MPD2    C2 1620   1.592   0.821  18.079
  105MPD2    C3 1621   1.594   0.742  18.187
  105MPD2    C4 1622   1.698   0.657  18.214
  105MPD2    C5 1623   1.801   0.654  18.129
  105MPD2     H 1624   1.511   0.891  18.062
  105MPD2    H1 1625   1.713   0.603  18.306
  105MPD2    H2 1626   1.897   0.726  17.954
  105MPD2    H3 1627   1.875   0.577  18.149
  105MPD2     N 1628   1.481   0.753  18.275
  105MPD2    H5 1629   1.411   0.825  18.262
  105MPD2    N1 1630   1.688   0.890  17.872
  105MPD2    H7 1631   1.613   0.958  17.873
  106TCq2    C1 1632   1.451   0.656  18.372
  106TCq2    O2 1633   1.513   0.565  18.428
  106TCq2    C2 1634   1.325   0.695  18.435
  106TCq2    C3 1635   1.238   0.782  18.365
  106TCq2    C4 1636   1.125   0.817  18.434
  106TCq2    C5 1637   1.093   0.764  18.556
  106TCq2    C6 1638   1.180   0.673  18.614
  106TCq2    C7 1639   1.297   0.638  18.556
  106TCq2    C8 1640   1.144   0.612  18.740
  106TCq2    O4 1641   1.222   0.523  18.778
  106TCq2    C9 1642   1.041   0.917  18.374
  106TCq2    O5 1643   0.941   0.959  18.443
  106TCq2    O6 1644   1.086   0.972  18.269
  106TCq2    H2 1645   1.259   0.823  18.267
  106TCq2    H3 1646   0.994   0.780  18.598
  106TCq2    H4 1647   1.371   0.575  18.604
  107TMC2    C1 1648   1.581   0.623  11.964
  107TMC2    C2 1649   1.626   0.731  11.887
  107TMC2    C3 1650   1.650   0.711  11.755
  107TMC2    C4 1651   1.547   0.503  11.904
  107TMC2    C5 1652   1.567   0.492  11.767
  107TMC2    C6 1653   1.641   0.588  11.699
  107TMC2     C 1654   1.549   0.640  12.102
  107TMC2     O 1655   1.499   0.544  12.158
  107TMC2     H 1656   1.641   0.829  11.932
  107TMC2    H1 1657   1.505   0.424  11.966
  107TMC2    H2 1658   1.670   0.582  11.595
  107TMC2    C7 1659   1.562   0.365  11.712
  107TMC2    C8 1660   1.764   0.781  11.697
  107TMC2    O1 1661   1.477   0.292  11.762
  107TMC2    O2 1662   1.793   0.782  11.576
  107TMC2    O5 1663   1.839   0.833  11.799
  107TMC2    H5 1664   1.810   0.796  11.885
  108MPD2     C 1665   1.484   0.948  12.268
  108MPD2    C1 1666   1.510   0.818  12.268
  108MPD2    C2 1667   1.499   0.742  12.387
  108MPD2    C3 1668   1.437   0.804  12.503
  108MPD2    C4 1669   1.397   0.930  12.490
  108MPD2    C5 1670   1.419   1.006  12.379
  108MPD2     H 1671   1.537   0.641  12.380
  108MPD2    H1 1672   1.355   0.981  12.576
  108MPD2    H2 1673   1.493   1.012  12.181
  108MPD2    H3 1674   1.403   1.113  12.366
  108MPD2     N 1675   1.412   0.736  12.623
  108MPD2    H5 1676   1.372   0.788  12.700
  108MPD2    N1 1677   1.550   0.769  12.143
  108MPD2    H7 1678   1.576   0.835  12.070
  109TMC2    C1 1679   1.542   2.868  18.854
  109TMC2    C2 1680   1.560   2.874  18.720
  109TMC2    C3 1681   1.674   2.816  18.679
  109TMC2    C4 1682   1.623   2.802  18.947
  109TMC2    C5 1683   1.728   2.728  18.887
  109TMC2    C6 1684   1.755   2.737  18.756
  109TMC2     C 1685   1.429   2.943  18.897
  109TMC2     O 1686   1.390   3.037  18.833
  109TMC2     H 1687   1.488   2.919  18.654
  109TMC2    H1 1688   1.610   2.822  19.053
  109TMC2    H2 1689   1.844   2.688  18.717
  109TMC2    C7 1690   1.843   2.703  18.968
  109TMC2    C8 1691   1.719   2.832  18.542
  109TMC2    O1 1692   1.951   2.713  18.917
  109TMC2    O2 1693   1.789   2.754  18.487
  109TMC2    O5 1694   1.669   2.947  18.493
  109TMC2    H5 1695   1.642   3.009  18.563
  110MPD2     C 1696   0.971   2.904  19.111
  110MPD2    C1 1697   1.050   2.806  19.161
  110MPD2    C2 1698   1.185   2.815  19.132
  110MPD2    C3 1699   1.230   2.894  19.027
  110MPD2    C4 1700   1.153   2.999  18.990
  110MPD2    C5 1701   1.025   3.002  19.039
  110MPD2     H 1702   1.242   2.725  19.154
  110MPD2    H1 1703   1.190   3.076  18.924
  110MPD2    H2 1704   0.866   2.913  19.136
  110MPD2    H3 1705   0.952   3.078  19.011
  110MPD2     N 1706   1.368   2.878  19.000
  110MPD2    H5 1707   1.416   2.804  19.051
  110MPD2    N1 1708   0.992   2.720  19.261
  110MPD2    H7 1709   0.893   2.700  19.251
  111TMC2    C1 1710   1.710   2.126  12.052
  111TMC2    C2 1711   1.662   2.211  12.149
  111TMC2    C3 1712   1.668   2.181  12.286
  111TMC2    C4 1713   1.756   2.006  12.088
  111TMC2    C5 1714   1.772   1.980  12.219
  111TMC2    C6 1715   1.708   2.054  12.316
  111TMC2     C 1716   1.616   2.107  11.948
  111TMC2     O 1717   1.662   2.065  11.843
  111TMC2     H 1718   1.626   2.310  12.121
  111TMC2    H1 1719   1.795   1.939  12.013
  111TMC2    H2 1720   1.737   2.037  12.419
  111TMC2    C7 1721   1.904   1.945  12.254
  111TMC2    C8 1722   1.540   2.211  12.333
  111TMC2    O1 1723   1.931   1.911  12.370
  111TMC2    O2 1724   1.452   2.210  12.245
  111TMC2    O5 1725   1.530   2.157  12.451
  111TMC2    H5 1726   1.613   2.176  12.500
  112MPD2     C 1727   1.132   2.127  11.763
  112MPD2    C1 1728   1.252   2.101  11.707
  112MPD2    C2 1729   1.365   2.102  11.777
  112MPD2    C3 1730   1.363   2.130  11.910
  112MPD2    C4 1731   1.245   2.161  11.974
  112MPD2    C5 1732   1.133   2.162  11.894
  112MPD2     H 1733   1.455   2.070  11.726
  112MPD2    H1 1734   1.231   2.192  12.077
  112MPD2    H2 1735   1.041   2.115  11.705
  112MPD2    H3 1736   1.041   2.196  11.939
  112MPD2     N 1737   1.483   2.134  11.986
  112MPD2    H5 1738   1.476   2.172  12.079
  112MPD2    N1 1739   1.265   2.069  11.566
  112MPD2    H7 1740   1.356   2.030  11.542
  113TMC2    C1 1741   4.703   0.099  18.743
  113TMC2    C2 1742   4.706   0.130  18.611
  113TMC2    C3 1743   4.691   0.025  18.523
  113TMC2    C4 1744   4.685   4.756  18.791
  113TMC2    C5 1745   4.665   4.658  18.702
  113TMC2    C6 1746   4.669   4.676  18.567
  113TMC2     C 1747   4.712   0.207  18.844
  113TMC2     O 1748   4.774   0.307  18.811
  113TMC2     H 1749   4.709   0.233  18.580
  113TMC2    H1 1750   4.688   4.729  18.896
  113TMC2    H2 1751   4.661   4.596  18.494
  113TMC2    C7 1752   4.642   4.519  18.740
  113TMC2    C8 1753   4.717   0.036  18.383
  113TMC2    O1 1754   4.624   4.438  18.654
  113TMC2    O2 1755   4.662   4.746  18.300
  113TMC2    O5 1756   0.064   0.074  18.388
  113TMC2    H5 1757   0.094   0.100  18.477
  114MPD2     C 1758   4.662   0.369  19.335
  114MPD2    C1 1759   4.712   0.437  19.223
  114MPD2    C2 1760   4.707   0.370  19.104
  114MPD2    C3 1761   4.656   0.242  19.086
  114MPD2    C4 1762   4.615   0.176  19.199
  114MPD2    C5 1763   4.609   0.244  19.313
  114MPD2     H 1764   4.743   0.425  19.018
  114MPD2    H1 1765   4.565   0.080  19.195
  114MPD2    H2 1766   4.634   0.407  19.432
  114MPD2    H3 1767   4.567   0.194  19.399
  114MPD2     N 1768   4.661   0.165  18.967
  114MPD2    H5 1769   4.617   0.073  18.965
  114MPD2    N1 1770   4.749   0.576  19.219
  114MPD2    H7 1771   4.775   0.617  19.130
  115TMC2    C1 1772   0.809   2.822  18.077
  115TMC2    C2 1773   0.934   2.767  18.095
  115TMC2    C3 1774   1.039   2.853  18.061
  115TMC2    C4 1775   0.793   2.948  18.016
  115TMC2    C5 1776   0.903   3.026  17.977
  115TMC2    C6 1777   1.024   2.982  18.019
  115TMC2     C 1778   0.699   2.725  18.068
  115TMC2     O 1779   0.727   2.610  18.096
  115TMC2     H 1780   0.946   2.661  18.112
  115TMC2    H1 1781   0.694   2.989  17.997
  115TMC2    H2 1782   1.120   3.030  18.000
  115TMC2    C7 1783   0.874   3.162  18.009
  115TMC2    C8 1784   1.172   2.821  18.101
  115TMC2    O1 1785   0.800   3.184  18.103
  115TMC2    O2 1786   1.258   2.897  18.145
  115TMC2    O5 1787   1.189   2.682  18.092
  115TMC2    H5 1788   1.111   2.646  18.044
  116MPD2     C 1789   0.247   2.597  17.865
  116MPD2    C1 1790   0.369   2.534  17.858
  116MPD2    C2 1791   0.475   2.593  17.914
  116MPD2    C3 1792   0.459   2.718  17.983
  116MPD2    C4 1793   0.336   2.772  17.989
  116MPD2    C5 1794   0.228   2.715  17.932
  116MPD2     H 1795   0.574   2.552  17.900
  116MPD2    H1 1796   0.310   2.870  18.026
  116MPD2    H2 1797   0.154   2.569  17.816
  116MPD2    H3 1798   0.126   2.752  17.941
  116MPD2     N 1799   0.571   2.787  18.047
  116MPD2    H5 1800   0.555   2.885  18.066
  116MPD2    N1 1801   0.377   2.425  17.779
  116MPD2    H7 1802   0.291   2.408  17.729
  117TMC2    C1 1803   4.276   4.044  14.542
  117TMC2    C2 1804   4.391   3.971  14.545
  117TMC2    C3 1805   4.510   4.037  14.549
  117TMC2    C4 1806   4.279   4.184  14.539
  117TMC2    C5 1807   4.406   4.244  14.545
  117TMC2    C6 1808   4.523   4.169  14.551
  117TMC2     C 1809   4.146   3.974  14.543
  117TMC2     O 1810   4.139   3.863  14.595
  117TMC2     H 1811   4.381   3.863  14.554
  117TMC2    H1 1812   4.184   4.235  14.538
  117TMC2    H2 1813   4.621   4.212  14.536
  117TMC2    C7 1814   4.429   4.385  14.516
  117TMC2    C8 1815   4.631   3.962  14.555
  117TMC2    O1 1816   4.529   4.447  14.552
  117TMC2    O2 1817   4.636   3.844  14.519
  117TMC2    O5 1818   4.710   4.022  14.648
  117TMC2    H5 1819   0.000   3.961  14.673
  118MPD2     C 1820   4.179   4.585  14.352
  118MPD2    C1 1821   4.307   4.557  14.388
  118MPD2    C2 1822   4.412   4.645  14.361
  118MPD2    C3 1823   4.384   4.766  14.303
  118MPD2    C4 1824   4.251   0.015  14.265
  118MPD2    C5 1825   4.153   4.705  14.290
  118MPD2     H 1826   4.513   4.607  14.372
  118MPD2    H1 1827   4.232   0.104  14.206
  118MPD2    H2 1828   4.104   4.509  14.370
  118MPD2    H3 1829   4.051   4.721  14.259
  118MPD2     N 1830   4.486   0.076  14.269
  118MPD2    H5 1831   4.452   0.157  14.218
  118MPD2    N1 1832   4.312   4.433  14.452
  118MPD2    H7 1833   4.244   4.365  14.419
  119MPD2     C 1834   2.908   1.091  14.301
  119MPD2    C1 1835   2.783   1.099  14.251
  119MPD2    C2 1836   2.746   1.037  14.133
  119MPD2    C3 1837   2.832   0.959  14.058
  119MPD2    C4 1838   2.959   0.949  14.119
  119MPD2    C5 1839   2.994   1.015  14.231
  119MPD2     H 1840   2.646   1.057  14.095
  119MPD2    H1 1841   3.036   0.900  14.061
  119MPD2    H2 1842   2.936   1.132  14.397
  119MPD2    H3 1843   3.097   1.008  14.266
  119MPD2     N 1844   2.801   0.889  13.943
  119MPD2    H5 1845   2.865   0.823  13.900
  119MPD2    N1 1846   2.684   1.163  14.333
  119MPD2    H7 1847   2.732   1.216  14.405
  120TCq2    C1 1848   2.685   0.914  13.871
  120TCq2    O2 1849   2.615   1.016  13.878
  120TCq2    C2 1850   2.628   0.799  13.799
  120TCq2    C3 1851   2.660   0.668  13.832
  120TCq2    C4 1852   2.583   0.567  13.794
  120TCq2    C5 1853   2.463   0.590  13.732
  120TCq2    C6 1854   2.434   0.715  13.695
  120TCq2    C7 1855   2.515   0.821  13.725
  120TCq2    C8 1856   2.304   0.742  13.667
  120TCq2    O4 1857   2.270   0.832  13.591
  120TCq2    C9 1858   2.624   0.429  13.819
  120TCq2    O5 1859   2.537   0.353  13.870
  120TCq2    O6 1860   2.736   0.399  13.774
  120TCq2    H2 1861   2.747   0.657  13.896
  120TCq2    H3 1862   2.402   0.502  13.714
  120TCq2    H4 1863   2.484   0.923  13.704
  121TMC2    C1 1864   3.760   2.464  14.552
  121TMC2    C2 1865   3.731   2.356  14.631
  121TMC2    C3 1866   3.605   2.305  14.627
  121TMC2    C4 1867   3.667   2.530  14.478
  121TMC2    C5 1868   3.539   2.477  14.485
  121TMC2    C6 1869   3.503   2.368  14.560
  121TMC2     C 1870   3.902   2.501  14.552
  121TMC2     O 1871   3.967   2.464  14.652
  121TMC2     H 1872   3.807   2.312  14.693
  121TMC2    H1 1873   3.699   2.618  14.422
  121TMC2    H2 1874   3.407   2.323  14.583
  121TMC2    C7 1875   3.434   2.553  14.424
  121TMC2    C8 1876   3.567   2.229  14.740
  121TMC2    O1 1877   3.452   2.672  14.412
  121TMC2    O2 1878   3.470   2.260  14.807
  121TMC2    O5 1879   3.652   2.127  14.756
  121TMC2    H5 1880   3.709   2.117  14.677
  122MPD2     C 1881   4.180   2.597  14.481
  122MPD2    C1 1882   4.066   2.642  14.420
  122MPD2    C2 1883   4.074   2.748  14.331
  122MPD2    C3 1884   4.182   2.831  14.311
  122MPD2    C4 1885   4.292   2.778  14.375
  122MPD2    C5 1886   4.289   2.668  14.451
  122MPD2     H 1887   3.982   2.767  14.277
  122MPD2    H1 1888   4.387   2.826  14.357
  122MPD2    H2 1889   4.185   2.514  14.550
  122MPD2    H3 1890   4.387   2.646  14.492
  122MPD2     N 1891   4.197   2.915  14.205
  122MPD2    H5 1892   4.292   2.945  14.184
  122MPD2    N1 1893   3.938   2.589  14.448
  122MPD2    H7 1894   3.868   2.606  14.375
  123TMC2    C1 1895   2.273   1.115  10.352
  123TMC2    C2 1896   2.409   1.130  10.335
  123TMC2    C3 1897   2.452   1.169  10.215
  123TMC2    C4 1898   2.185   1.136  10.253
  123TMC2    C5 1899   2.234   1.174  10.137
  123TMC2    C6 1900   2.364   1.194  10.117
  123TMC2     C 1901   2.226   1.055  10.472
  123TMC2     O 1902   2.301   1.075  10.567
  123TMC2     H 1903   2.475   1.110  10.419
  123TMC2    H1 1904   2.078   1.126  10.266
  123TMC2    H2 1905   2.405   1.220  10.020
  123TMC2    C7 1906   2.166   1.184  10.006
  123TMC2    C8 1907   2.589   1.186  10.202
  123TMC2    O1 1908   2.218   1.269   9.932
  123TMC2    O2 1909   2.645   1.158  10.099
  123TMC2    O5 1910   2.625   1.273  10.296
  123TMC2    H5 1911   2.556   1.311  10.354
  124MPD2     C 1912   1.927   0.727  10.722
  124MPD2    C1 1913   1.934   0.689  10.590
  124MPD2    C2 1914   2.014   0.762  10.502
  124MPD2    C3 1915   2.072   0.879  10.548
  124MPD2    C4 1916   2.076   0.910  10.682
  124MPD2    C5 1917   2.004   0.828  10.773
  124MPD2     H 1918   2.018   0.742  10.396
  124MPD2    H1 1919   2.139   0.993  10.710
  124MPD2    H2 1920   1.877   0.670  10.800
  124MPD2    H3 1921   1.994   0.842  10.880
  124MPD2     N 1922   2.137   0.956  10.449
  124MPD2    H5 1923   2.109   0.931  10.354
  124MPD2    N1 1924   1.876   0.558  10.567
  124MPD2    H7 1925   1.834   0.502  10.641
  125TMC2    C1 1926   2.556   2.581   9.287
  125TMC2    C2 1927   2.639   2.473   9.268
  125TMC2    C3 1928   2.769   2.500   9.232
  125TMC2    C4 1929   2.594   2.704   9.259
  125TMC2    C5 1930   2.726   2.726   9.228
  125TMC2    C6 1931   2.816   2.623   9.215
  125TMC2     C 1932   2.426   2.574   9.365
  125TMC2     O 1933   2.358   2.675   9.375
  125TMC2     H 1934   2.601   2.373   9.283
  125TMC2    H1 1935   2.531   2.791   9.276
  125TMC2    H2 1936   2.916   2.645   9.182
  125TMC2    C7 1937   2.765   2.864   9.220
  125TMC2    C8 1938   2.864   2.398   9.211
  125TMC2    O1 1939   2.688   2.949   9.260
  125TMC2    O2 1940   2.975   2.414   9.159
  125TMC2    O5 1941   2.834   2.292   9.287
  125TMC2    H5 1942   2.769   2.310   9.358
  126MPD1     C 1943   2.088   2.314   9.646
  126MPD1    C1 1944   2.172   2.223   9.585
  126MPD1    C2 1945   2.275   2.267   9.508
  126MPD1    C3 1946   2.290   2.406   9.487
  126MPD1    C4 1947   2.199   2.496   9.545
  126MPD1    C5 1948   2.097   2.446   9.619
  126MPD1     H 1949   2.347   2.192   9.478
  126MPD1    H1 1950   2.194   2.602   9.520
  126MPD1    H2 1951   2.000   2.270   9.693
  126MPD1    H3 1952   2.017   2.508   9.657
  126MPD1     N 1953   2.398   2.448   9.404
  126MPD1    H5 1954   2.466   2.374   9.392
  126MPD1    N1 1955   2.159   2.088   9.624
  126MPD1    H6 1956   2.205   2.030   9.554
  126MPD1    H7 1957   2.062   2.058   9.622
  127TMC2    C1 1958   4.011   1.573  10.027
  127TMC2    C2 1959   4.053   1.533  10.154
  127TMC2    C3 1960   3.991   1.427  10.218
  127TMC2    C4 1961   3.919   1.501   9.957
  127TMC2    C5 1962   3.864   1.394  10.015
  127TMC2    C6 1963   3.893   1.362  10.146
  127TMC2     C 1964   4.064   1.698   9.970
  127TMC2     O 1965   4.107   1.782  10.049
  127TMC2     H 1966   4.121   1.591  10.215
  127TMC2    H1 1967   3.883   1.533   9.860
  127TMC2    H2 1968   3.828   1.296  10.202
  127TMC2    C7 1969   3.744   1.344   9.945
  127TMC2    C8 1970   4.031   1.374  10.349
  127TMC2    O1 1971   3.704   1.409   9.855
  127TMC2    O2 1972   4.150   1.384  10.388
  127TMC2    O5 1973   3.913   1.372  10.415
  127TMC2    H5 1974   3.831   1.391  10.365
  128MPD2     C 1975   4.003   1.835   9.631
  128MPD2    C1 1976   4.069   1.829   9.753
  128MPD2    C2 1977   4.152   1.934   9.782
  128MPD2    C3 1978   4.168   2.045   9.696
  128MPD2    C4 1979   4.106   2.037   9.567
  128MPD2    C5 1980   4.024   1.936   9.539
  128MPD2     H 1981   4.194   1.935   9.882
  128MPD2    H1 1982   4.114   2.120   9.498
  128MPD2    H2 1983   3.935   1.755   9.602
  128MPD2    H3 1984   3.961   1.939   9.451
  128MPD2     N 1985   4.250   2.153   9.742
  128MPD2    H5 1986   4.288   2.143   9.836
  128MPD2    N1 1987   4.040   1.717   9.833
  128MPD2    H7 1988   4.004   1.635   9.785
  129TMC2    C1 1989   2.443   2.631  19.635
  129TMC2    C2 1990   2.538   2.689  19.703
  129TMC2    C3 1991   2.541   2.656  19.838
  129TMC2    C4 1992   2.349   2.543  19.680
  129TMC2    C5 1993   2.364   2.505  19.809
  129TMC2    C6 1994   2.455   2.562  19.893
  129TMC2     C 1995   2.462   2.633  19.486
  129TMC2     O 1996   2.387   2.560  19.421
  129TMC2     H 1997   2.591   2.779  19.675
  129TMC2    H1 1998   2.265   2.522  19.615
  129TMC2    H2 1999   2.449   2.542  20.000
  129TMC2    C7 2000   2.295   2.377  19.842
  129TMC2    C8 2001   2.633   2.715  19.932
  129TMC2    O1 2002   2.230   2.341  19.746
  129TMC2    O2 2003   2.628   2.708  20.055
  129TMC2    O5 2004   2.750   2.710  19.865
  129TMC2    H5 2005   2.757   2.669  19.776
  130MPD2     C 2006   2.587   2.624  19.214
  130MPD2    C1 2007   2.642   2.689  19.324
  130MPD2    C2 2008   2.753   2.778  19.302
  130MPD2    C3 2009   2.817   2.780  19.175
  130MPD2    C4 2010   2.745   2.718  19.066
  130MPD2    C5 2011   2.631   2.650  19.087
  130MPD2     H 2012   2.785   2.831  19.392
  130MPD2    H1 2013   2.785   2.731  18.966
  130MPD2    H2 2014   2.495   2.567  19.225
  130MPD2    H3 2015   2.580   2.591  19.011
  130MPD2     N 2016   2.933   2.855  19.148
  130MPD2    H5 2017   2.973   2.901  19.230
  130MPD2    N1 2018   2.578   2.690  19.453
  130MPD2    H7 2019   2.633   2.718  19.533
  131TMC2    C1 2020   1.758   1.168  10.298
  131TMC2    C2 2021   1.848   1.181  10.398
  131TMC2    C3 2022   1.921   1.296  10.394
  131TMC2    C4 2023   1.750   1.250  10.188
  131TMC2    C5 2024   1.838   1.357  10.185
  131TMC2    C6 2025   1.926   1.385  10.281
  131TMC2     C 2026   1.697   1.026  10.286
  131TMC2     O 2027   1.738   0.949  10.367
  131TMC2     H 2028   1.843   1.119  10.487
  131TMC2    H1 2029   1.689   1.226  10.102
  131TMC2    H2 2030   1.994   1.469  10.274
  131TMC2    C7 2031   1.865   1.408  10.052
  131TMC2    C8 2032   1.999   1.337  10.512
  131TMC2    O1 2033   1.826   1.345   9.956
  131TMC2    O2 2034   1.990   1.283  10.623
  131TMC2    O5 2035   2.106   1.404  10.459
  131TMC2    H5 2036   2.177   1.408  10.526
  132MPD2     C 2037   1.436   0.901  10.059
  132MPD2    C1 2038   1.527   0.898  10.163
  132MPD2    C2 2039   1.563   0.770  10.207
  132MPD2    C3 2040   1.519   0.653  10.152
  132MPD2    C4 2041   1.436   0.665  10.040
  132MPD2    C5 2042   1.381   0.784  10.010
  132MPD2     H 2043   1.631   0.750  10.289
  132MPD2    H1 2044   1.399   0.571  10.001
  132MPD2    H2 2045   1.389   0.995  10.031
  132MPD2    H3 2046   1.309   0.800   9.931
  132MPD2     N 2047   1.565   0.537  10.213
  132MPD2    H5 2048   1.640   0.556  10.277
  132MPD2    N1 2049   1.600   1.020  10.193
  132MPD2    H7 2050   1.589   1.109  10.145
  133MPD2     C 2051   0.641   2.281   9.282
  133MPD2    C1 2052   0.750   2.233   9.351
  133MPD2    C2 2053   0.735   2.116   9.426
  133MPD2    C3 2054   0.627   2.038   9.425
  133MPD2    C4 2055   0.517   2.091   9.351
  133MPD2    C5 2056   0.526   2.210   9.277
  133MPD2     H 2057   0.819   2.093   9.491
  133MPD2    H1 2058   0.425   2.036   9.334
  133MPD2    H2 2059   0.644   2.376   9.229
  133MPD2    H3 2060   0.443   2.248   9.218
  133MPD2     N 2061   0.619   1.913   9.496
  133MPD2    H5 2062   0.526   1.875   9.505
  133MPD2    N1 2063   0.865   2.313   9.346
  133MPD2    H7 2064   0.847   2.402   9.300
  134TCq2    C1 2065   0.987   2.276   9.399
  134TCq2    O2 2066   1.025   2.169   9.444
  134TCq2    C2 2067   1.081   2.387   9.394
  134TCq2    C3 2068   1.212   2.365   9.427
  134TCq2    C4 2069   1.301   2.464   9.422
  134TCq2    C5 2070   1.263   2.593   9.410
  134TCq2    C6 2071   1.132   2.618   9.389
  134TCq2    C7 2072   1.043   2.519   9.377
  134TCq2    C8 2073   1.091   2.755   9.394
  134TCq2    O4 2074   1.174   2.840   9.425
  134TCq2    C9 2075   1.440   2.438   9.445
  134TCq2    O5 2076   1.518   2.537   9.428
  134TCq2    O6 2077   1.473   2.317   9.457
  134TCq2    H2 2078   1.229   2.260   9.446
  134TCq2    H3 2079   1.339   2.671   9.413
  134TCq2    H4 2080   0.936   2.536   9.365
  135TMC2    C1 2081   3.383   3.536  10.133
  135TMC2    C2 2082   3.300   3.608  10.216
  135TMC2    C3 2083   3.213   3.535  10.295
  135TMC2    C4 2084   3.363   3.401  10.110
  135TMC2    C5 2085   3.268   3.339  10.187
  135TMC2    C6 2086   3.185   3.403  10.274
  135TMC2     C 2087   3.495   3.604  10.073
  135TMC2     O 2088   3.525   3.710  10.125
  135TMC2     H 2089   3.325   3.713  10.226
  135TMC2    H1 2090   3.429   3.335  10.055
  135TMC2    H2 2091   3.096   3.362  10.321
  135TMC2    C7 2092   3.257   3.197  10.168
  135TMC2    C8 2093   3.099   3.604  10.354
  135TMC2    O1 2094   3.273   3.160  10.052
  135TMC2    O2 2095   3.056   3.710  10.313
  135TMC2    O5 2096   3.075   3.549  10.472
  135TMC2    H5 2097   3.132   3.478  10.509
  136MPD2     C 2098   3.761   3.649   9.949
  136MPD2    C1 2099   3.655   3.584   9.889
  136MPD2    C2 2100   3.678   3.537   9.758
  136MPD2    C3 2101   3.794   3.557   9.691
  136MPD2    C4 2102   3.898   3.619   9.755
  136MPD2    C5 2103   3.877   3.673   9.875
  136MPD2     H 2104   3.603   3.479   9.705
  136MPD2    H1 2105   3.995   3.634   9.707
  136MPD2    H2 2106   3.745   3.695  10.046
  136MPD2    H3 2107   3.959   3.715   9.933
  136MPD2     N 2108   3.824   3.524   9.557
  136MPD2    H5 2109   3.921   3.534   9.527
  136MPD2    N1 2110   3.538   3.552   9.952
  136MPD2    H7 2111   3.484   3.475   9.912
  137TMC2    C1 2112   3.328   2.276   9.573
  137TMC2    C2 2113   3.395   2.286   9.452
  137TMC2    C3 2114   3.370   2.384   9.363
  137TMC2    C4 2115   3.230   2.373   9.602
  137TMC2    C5 2116   3.192   2.451   9.495
  137TMC2    C6 2117   3.259   2.461   9.376
  137TMC2     C 2118   3.363   2.187   9.680
  137TMC2     O 2119   3.369   2.227   9.796
  137TMC2     H 2120   3.477   2.218   9.434
  137TMC2    H1 2121   3.175   2.376   9.696
  137TMC2    H2 2122   3.226   2.530   9.298
  137TMC2    C7 2123   3.074   2.528   9.489
  137TMC2    C8 2124   3.429   2.383   9.234
  137TMC2    O1 2125   3.071   2.631   9.423
  137TMC2    O2 2126   3.452   2.490   9.181
  137TMC2    O5 2127   3.401   2.266   9.178
  137TMC2    H5 2128   3.352   2.217   9.247
  138MPD2     C 2129   3.387   1.825   9.651
  138MPD2    C1 2130   3.391   1.945   9.717
  138MPD2    C2 2131   3.397   1.948   9.858
  138MPD2    C3 2132   3.400   1.826   9.924
  138MPD2    C4 2133   3.397   1.708   9.854
  138MPD2    C5 2134   3.401   1.710   9.719
  138MPD2     H 2135   3.414   2.038   9.917
  138MPD2    H1 2136   3.403   1.609   9.898
  138MPD2    H2 2137   3.400   1.829   9.544
  138MPD2    H3 2138   3.383   1.616   9.669
  138MPD2     N 2139   3.402   1.829  10.067
  138MPD2    H5 2140   3.396   1.922  10.109
  138MPD2    N1 2141   3.386   2.055   9.634
  138MPD2    H7 2142   3.397   2.046   9.533
  139TMC2    C1 2143   4.017   0.304  13.846
  139TMC2    C2 2144   4.081   0.362  13.742
  139TMC2    C3 2145   4.090   0.492  13.741
  139TMC2    C4 2146   3.958   0.379  13.943
  139TMC2    C5 2147   3.962   0.520  13.933
  139TMC2    C6 2148   4.031   0.575  13.832
  139TMC2     C 2149   4.066   0.165  13.865
  139TMC2     O 2150   4.163   0.132  13.800
  139TMC2     H 2151   4.120   0.297  13.664
  139TMC2    H1 2152   3.910   0.332  14.028
  139TMC2    H2 2153   4.040   0.683  13.839
  139TMC2    C7 2154   3.900   0.610  14.028
  139TMC2    C8 2155   4.182   0.550  13.637
  139TMC2    O1 2156   3.873   0.725  13.997
  139TMC2    O2 2157   4.219   0.480  13.542
  139TMC2    O5 2158   4.249   0.654  13.697
  139TMC2    H5 2159   4.259   0.653  13.795
  140MPD2     C 2160   3.900   4.672  14.049
  140MPD2    C1 2161   3.993   4.738  13.969
  140MPD2    C2 2162   4.103   4.665  13.931
  140MPD2    C3 2163   4.123   4.530  13.962
  140MPD2    C4 2164   4.029   4.467  14.040
  140MPD2    C5 2165   3.924   4.544  14.086
  140MPD2     H 2166   4.180   4.709  13.868
  140MPD2    H1 2167   4.035   4.363  14.071
  140MPD2    H2 2168   3.824   4.730  14.099
  140MPD2    H3 2169   3.860   4.495  14.158
  140MPD2     N 2170   4.236   4.467  13.907
  140MPD2    H5 2171   4.279   4.520  13.831
  140MPD2    N1 2172   3.976   0.089  13.930
  140MPD2    H7 2173   3.888   0.129  13.961
  141TMC2    C1 2174   4.363   1.409  15.010
  141TMC2    C2 2175   4.431   1.298  15.052
  141TMC2    C3 2176   4.448   1.277  15.186
  141TMC2    C4 2177   4.300   1.496  15.095
  141TMC2    C5 2178   4.330   1.472  15.228
  141TMC2    C6 2179   4.393   1.360  15.274
  141TMC2     C 2180   4.354   1.439  14.867
  141TMC2     O 2181   4.260   1.515  14.843
  141TMC2     H 2182   4.484   1.230  14.985
  141TMC2    H1 2183   4.247   1.585  15.065
  141TMC2    H2 2184   4.420   1.356  15.379
  141TMC2    C7 2185   4.302   1.579  15.330
  141TMC2    C8 2186   4.539   1.180  15.242
  141TMC2    O1 2187   4.313   1.554  15.449
  141TMC2    O2 2188   4.535   1.145  15.360
  141TMC2    O5 2189   4.637   1.151  15.158
  141TMC2    H5 2190   4.633   1.203  15.075
  142TMC2    C1 2191   2.304   0.463  10.449
  142TMC2    C2 2192   2.419   0.496  10.513
  142TMC2    C3 2193   2.500   0.580  10.445
  142TMC2    C4 2194   2.263   0.526  10.340
  142TMC2    C5 2195   2.349   0.615  10.276
  142TMC2    C6 2196   2.474   0.636  10.327
  142TMC2     C 2197   2.201   0.385  10.507
  142TMC2     O 2198   2.119   0.324  10.442
  142TMC2     H 2199   2.448   0.436  10.599
  142TMC2    H1 2200   2.168   0.494  10.298
  142TMC2    H2 2201   2.536   0.714  10.285
  142TMC2    C7 2202   2.288   0.727  10.203
  142TMC2    C8 2203   2.641   0.571  10.482
  142TMC2    O1 2204   2.355   0.831  10.197
  142TMC2    O2 2205   2.728   0.597  10.396
  142TMC2    O5 2206   2.672   0.568  10.616
  142TMC2    H5 2207   2.590   0.575  10.670
  143MPD2     C 2208   1.898   0.261  10.889
  143MPD2    C1 2209   1.930   0.192  10.772
  143MPD2    C2 2210   2.028   0.237  10.691
  143MPD2    C3 2211   2.104   0.348  10.724
  143MPD2    C4 2212   2.079   0.413  10.848
  143MPD2    C5 2213   1.974   0.368  10.925
  143MPD2     H 2214   2.060   0.187  10.600
  143MPD2    H1 2215   2.125   0.506  10.879
  143MPD2    H2 2216   1.827   0.222  10.961
  143MPD2    H3 2217   1.974   0.413  11.024
  143MPD2     N 2218   2.199   0.416  10.646
  143MPD2    H5 2219   2.262   0.484  10.686
  143MPD2    N1 2220   1.853   0.073  10.749
  143MPD2    H7 2221   1.819   0.033  10.836
  144TMC2    C1 2222   0.276   4.388  19.174
  144TMC2    C2 2223   0.158   4.367  19.236
  144TMC2    C3 2224   0.126   4.453  19.335
  144TMC2    C4 2225   0.363   4.491  19.201
  144TMC2    C5 2226   0.327   4.580  19.304
  144TMC2    C6 2227   0.211   4.557  19.375
  144TMC2     C 2228   0.267   4.352  19.034
  144TMC2     O 2229   0.231   4.240  19.015
  144TMC2     H 2230   0.086   4.287  19.216
  144TMC2    H1 2231   0.454   4.504  19.143
  144TMC2    H2 2232   0.194   4.621  19.461
  144TMC2    C7 2233   0.437   4.645  19.367
  144TMC2    C8 2234   0.021   4.406  19.427
  144TMC2    O1 2235   0.545   4.593  19.346
  144TMC2    O2 2236   4.712   4.333  19.395
  144TMC2    O5 2237   0.058   4.419  19.557
  144TMC2    H5 2238   0.142   4.469  19.566
  145MPD2     C 2239   0.187   4.515  18.565
  145MPD2    C1 2240   0.166   4.393  18.621
  145MPD2    C2 2241   0.210   4.367  18.750
  145MPD2    C3 2242   0.269   4.470  18.823
  145MPD2    C4 2243   0.304   4.589  18.760
  145MPD2    C5 2244   0.258   4.609  18.628
  145MPD2     H 2245   0.188   4.271  18.795
  145MPD2    H1 2246   0.363   4.670  18.801
  145MPD2    H2 2247   0.157   4.551  18.467
  145MPD2    H3 2248   0.292   4.699  18.579
  145MPD2     N 2249   0.296   4.457  18.959
  145MPD2    H5 2250   0.305   4.552  18.993
  145MPD2    N1 2251   0.089   4.285  18.552
  145MPD2    H7 2252   0.091   4.195  18.600
  146TMC2    C1 2253   1.178   2.719  12.521
  146TMC2    C2 2254   1.062   2.686  12.456
  146TMC2    C3 2255   1.085   2.595  12.352
  146TMC2    C4 2256   1.306   2.681  12.485
  146TMC2    C5 2257   1.316   2.597  12.379
  146TMC2    C6 2258   1.209   2.558  12.307
  146TMC2     C 2259   1.170   2.817  12.635
  146TMC2     O 2260   1.101   2.920  12.623
  146TMC2     H 2261   0.961   2.717  12.482
  146TMC2    H1 2262   1.384   2.745  12.525
  146TMC2    H2 2263   1.222   2.488  12.225
  146TMC2    C7 2264   1.445   2.553  12.331
  146TMC2    C8 2265   0.972   2.556  12.277
  146TMC2    O1 2266   1.457   2.527  12.212
  146TMC2    O2 2267   0.867   2.616  12.270
  146TMC2    O5 2268   0.997   2.435  12.225
  146TMC2    H5 2269   1.072   2.390  12.269
  147MPD2     C 2270   1.943   2.555  12.455
  147MPD2    C1 2271   1.869   2.560  12.563
  147MPD2    C2 2272   1.732   2.548  12.549
  147MPD2    C3 2273   1.672   2.530  12.433
  147MPD2    C4 2274   1.748   2.542  12.319
  147MPD2    C5 2275   1.886   2.555  12.332
  147MPD2     H 2276   1.664   2.543  12.633
  147MPD2    H1 2277   1.712   2.554  12.218
  147MPD2    H2 2278   2.051   2.550  12.464
  147MPD2    H3 2279   1.946   2.569  12.244
  147MPD2     N 2280   1.531   2.548  12.443
  147MPD2    H5 2281   1.496   2.556  12.538
  147MPD2    N1 2282   1.933   2.561  12.691
  147MPD2    H7 2283   2.029   2.533  12.703
  148MPD2     C 2284   1.345   1.656  11.451
  148MPD2    C1 2285   1.445   1.676  11.357
  148MPD2    C2 2286   1.435   1.633  11.224
  148MPD2    C3 2287   1.320   1.555  11.191
  148MPD2    C4 2288   1.223   1.539  11.288
  148MPD2    C5 2289   1.234   1.580  11.417
  148MPD2     H 2290   1.507   1.648  11.145
  148MPD2    H1 2291   1.136   1.483  11.256
  148MPD2    H2 2292   1.348   1.693  11.552
  148MPD2    H3 2293   1.171   1.539  11.495
  148MPD2     N 2294   1.298   1.507  11.057
  148MPD2    H5 2295   1.229   1.433  11.056
  148MPD2    N1 2296   1.565   1.738  11.398
  148MPD2    H7 2297   1.642   1.727  11.332
  149TCq2    C1 2298   1.579   1.813  11.506
  149TCq2    O2 2299   1.495   1.877  11.567
  149TCq2    C2 2300   1.718   1.856  11.510
  149TCq2    C3 2301   1.731   1.985  11.488
  149TCq2    C4 2302   1.849   2.025  11.435
  149TCq2    C5 2303   1.938   1.936  11.379
  149TCq2    C6 2304   1.915   1.801  11.396
  149TCq2    C7 2305   1.810   1.761  11.472
  149TCq2    C8 2306   1.905   1.730  11.275
  149TCq2    O4 2307   1.802   1.667  11.256
  149TCq2    C9 2308   1.856   2.163  11.392
  149TCq2    O5 2309   1.969   2.214  11.360
  149TCq2    O6 2310   1.769   2.234  11.447
  149TCq2    H2 2311   1.654   2.054  11.522
  149TCq2    H3 2312   2.030   1.971  11.332
  149TCq2    H4 2313   1.791   1.657  11.497
  150TMC2    C1 2314   3.461   0.813  12.579
  150TMC2    C2 2315   3.437   0.838  12.445
  150TMC2    C3 2316   3.537   0.888  12.369
  150TMC2    C4 2317   3.582   0.826  12.633
  150TMC2    C5 2318   3.683   0.877  12.555
  150TMC2    C6 2319   3.663   0.911  12.422
  150TMC2     C 2320   3.342   0.796  12.665
  150TMC2     O 2321   3.355   0.756  12.777
  150TMC2     H 2322   3.337   0.826  12.405
  150TMC2    H1 2323   3.587   0.823  12.741
  150TMC2    H2 2324   3.744   0.944  12.358
  150TMC2    C7 2325   3.802   0.928  12.613
  150TMC2    C8 2326   3.515   0.914  12.223
  150TMC2    O1 2327   3.865   1.010  12.547
  150TMC2    O2 2328   3.405   0.923  12.167
  150TMC2    O5 2329   3.630   0.881  12.163
  150TMC2    H5 2330   3.699   0.852  12.227
  151MPD2     C 2331   2.828   0.771  12.706
  151MPD2    C1 2332   2.847   0.843  12.593
  151MPD2    C2 2333   2.980   0.878  12.572
  151MPD2    C3 2334   3.092   0.822  12.642
  151MPD2    C4 2335   3.060   0.751  12.754
  151MPD2    C5 2336   2.931   0.733  12.790
  151MPD2     H 2337   3.001   0.924  12.476
  151MPD2    H1 2338   3.129   0.716  12.830
  151MPD2    H2 2339   2.733   0.751  12.754
  151MPD2    H3 2340   2.911   0.674  12.879
  151MPD2     N 2341   3.225   0.840  12.604
  151MPD2    H5 2342   3.235   0.901  12.524
  151MPD2    N1 2343   2.739   0.859  12.512
  151MPD2    H7 2344   2.654   0.813  12.544
  152TMC2    C1 2345   3.356   0.570  13.096
  152TMC2    C2 2346   3.420   0.450  13.133
  152TMC2    C3 2347   3.554   0.447  13.135
  152TMC2    C4 2348   3.428   0.682  13.075
  152TMC2    C5 2349   3.568   0.683  13.083
  152TMC2    C6 2350   3.634   0.563  13.115
  152TMC2     C 2351   3.212   0.588  13.099
  152TMC2     O 2352   3.168   0.703  13.086
  152TMC2     H 2353   3.368   0.359  13.160
  152TMC2    H1 2354   3.375   0.775  13.054
  152TMC2    H2 2355   3.741   0.551  13.107
  152TMC2    C7 2356   3.640   0.809  13.088
  152TMC2    C8 2357   3.624   0.335  13.196
  152TMC2    O1 2358   3.576   0.905  13.043
  152TMC2    O2 2359   3.722   0.280  13.147
  152TMC2    O5 2360   3.546   0.292  13.299
  152TMC2    H5 2361   3.495   0.366  13.339
  153MPD2     C 2362   2.944   0.332  13.088
  153MPD2    C1 2363   3.001   0.455  13.108
  153MPD2    C2 2364   2.917   0.560  13.122
  153MPD2    C3 2365   2.775   0.548  13.107
  153MPD2    C4 2366   2.720   0.424  13.083
  153MPD2    C5 2367   2.806   0.321  13.086
  153MPD2     H 2368   2.951   0.659  13.148
  153MPD2    H1 2369   2.616   0.396  13.078
  153MPD2    H2 2370   3.009   0.245  13.087
  153MPD2    H3 2371   2.763   0.223  13.067
  153MPD2     N 2372   2.702   0.662  13.122
  153MPD2    H5 2373   2.746   0.741  13.169
  153MPD2    N1 2374   3.144   0.464  13.106
  153MPD2    H7 2375   3.190   0.375  13.120
  154TMC2    C1 2376   0.394   0.572  18.738
  154TMC2    C2 2377   0.401   0.585  18.873
  154TMC2    C3 2378   0.525   0.561  18.927
  154TMC2    C4 2379   0.507   0.536  18.661
  154TMC2    C5 2380   0.630   0.515  18.727
  154TMC2    C6 2381   0.638   0.520  18.863
  154TMC2     C 2382   0.259   0.564  18.679
  154TMC2     O 2383   0.170   0.632  18.728
  154TMC2     H 2384   0.318   0.617  18.936
  154TMC2    H1 2385   0.503   0.528  18.553
  154TMC2    H2 2386   0.731   0.512  18.918
  154TMC2    C7 2387   0.751   0.473  18.660
  154TMC2    C8 2388   0.529   0.565  19.077
  154TMC2    O1 2389   0.832   0.401  18.721
  154TMC2    O2 2390   0.444   0.627  19.138
  154TMC2    O5 2391   0.598   0.460  19.123
  154TMC2    H5 2392   0.633   0.395  19.058
  155MPD2     C 2393   0.173   0.397  18.362
  155MPD2    C1 2394   0.155   0.486  18.467
  155MPD2    C2 2395   0.045   0.570  18.473
  155MPD2    C3 2396   4.730   0.559  18.380
  155MPD2    C4 2397   4.733   0.459  18.284
  155MPD2    C5 2398   0.069   0.384  18.275
  155MPD2     H 2399   0.031   0.653  18.540
  155MPD2    H1 2400   4.656   0.449  18.209
  155MPD2    H2 2401   0.266   0.343  18.352
  155MPD2    H3 2402   0.079   0.312  18.194
  155MPD2     N 2403   4.619   0.654  18.395
  155MPD2    H5 2404   4.621   0.718  18.473
  155MPD2    N1 2405   0.261   0.485  18.565
  155MPD2    H7 2406   0.348   0.440  18.539
  156TMC2    C1 2407   3.368   3.403  11.939
  156TMC2    C2 2408   3.406   3.311  11.842
  156TMC2    C3 2409   3.328   3.297  11.725
  156TMC2    C4 2410   3.267   3.491  11.909
  156TMC2    C5 2411   3.201   3.484  11.789
  156TMC2    C6 2412   3.229   3.387  11.700
  156TMC2     C 2413   3.438   3.430  12.062
  156TMC2     O 2414   3.406   3.529  12.125
  156TMC2     H 2415   3.486   3.244  11.871
  156TMC2    H1 2416   3.241   3.569  11.980
  156TMC2    H2 2417   3.179   3.388  11.603
  156TMC2    C7 2418   3.133   3.604  11.749
  156TMC2    C8 2419   3.365   3.206  11.616
  156TMC2    O1 2420   3.119   3.620  11.628
  156TMC2    O2 2421   3.310   3.210  11.507
  156TMC2    O5 2422   3.461   3.116  11.658
  156TMC2    H5 2423   3.480   3.102  11.753
  157MPD2     C 2424   3.663   3.199  12.261
  157MPD2    C1 2425   3.590   3.314  12.233
  157MPD2    C2 2426   3.587   3.410  12.328
  157MPD2    C3 2427   3.649   3.392  12.448
  157MPD2    C4 2428   3.730   3.286  12.476
  157MPD2    C5 2429   3.732   3.183  12.380
  157MPD2     H 2430   3.538   3.506  12.314
  157MPD2    H1 2431   3.778   3.266  12.571
  157MPD2    H2 2432   3.659   3.116  12.191
  157MPD2    H3 2433   3.795   3.095  12.389
  157MPD2     N 2434   3.648   3.504  12.538
  157MPD2    H5 2435   3.593   3.584  12.509
  157MPD2    N1 2436   3.522   3.330  12.104
  157MPD2    H7 2437   3.521   3.245  12.049
  158TMC2    C1 2438   3.999   1.803  13.849
  158TMC2    C2 2439   4.016   1.912  13.766
  158TMC2    C3 2440   3.900   1.957  13.708
  158TMC2    C4 2441   3.873   1.751  13.879
  158TMC2    C5 2442   3.759   1.810  13.824
  158TMC2    C6 2443   3.773   1.914  13.743
  158TMC2     C 2444   4.125   1.746  13.896
  158TMC2     O 2445   4.223   1.770  13.826
  158TMC2     H 2446   4.110   1.962  13.745
  158TMC2    H1 2447   3.872   1.666  13.945
  158TMC2    H2 2448   3.691   1.963  13.692
  158TMC2    C7 2449   3.625   1.795  13.883
  158TMC2    C8 2450   3.901   2.092  13.662
  158TMC2    O1 2451   3.552   1.892  13.854
  158TMC2    O2 2452   3.831   2.178  13.714
  158TMC2    O5 2453   4.004   2.104  13.573
  158TMC2    H5 2454   4.039   2.017  13.545
  159MPD2     C 2455   3.957   1.691  14.371
  159MPD2    C1 2456   4.028   1.574  14.334
  159MPD2    C2 2457   4.074   1.574  14.209
  159MPD2    C3 2458   4.053   1.675  14.122
  159MPD2    C4 2459   3.993   1.799  14.158
  159MPD2    C5 2460   3.933   1.795  14.286
  159MPD2     H 2461   4.105   1.474  14.182
  159MPD2    H1 2462   3.986   1.888  14.096
  159MPD2    H2 2463   3.920   1.702  14.472
  159MPD2    H3 2464   3.874   1.878  14.324
  159MPD2     N 2465   4.120   1.658  14.003
  159MPD2    H5 2466   4.200   1.597  14.018
  159MPD2    N1 2467   4.053   1.474  14.426
  159MPD2    H7 2468   3.986   1.476  14.501
  160TMC2    C1 2469   3.655   0.112  19.493
  160TMC2    C2 2470   3.705   0.049  19.606
  160TMC2    C3 2471   3.823   4.768  19.596
  160TMC2    C4 2472   3.740   0.131  19.379
  160TMC2    C5 2473   3.845   0.052  19.370
  160TMC2    C6 2474   3.892   4.766  19.476
  160TMC2     C 2475   3.516   0.152  19.497
  160TMC2     O 2476   3.431   0.089  19.561
  160TMC2     H 2477   3.639   0.035  19.690
  160TMC2    H1 2478   3.690   0.188  19.302
  160TMC2    H2 2479   3.978   4.701  19.467
  160TMC2    C7 2480   3.956   0.085  19.279
  160TMC2    C8 2481   3.838   4.654  19.680
  160TMC2    O1 2482   4.047   0.003  19.259
  160TMC2    O2 2483   3.744   4.585  19.722
  160TMC2    O5 2484   3.971   4.620  19.690
  160TMC2    H5 2485   4.030   4.688  19.652
  161MPD2     C 2486   3.255   0.237  19.379
  161MPD2    C1 2487   3.373   0.313  19.375
  161MPD2    C2 2488   3.371   0.435  19.315
  161MPD2    C3 2489   3.260   0.482  19.239
  161MPD2    C4 2490   3.146   0.405  19.243
  161MPD2    C5 2491   3.138   0.291  19.321
  161MPD2     H 2492   3.463   0.491  19.302
  161MPD2    H1 2493   3.049   0.433  19.204
  161MPD2    H2 2494   3.233   0.140  19.422
  161MPD2    H3 2495   3.041   0.242  19.326
  161MPD2     N 2496   3.242   0.601  19.166
  161MPD2    H5 2497   3.160   0.609  19.108
  161MPD2    N1 2498   3.495   0.267  19.422
  161MPD2    H7 2499   3.572   0.328  19.396
  162TMC2    C1 2500   1.475   2.050  18.735
  162TMC2    C2 2501   1.497   2.053  18.599
  162TMC2    C3 2502   1.624   2.038  18.553
  162TMC2    C4 2503   1.581   2.044  18.822
  162TMC2    C5 2504   1.704   2.026  18.772
  162TMC2    C6 2505   1.726   2.015  18.639
  162TMC2     C 2506   1.347   2.091  18.799
  162TMC2     O 2507   1.373   2.150  18.901
  162TMC2     H 2508   1.417   2.069  18.527
  162TMC2    H1 2509   1.574   2.057  18.929
  162TMC2    H2 2510   1.823   1.999  18.593
  162TMC2    C7 2511   1.817   2.003  18.862
  162TMC2    C8 2512   1.652   2.040  18.413
  162TMC2    O1 2513   1.925   1.981  18.807
  162TMC2    O2 2514   1.598   2.121  18.335
  162TMC2    O5 2515   1.707   1.925  18.375
  162TMC2    H5 2516   1.725   1.867  18.453
  163MPD2     C 2517   1.128   1.884  18.383
  163MPD2    C1 2518   1.228   1.835  18.470
  163MPD2    C2 2519   1.245   1.892  18.595
  163MPD2    C3 2520   1.190   2.021  18.615
  163MPD2    C4 2521   1.089   2.070  18.533
  163MPD2    C5 2522   1.061   2.002  18.419
  163MPD2     H 2523   1.313   1.856  18.671
  163MPD2    H1 2524   1.036   2.158  18.567
  163MPD2    H2 2525   1.121   1.839  18.285
  163MPD2    H3 2526   0.994   2.053  18.351
  163MPD2     N 2527   1.233   2.109  18.725
  163MPD2    H5 2528   1.191   2.201  18.733
  163MPD2    N1 2529   1.322   1.742  18.422
  163MPD2    H7 2530   1.309   1.709  18.327
  164TMC2    C1 2531   1.918   1.429  11.651
  164TMC2    C2 2532   2.005   1.528  11.655
  164TMC2    C3 2533   1.972   1.633  11.736
  164TMC2    C4 2534   1.795   1.433  11.717
  164TMC2    C5 2535   1.770   1.541  11.797
  164TMC2    C6 2536   1.855   1.648  11.803
  164TMC2     C 2537   1.949   1.315  11.566
  164TMC2     O 2538   1.891   1.211  11.589
  164TMC2     H 2539   2.109   1.507  11.635
  164TMC2    H1 2540   1.719   1.356  11.715
  164TMC2    H2 2541   1.829   1.743  11.849
  164TMC2    C7 2542   1.636   1.587  11.806
  164TMC2    C8 2543   2.063   1.745  11.740
  164TMC2    O1 2544   1.558   1.555  11.716
  164TMC2    O2 2545   2.046   1.860  11.712
  164TMC2    O5 2546   2.176   1.698  11.792
  164TMC2    H5 2547   2.172   1.610  11.834
  165TMC2    C1 2548   3.099   3.843  19.258
  165TMC2    C2 2549   3.120   3.711  19.287
  165TMC2    C3 2550   3.202   3.680  19.392
  165TMC2    C4 2551   3.165   3.947  19.326
  165TMC2    C5 2552   3.241   3.907  19.434
  165TMC2    C6 2553   3.259   3.775  19.472
  165TMC2     C 2554   3.013   3.883  19.148
  165TMC2     O 2555   2.960   3.995  19.151
  165TMC2     H 2556   3.081   3.630  19.226
  165TMC2    H1 2557   3.139   4.048  19.296
  165TMC2    H2 2558   3.329   3.754  19.552
  165TMC2    C7 2559   3.343   3.999  19.490
  165TMC2    C8 2560   3.207   3.541  19.423
  165TMC2    O1 2561   3.446   3.947  19.532
  165TMC2    O2 2562   3.105   3.474  19.404
  165TMC2    O5 2563   3.306   3.519  19.509
  165TMC2    H5 2564   3.384   3.575  19.488
  166MPD2     C 2565   2.756   3.769  18.708
  166MPD2    C1 2566   2.726   3.861  18.812
  166MPD2    C2 2567   2.808   3.861  18.927
  166MPD2    C3 2568   2.924   3.788  18.932
  166MPD2    C4 2569   2.955   3.716  18.820
  166MPD2    C5 2570   2.865   3.697  18.719
  166MPD2     H 2571   2.777   3.924  19.010
  166MPD2    H1 2572   3.045   3.656  18.827
  166MPD2    H2 2573   2.694   3.758  18.619
  166MPD2    H3 2574   2.893   3.633  18.635
  166MPD2     N 2575   3.013   3.790  19.047
  166MPD2    H5 2576   3.093   3.729  19.043
  166MPD2    N1 2577   2.596   3.918  18.809
  166MPD2    H7 2578   2.555   3.914  18.716
  167TMC2    C1 2579   1.269   1.510  13.065
  167TMC2    C2 2580   1.203   1.542  13.175
  167TMC2    C3 2581   1.188   1.441  13.266
  167TMC2    C4 2582   1.313   1.388  13.033
  167TMC2    C5 2583   1.294   1.288  13.125
  167TMC2    C6 2584   1.228   1.308  13.241
  167TMC2     C 2585   1.304   1.621  12.969
  167TMC2     O 2586   1.237   1.720  12.972
  167TMC2     H 2587   1.175   1.645  13.195
  167TMC2    H1 2588   1.357   1.367  12.936
  167TMC2    H2 2589   1.234   1.227  13.312
  167TMC2    C7 2590   1.341   1.145  13.101
  167TMC2    C8 2591   1.111   1.467  13.386
  167TMC2    O1 2592   1.287   1.061  13.167
  167TMC2    O2 2593   1.106   1.579  13.442
  167TMC2    O5 2594   1.091   1.347  13.447
  167TMC2    H5 2595   1.076   1.280  13.376
  168MPD2     C 2596   1.493   1.831  12.915
  168MPD2    C1 2597   1.501   1.702  12.859
  168MPD2    C2 2598   1.599   1.682  12.761
  168MPD2    C3 2599   1.672   1.785  12.714
  168MPD2    C4 2600   1.665   1.914  12.776
  168MPD2    C5 2601   1.576   1.940  12.871
  168MPD2     H 2602   1.629   1.581  12.736
  168MPD2    H1 2603   1.724   1.992  12.730
  168MPD2    H2 2604   1.422   1.848  12.995
  168MPD2    H3 2605   1.563   2.036  12.920
  168MPD2     N 2606   1.749   1.761  12.599
  168MPD2    H5 2607   1.835   1.812  12.581
  168MPD2    N1 2608   1.422   1.602  12.904
  168MPD2    H7 2609   1.445   1.504  12.892
  169MPD1     C 2610   3.861   1.124   8.771
  169MPD1    C1 2611   3.930   1.017   8.820
  169MPD1    C2 2612   3.893   0.991   8.955
  169MPD1    C3 2613   3.786   1.060   9.016
  169MPD1    C4 2614   3.707   1.144   8.948
  169MPD1    C5 2615   3.751   1.181   8.827
  169MPD1     H 2616   3.938   0.921   9.024
  169MPD1    H1 2617   3.614   1.186   8.983
  169MPD1    H2 2618   3.889   1.170   8.677
  169MPD1    H3 2619   3.695   1.253   8.769
  169MPD1     N 2620   3.752   1.020   9.152
  169MPD1    H5 2621   3.816   0.964   9.207
  169MPD1    N1 2622   4.049   0.973   8.762
  169MPD1    H6 2623   4.050   0.993   8.662
  169MPD1    H7 2624   4.069   0.876   8.786
  170MPD1     C 2625   2.702   3.362  13.411
  170MPD1    C1 2626   2.730   3.499  13.403
  170MPD1    C2 2627   2.664   3.587  13.484
  170MPD1    C3 2628   2.569   3.542  13.571
  170MPD1    C4 2629   2.536   3.409  13.574
  170MPD1    C5 2630   2.604   3.320  13.497
  170MPD1     H 2631   2.688   3.692  13.490
  170MPD1    H1 2632   2.455   3.367  13.633
  170MPD1    H2 2633   2.772   3.290  13.369
  170MPD1    H3 2634   2.579   3.215  13.501
  170MPD1     N 2635   2.518   3.634  13.663
  170MPD1    H5 2636   2.562   3.725  13.656
  170MPD1    N1 2637   2.807   3.550  13.293
  170MPD1    H6 2638   2.883   3.495  13.254
  170MPD1    H7 2639   2.845   3.640  13.322
  171MPD1     C 2640   1.097   0.105  15.590
  171MPD1    C1 2641   1.067   4.757  15.562
  171MPD1    C2 2642   1.101   4.661  15.656
  171MPD1    C3 2643   1.173   4.686  15.762
  171MPD1    C4 2644   1.197   0.040  15.793
  171MPD1    C5 2645   1.156   0.140  15.710
  171MPD1     H 2646   1.077   4.557  15.638
  171MPD1    H1 2647   1.231   0.068  15.892
  171MPD1    H2 2648   1.067   0.190  15.530
  171MPD1    H3 2649   1.168   0.247  15.725
  171MPD1     N 2650   1.204   4.591  15.865
  171MPD1    H5 2651   1.230   4.619  15.959
  171MPD1    N1 2652   0.980   4.733  15.457
  171MPD1    H6 2653   0.986   0.017  15.380
  171MPD1    H7 2654   0.978   4.638  15.421
  172MPD1     C 2655   0.545   3.738  17.990
  172MPD1    C1 2656   0.552   3.868  17.937
  172MPD1    C2 2657   0.518   3.979  18.023
  172MPD1    C3 2658   0.469   3.962  18.148
  172MPD1    C4 2659   0.458   3.834  18.188
  172MPD1    C5 2660   0.496   3.727  18.117
  172MPD1     H 2661   0.528   4.080  17.986
  172MPD1    H1 2662   0.405   3.813  18.281
  172MPD1    H2 2663   0.575   3.654  17.929
  172MPD1    H3 2664   0.473   3.629  18.159
  172MPD1     N 2665   0.444   4.065  18.247
  172MPD1    H5 2666   0.397   4.030  18.330
  172MPD1    N1 2667   0.616   3.885  17.822
  172MPD1    H6 2668   0.596   3.812  17.755
  172MPD1    H7 2669   0.586   3.975  17.785
  173MPD1     C 2670   1.508   4.376  14.578
  173MPD1    C1 2671   1.387   4.369  14.513
  173MPD1    C2 2672   1.304   4.256  14.528
  173MPD1    C3 2673   1.338   4.153  14.617
  173MPD1    C4 2674   1.458   4.169  14.687
  173MPD1    C5 2675   1.544   4.270  14.664
  173MPD1     H 2676   1.209   4.247  14.476
  173MPD1    H1 2677   1.493   4.096  14.759
  173MPD1    H2 2678   1.574   4.460  14.568
  173MPD1    H3 2679   1.635   4.278  14.722
  173MPD1     N 2680   1.258   4.042  14.626
  173MPD1    H5 2681   1.170   4.043  14.577
  173MPD1    N1 2682   1.356   4.474  14.409
  173MPD1    H6 2683   1.395   4.566  14.427
  173MPD1    H7 2684   1.255   4.474  14.394
  174MPD1     C 2685   1.904   3.500  14.716
  174MPD1    C1 2686   1.807   3.460  14.806
  174MPD1    C2 2687   1.673   3.458  14.762
  174MPD1    C3 2688   1.631   3.534  14.653
  174MPD1    C4 2689   1.734   3.585  14.574
  174MPD1    C5 2690   1.865   3.560  14.601
  174MPD1     H 2691   1.597   3.421  14.830
  174MPD1    H1 2692   1.712   3.635  14.480
  174MPD1    H2 2693   2.009   3.493  14.740
  174MPD1    H3 2694   1.945   3.589  14.534
  174MPD1     N 2695   1.500   3.558  14.614
  174MPD1    H5 2696   1.485   3.620  14.535
  174MPD1    N1 2697   1.848   3.384  14.916
  174MPD1    H6 2698   1.941   3.407  14.951
  174MPD1    H7 2699   1.788   3.361  14.995
  175MPD1     C 2700   0.139   4.664  15.698
  175MPD1    C1 2701   4.779   4.662  15.694
  175MPD1    C2 2702   4.721   4.686  15.818
  175MPD1    C3 2703   0.010   4.730  15.935
  175MPD1    C4 2704   0.148   4.746  15.922
  175MPD1    C5 2705   0.206   4.707  15.808
  175MPD1     H 2706   4.617   4.664  15.837
  175MPD1    H1 2707   0.193   0.000  16.014
  175MPD1    H2 2708   0.187   4.624  15.609
  175MPD1    H3 2709   0.313   4.712  15.792
  175MPD1     N 2710   4.738   4.747  16.065
  175MPD1    H5 2711   0.022   4.754  16.142
  175MPD1    N1 2712   4.715   4.593  15.591
  175MPD1    H6 2713   4.615   4.614  15.582
  175MPD1    H7 2714   4.767   4.595  15.503
  176MPD1     C 2715   1.505   1.770  17.413
  176MPD1    C1 2716   1.516   1.858  17.306
  176MPD1    C2 2717   1.532   1.991  17.339
  176MPD1    C3 2718   1.493   2.046  17.461
  176MPD1    C4 2719   1.443   1.958  17.553
  176MPD1    C5 2720   1.454   1.826  17.526
  176MPD1     H 2721   1.565   2.060  17.262
  176MPD1    H1 2722   1.409   1.986  17.653
  176MPD1    H2 2723   1.497   1.662  17.404
  176MPD1    H3 2724   1.423   1.755  17.602
  176MPD1     N 2725   1.511   2.185  17.477
  176MPD1    H5 2726   1.578   2.236  17.420
  176MPD1    N1 2727   1.574   1.815  17.185
  176MPD1    H6 2728   1.554   1.883  17.112
  176MPD1    H7 2729   1.531   1.725  17.166
  177MPD1     C 2730   4.695   2.157  10.455
  177MPD1    C1 2731   4.573   2.109  10.414
  177MPD1    C2 2732   4.527   2.154  10.296
  177MPD1    C3 2733   4.585   2.263  10.229
  177MPD1    C4 2734   4.695   2.322  10.283
  177MPD1    C5 2735   4.750   2.267  10.394
  177MPD1     H 2736   4.433   2.114  10.260
  177MPD1    H1 2737   4.751   2.403  10.236
  177MPD1    H2 2738   4.753   2.123  10.540
  177MPD1    H3 2739   0.061   2.303  10.437
  177MPD1     N 2740   4.520   2.312  10.112
  177MPD1    H5 2741   4.447   2.247  10.084
  177MPD1    N1 2742   4.507   2.013  10.494
  177MPD1    H6 2743   4.444   1.964  10.431
  177MPD1    H7 2744   4.572   1.940  10.523
  178MPD1     C 2745   2.274   2.912  18.070
  178MPD1    C1 2746   2.192   2.849  17.981
  178MPD1    C2 2747   2.250   2.801  17.864
  178MPD1    C3 2748   2.382   2.819  17.832
  178MPD1    C4 2749   2.462   2.895  17.915
  178MPD1    C5 2750   2.406   2.950  18.029
  178MPD1     H 2751   2.179   2.753  17.798
  178MPD1    H1 2752   2.559   2.927  17.879
  178MPD1    H2 2753   2.244   2.944  18.169
  178MPD1    H3 2754   2.468   3.016  18.088
  178MPD1     N 2755   2.441   2.774  17.717
  178MPD1    H5 2756   2.514   2.838  17.690
  178MPD1    N1 2757   2.061   2.816  18.029
  178MPD1    H6 2758   1.986   2.802  17.962
  178MPD1    H7 2759   2.033   2.876  18.107
  179MPD1     C 2760   2.340   1.211  16.081
  179MPD1    C1 2761   2.349   1.132  15.970
  179MPD1    C2 2762   2.297   1.004  15.981
  179MPD1    C3 2763   2.229   0.959  16.093
  179MPD1    C4 2764   2.219   1.043  16.205
  179MPD1    C5 2765   2.278   1.167  16.196
  179MPD1     H 2766   2.299   0.939  15.895
  179MPD1    H1 2767   2.160   1.016  16.292
  179MPD1    H2 2768   2.363   1.317  16.072
  179MPD1    H3 2769   2.266   1.246  16.269
  179MPD1     N 2770   2.168   0.835  16.107
  179MPD1    H5 2771   2.142   0.805  16.201
  179MPD1    N1 2772   2.388   1.181  15.845
  179MPD1    H6 2773   2.444   1.111  15.798
  179MPD1    H7 2774   2.454   1.258  15.856
  180MPD1     C 2775   1.869   2.223  14.969
  180MPD1    C1 2776   1.923   2.298  14.867
  180MPD1    C2 2777   1.838   2.390  14.797
  180MPD1    C3 2778   1.704   2.386  14.818
  180MPD1    C4 2779   1.654   2.317  14.925
  180MPD1    C5 2780   1.737   2.242  15.004
  180MPD1     H 2781   1.875   2.447  14.713
  180MPD1    H1 2782   1.548   2.318  14.948
  180MPD1    H2 2783   1.934   2.154  15.021
  180MPD1    H3 2784   1.682   2.188  15.079
  180MPD1     N 2785   1.626   2.429  14.712
  180MPD1    H5 2786   1.662   2.477  14.630
  180MPD1    N1 2787   2.062   2.304  14.845
  180MPD1    H6 2788   2.081   2.319  14.746
  180MPD1    H7 2789   2.112   2.218  14.866
  181MPD1     C 2790   3.128   3.974   9.858
  181MPD1    C1 2791   3.092   4.099   9.910
  181MPD1    C2 2792   3.182   4.159  10.000
  181MPD1    C3 2793   3.306   4.096  10.040
  181MPD1    C4 2794   3.333   3.974   9.983
  181MPD1    C5 2795   3.243   3.910   9.903
  181MPD1     H 2796   3.157   4.258  10.038
  181MPD1    H1 2797   3.433   3.938  10.004
  181MPD1    H2 2798   3.066   3.924   9.785
  181MPD1    H3 2799   3.265   3.811   9.867
  181MPD1     N 2800   3.403   4.144  10.132
  181MPD1    H5 2801   3.500   4.121  10.117
  181MPD1    N1 2802   2.985   4.170   9.857
  181MPD1    H6 2803   2.910   4.106   9.832
  181MPD1    H7 2804   2.959   4.239   9.927
  182MPD1     C 2805   4.040   3.500  19.318
  182MPD1    C1 2806   4.035   3.364  19.302
  182MPD1    C2 2807   4.104   3.314  19.194
  182MPD1    C3 2808   4.174   3.392  19.105
  182MPD1    C4 2809   4.180   3.529  19.122
  182MPD1    C5 2810   4.107   3.582  19.223
  182MPD1     H 2811   4.123   3.208  19.182
  182MPD1    H1 2812   4.227   3.585  19.042
  182MPD1    H2 2813   3.990   3.553  19.398
  182MPD1    H3 2814   4.115   3.687  19.249
  182MPD1     N 2815   4.254   3.337  19.000
  182MPD1    H5 2816   4.291   3.407  18.936
  182MPD1    N1 2817   3.999   3.280  19.413
  182MPD1    H6 2818   3.917   3.310  19.464
  182MPD1    H7 2819   3.976   3.194  19.363
  183MPD1     C 2820   0.275   3.768   9.230
  183MPD1    C1 2821   0.256   3.697   9.350
  183MPD1    C2 2822   0.208   3.761   9.460
  183MPD1    C3 2823   0.181   3.896   9.453
  183MPD1    C4 2824   0.197   3.964   9.335
  183MPD1    C5 2825   0.236   3.893   9.223
  183MPD1     H 2826   0.205   3.710   9.556
  183MPD1    H1 2827   0.180   4.071   9.321
  183MPD1    H2 2828   0.292   3.725   9.132
  183MPD1    H3 2829   0.247   3.946   9.129
  183MPD1     N 2830   0.153   3.961   9.571
  183MPD1    H5 2831   0.157   3.906   9.657
  183MPD1    N1 2832   0.273   3.559   9.360
  183MPD1    H6 2833   0.338   3.520   9.291
  183MPD1    H7 2834   0.296   3.532   9.455
  184MPD1     C 2835   3.755   1.632  10.455
  184MPD1    C1 2836   3.695   1.589  10.335
  184MPD1    C2 2837   3.709   1.669  10.220
  184MPD1    C3 2838   3.773   1.796  10.237
  184MPD1    C4 2839   3.815   1.834  10.365
  184MPD1    C5 2840   3.808   1.751  10.470
  184MPD1     H 2841   3.671   1.644  10.121
  184MPD1    H1 2842   3.859   1.932  10.379
  184MPD1    H2 2843   3.763   1.570  10.543
  184MPD1    H3 2844   3.850   1.781  10.565
  184MPD1     N 2845   3.780   1.897  10.136
  184MPD1    H5 2846   3.808   1.992  10.152
  184MPD1    N1 2847   3.655   1.453  10.330
  184MPD1    H6 2848   3.629   1.422  10.423
  184MPD1    H7 2849   3.572   1.437  10.274
  185MPD1     C 2850   3.752   2.154   9.056
  185MPD1    C1 2851   3.737   2.039   9.123
  185MPD1    C2 2852   3.749   2.042   9.264
  185MPD1    C3 2853   3.757   2.159   9.333
  185MPD1    C4 2854   3.758   2.276   9.261
  185MPD1    C5 2855   3.756   2.273   9.123
  185MPD1     H 2856   3.755   1.947   9.315
  185MPD1    H1 2857   3.755   2.372   9.310
  185MPD1    H2 2858   3.747   2.152   8.948
  185MPD1    H3 2859   3.762   2.364   9.064
  185MPD1     N 2860   3.757   2.166   9.477
  185MPD1    H5 2861   3.785   2.251   9.525
  185MPD1    N1 2862   3.747   1.915   9.052
  185MPD1    H6 2863   3.727   1.929   8.953
  185MPD1    H7 2864   3.691   1.843   9.097
  186MPD1     C 2865   2.606   0.573  16.094
  186MPD1    C1 2866   2.693   0.671  16.062
  186MPD1    C2 2867   2.686   0.797  16.126
  186MPD1    C3 2868   2.577   0.818  16.209
  186MPD1    C4 2869   2.490   0.721  16.238
  186MPD1    C5 2870   2.497   0.598  16.176
  186MPD1     H 2871   2.759   0.875  16.107
  186MPD1    H1 2872   2.404   0.742  16.300
  186MPD1    H2 2873   2.613   0.475  16.046
  186MPD1    H3 2874   2.442   0.511  16.209
  186MPD1     N 2875   2.556   0.939  16.275
  186MPD1    H5 2876   2.474   0.948  16.334
  186MPD1    N1 2877   2.813   0.637  15.994
  186MPD1    H6 2878   2.854   0.714  15.942
  186MPD1    H7 2879   2.808   0.559  15.928
  187MPD1     C 2880   2.058   3.153  18.252
  187MPD1    C1 2881   1.954   3.069  18.220
  187MPD1    C2 2882   1.871   3.095  18.108
  187MPD1    C3 2883   1.898   3.201  18.022
  187MPD1    C4 2884   2.003   3.280  18.052
  187MPD1    C5 2885   2.081   3.255  18.168
  187MPD1     H 2886   1.793   3.024  18.083
  187MPD1    H1 2887   2.031   3.356  17.981
  187MPD1    H2 2888   2.126   3.128  18.333
  187MPD1    H3 2889   2.161   3.325  18.188
  187MPD1     N 2890   1.838   3.224  17.901
  187MPD1    H5 2891   1.861   3.306  17.846
  187MPD1    N1 2892   1.948   2.940  18.280
  187MPD1    H6 2893   2.002   2.930  18.366
  187MPD1    H7 2894   1.854   2.912  18.308
  188MPD1     C 2895   1.180   3.402   9.846
  188MPD1    C1 2896   1.047   3.357   9.820
  188MPD1    C2 2897   1.030   3.220   9.803
  188MPD1    C3 2898   1.139   3.128   9.823
  188MPD1    C4 2899   1.261   3.172   9.866
  188MPD1    C5 2900   1.280   3.314   9.870
  188MPD1     H 2901   0.930   3.182   9.784
  188MPD1    H1 2902   1.348   3.112   9.887
  188MPD1    H2 2903   1.200   3.505   9.870
  188MPD1    H3 2904   1.378   3.350   9.899
  188MPD1     N 2905   1.130   2.986   9.803
  188MPD1    H5 2906   1.213   2.931   9.826
  188MPD1    N1 2907   0.945   3.441   9.783
  188MPD1    H6 2908   0.851   3.412   9.808
  188MPD1    H7 2909   0.967   3.533   9.821
  189MPD1     C 2910   3.362   3.688  18.610
  189MPD1    C1 2911   3.415   3.815  18.625
  189MPD1    C2 2912   3.338   3.926  18.584
  189MPD1    C3 2913   3.201   3.915  18.560
  189MPD1    C4 2914   3.152   3.779  18.558
  189MPD1    C5 2915   3.237   3.674  18.576
  189MPD1     H 2916   3.389   4.022  18.582
  189MPD1    H1 2917   3.055   3.744  18.524
  189MPD1    H2 2918   3.433   3.606  18.606
  189MPD1    H3 2919   3.202   3.572  18.564
  189MPD1     N 2920   3.125   4.026  18.540
  189MPD1    H5 2921   3.175   4.114  18.555
  189MPD1    N1 2922   3.550   3.831  18.655
  189MPD1    H6 2923   3.596   3.750  18.695
  189MPD1    H7 2924   3.564   3.902  18.727
  190MPD1     C 2925   1.644   1.979  15.779
  190MPD1    C1 2926   1.701   1.989  15.897
  190MPD1    C2 2927   1.826   2.042  15.904
  190MPD1    C3 2928   1.893   2.082  15.788
  190MPD1    C4 2929   1.838   2.054  15.663
  190MPD1    C5 2930   1.714   2.002  15.661
  190MPD1     H 2931   1.886   2.052  15.994
  190MPD1    H1 2932   1.885   2.060  15.566
  190MPD1    H2 2933   1.541   1.948  15.767
  190MPD1    H3 2934   1.656   1.998  15.570
  190MPD1     N 2935   2.026   2.130  15.805
  190MPD1    H5 2936   2.061   2.128  15.900
  190MPD1    N1 2937   1.631   1.957  16.010
  190MPD1    H6 2938   1.546   1.903  15.992
  190MPD1    H7 2939   1.689   1.914  16.082
  191MPD1     C 2940   1.856   4.064  13.329
  191MPD1    C1 2941   1.741   3.995  13.340
  191MPD1    C2 2942   1.661   3.986  13.223
  191MPD1    C3 2943   1.691   4.056  13.106
  191MPD1    C4 2944   1.804   4.127  13.097
  191MPD1    C5 2945   1.886   4.123  13.206
  191MPD1     H 2946   1.568   3.931  13.225
  191MPD1    H1 2947   1.832   4.189  13.013
  191MPD1    H2 2948   1.931   4.066  13.408
  191MPD1    H3 2949   1.981   4.175  13.203
  191MPD1     N 2950   1.605   4.029  12.993
  191MPD1    H5 2951   1.527   3.968  13.015
  191MPD1    N1 2952   1.714   3.908  13.449
  191MPD1    H6 2953   1.751   3.935  13.540
  191MPD1    H7 2954   1.620   3.870  13.457
  192MPD1     C 2955   0.843   4.455  12.990
  192MPD1    C1 2956   0.883   4.478  12.863
  192MPD1    C2 2957   0.988   4.404  12.815
  192MPD1    C3 2958   1.047   4.305  12.889
  192MPD1    C4 2959   0.995   4.275  13.006
  192MPD1    C5 2960   0.896   4.352  13.061
  192MPD1     H 2961   1.024   4.441  12.719
  192MPD1    H1 2962   1.037   4.201  13.074
  192MPD1    H2 2963   0.773   4.526  13.032
  192MPD1    H3 2964   0.855   4.326  13.158
  192MPD1     N 2965   1.160   4.240  12.839
  192MPD1    H5 2966   1.208   4.174  12.900
  192MPD1    N1 2967   0.843   4.586  12.788
  192MPD1    H6 2968   0.743   4.605  12.800
  192MPD1    H7 2969   0.855   4.570  12.688
  193MPD1     C 2970   0.931   4.390  16.378
  193MPD1    C1 2971   0.919   4.519  16.433
  193MPD1    C2 2972   1.013   4.554  16.524
  193MPD1    C3 2973   1.106   4.462  16.572
  193MPD1    C4 2974   1.122   4.343  16.509
  193MPD1    C5 2975   1.030   4.303  16.419
  193MPD1     H 2976   1.013   4.658  16.554
  193MPD1    H1 2977   1.197   4.267  16.531
  193MPD1    H2 2978   0.864   4.358  16.299
  193MPD1    H3 2979   1.044   4.209  16.366
  193MPD1     N 2980   1.207   4.501  16.661
  193MPD1    H5 2981   1.281   4.434  16.679
  193MPD1    N1 2982   0.831   4.614  16.371
  193MPD1    H6 2983   0.753   4.567  16.326
  193MPD1    H7 2984   0.788   4.668  16.446
  194MPD1     C 2985   3.562   2.230  17.180
  194MPD1    C1 2986   3.530   2.117  17.105
  194MPD1    C2 2987   3.638   2.025  17.088
  194MPD1    C3 2988   3.764   2.050  17.134
  194MPD1    C4 2989   3.793   2.171  17.194
  194MPD1    C5 2990   3.688   2.255  17.225
  194MPD1     H 2991   3.602   1.929  17.053
  194MPD1    H1 2992   3.893   2.192  17.228
  194MPD1    H2 2993   3.490   2.307  17.205
  194MPD1    H3 2994   3.714   2.344  17.280
  194MPD1     N 2995   3.864   1.953  17.138
  194MPD1    H5 2996   3.949   1.972  17.190
  194MPD1    N1 2997   3.395   2.087  17.082
  194MPD1    H6 2998   3.336   2.170  17.076
  194MPD1    H7 2999   3.391   2.035  16.995
  195MPD1     C 3000   1.273   4.096  18.530
  195MPD1    C1 3001   1.149   4.040  18.516
  195MPD1    C2 3002   1.137   3.912  18.454
  195MPD1    C3 3003   1.243   3.844  18.396
  195MPD1    C4 3004   1.363   3.914  18.405
  195MPD1    C5 3005   1.379   4.031  18.478
  195MPD1     H 3006   1.038   3.871  18.445
  195MPD1    H1 3007   1.453   3.861  18.375
  195MPD1    H2 3008   1.284   4.177  18.601
  195MPD1    H3 3009   1.476   4.074  18.500
  195MPD1     N 3010   1.246   3.709  18.352
  195MPD1    H5 3011   1.339   3.673  18.333
  195MPD1    N1 3012   1.043   4.099  18.585
  195MPD1    H6 3013   0.957   4.067  18.541
  195MPD1    H7 3014   1.051   4.201  18.589
  196MPD1     C 3015   4.642   2.413  18.752
  196MPD1    C1 3016   4.754   2.356  18.707
  196MPD1    C2 3017   0.094   2.411  18.735
  196MPD1    C3 3018   0.101   2.514  18.829
  196MPD1    C4 3019   4.768   2.555  18.889
  196MPD1    C5 3020   4.648   2.510  18.846
  196MPD1     H 3021   0.182   2.359  18.700
  196MPD1    H1 3022   4.780   2.637  18.959
  196MPD1    H2 3023   4.544   2.381  18.720
  196MPD1    H3 3024   4.560   2.557  18.889
  196MPD1     N 3025   0.224   2.581  18.865
  196MPD1    H5 3026   0.231   2.654  18.935
  196MPD1    N1 3027   4.746   2.263  18.599
  196MPD1    H6 3028   4.670   2.196  18.604
  196MPD1    H7 3029   0.045   2.201  18.599
  197MPD1     C 3030   0.140   0.608  17.989
  197MPD1    C1 3031   0.035   0.690  17.958
  197MPD1    C2 3032   4.781   0.726  17.831
  197MPD1    C3 3033   0.066   0.661  17.727
  197MPD1    C4 3034   0.174   0.573  17.752
  197MPD1    C5 3035   0.204   0.544  17.885
  197MPD1     H 3036   4.699   0.796  17.823
  197MPD1    H1 3037   0.242   0.526  17.680
  197MPD1    H2 3038   0.187   0.600  18.086
  197MPD1    H3 3039   0.283   0.473  17.904
  197MPD1     N 3040   0.029   0.680  17.589
  197MPD1    H5 3041   0.090   0.630  17.525
  197MPD1    N1 3042   4.765   0.770  18.065
  197MPD1    H6 3043   4.666   0.792  18.056
  197MPD1    H7 3044   4.776   0.728  18.157
  198MPD1     C 3045   2.047   2.901  15.722
  198MPD1    C1 3046   1.911   2.928  15.729
  198MPD1    C2 3047   1.875   2.999  15.840
  198MPD1    C3 3048   1.959   3.012  15.951
  198MPD1    C4 3049   2.088   2.961  15.947
  198MPD1    C5 3050   2.130   2.902  15.832
  198MPD1     H 3051   1.778   3.047  15.847
  198MPD1    H1 3052   2.161   2.962  16.026
  198MPD1    H2 3053   2.087   2.855  15.631
  198MPD1    H3 3054   2.230   2.862  15.820
  198MPD1     N 3055   1.924   3.090  16.061
  198MPD1    H5 3056   1.834   3.136  16.046
  198MPD1    N1 3057   1.825   2.915  15.620
  198MPD1    H6 3058   1.848   2.839  15.557
  198MPD1    H7 3059   1.726   2.901  15.642
  199MPD1     C 3060   3.856   4.303  10.024
  199MPD1    C1 3061   3.901   4.423  10.067
  199MPD1    C2 3062   3.822   4.533  10.068
  199MPD1    C3 3063   3.698   4.526  10.005
  199MPD1    C4 3064   3.651   4.405   9.965
  199MPD1    C5 3065   3.729   4.292   9.983
  199MPD1     H 3066   3.854   4.630  10.107
  199MPD1    H1 3067   3.554   4.386   9.921
  199MPD1    H2 3068   3.917   4.217  10.046
  199MPD1    H3 3069   3.687   4.198   9.948
  199MPD1     N 3070   3.602   4.626  10.001
  199MPD1    H5 3071   3.511   4.588   9.977
  199MPD1    N1 3072   4.025   4.428  10.140
  199MPD1    H6 3073   4.074   4.339  10.133
  199MPD1    H7 3074   4.081   4.510  10.120
  200MPD1     C 3075   2.611   4.574  15.245
  200MPD1    C1 3076   2.600   4.582  15.111
  200MPD1    C2 3077   2.712   4.579  15.033
  200MPD1    C3 3078   2.832   4.552  15.100
  200MPD1    C4 3079   2.836   4.526  15.232
  200MPD1    C5 3080   2.727   4.544  15.312
  200MPD1     H 3081   2.712   4.600  14.926
  200MPD1    H1 3082   2.923   4.493  15.288
  200MPD1    H2 3083   2.520   4.602  15.298
  200MPD1    H3 3084   2.731   4.526  15.419
  200MPD1     N 3085   2.952   4.545  15.024
  200MPD1    H5 3086   2.941   4.573  14.927
  200MPD1    N1 3087   2.476   4.628  15.060
  200MPD1    H6 3088   2.411   4.571  15.114
  200MPD1    H7 3089   2.458   4.602  14.963
  201MPD1     C 3090   0.258   4.172  13.761
  201MPD1    C1 3091   0.171   4.068  13.766
  201MPD1    C2 3092   0.219   3.943  13.807
  201MPD1    C3 3093   0.354   3.919  13.826
  201MPD1    C4 3094   0.446   4.025  13.828
  201MPD1    C5 3095   0.394   4.148  13.796
  201MPD1     H 3096   0.147   3.862  13.804
  201MPD1    H1 3097   0.554   4.014  13.830
  201MPD1    H2 3098   0.223   4.270  13.733
  201MPD1    H3 3099   0.461   4.233  13.788
  201MPD1     N 3100   0.395   3.784  13.839
  201MPD1    H5 3101   0.332   3.710  13.811
  201MPD1    N1 3102   0.035   4.097  13.767
  201MPD1    H6 3103   4.757   4.016  13.749
  201MPD1    H7 3104   0.017   4.168  13.697
  202MPD1     C 3105   0.043   3.091   9.379
  202MPD1    C1 3106   0.119   2.983   9.412
  202MPD1    C2 3107   0.178   2.981   9.541
  202MPD1    C3 3108   0.191   3.098   9.617
  202MPD1    C4 3109   0.126   3.209   9.567
  202MPD1    C5 3110   0.048   3.203   9.453
  202MPD1     H 3111   0.240   2.897   9.570
  202MPD1    H1 3112   0.133   3.296   9.630
  202MPD1    H2 3113   4.763   3.088   9.290
  202MPD1    H3 3114   4.774   3.291   9.424
  202MPD1     N 3115   0.247   3.104   9.748
  202MPD1    H5 3116   0.251   3.200   9.780
  202MPD1    N1 3117   0.126   2.858   9.333
  202MPD1    H6 3118   0.200   2.795   9.363
  202MPD1    H7 3119   0.153   2.881   9.237
  203MPD1     C 3120   3.890   4.233  12.947
  203MPD1    C1 3121   3.991   4.199  12.863
  203MPD1    C2 3122   4.043   4.071  12.887
  203MPD1    C3 3123   4.030   4.009  13.008
  203MPD1    C4 3124   3.934   4.055  13.092
  203MPD1    C5 3125   3.872   4.167  13.061
  203MPD1     H 3126   4.111   4.039  12.809
  203MPD1    H1 3127   3.921   4.006  13.188
  203MPD1    H2 3128   3.830   4.323  12.931
  203MPD1    H3 3129   3.795   4.206  13.127
  203MPD1     N 3130   4.097   3.883  13.027
  203MPD1    H5 3131   4.163   3.867  12.952
  203MPD1    N1 3132   4.017   4.261  12.742
  203MPD1    H6 3133   4.110   4.238  12.709
  203MPD1    H7 3134   4.012   4.361  12.756
  204MPD1     C 3135   3.606   0.500  18.333
  204MPD1    C1 3136   3.724   0.513  18.266
  204MPD1    C2 3137   3.770   0.404  18.192
  204MPD1    C3 3138   3.700   0.288  18.186
  204MPD1    C4 3139   3.572   0.280  18.244
  204MPD1    C5 3140   3.530   0.384  18.323
  204MPD1     H 3141   3.870   0.398  18.152
  204MPD1    H1 3142   3.508   0.193  18.229
  204MPD1    H2 3143   3.580   0.586  18.394
  204MPD1    H3 3144   3.432   0.371  18.368
  204MPD1     N 3145   3.753   0.181  18.110
  204MPD1    H5 3146   3.839   0.199  18.060
  204MPD1    N1 3147   3.802   0.624  18.304
  204MPD1    H6 3148   3.891   0.640  18.256
  204MPD1    H7 3149   3.747   0.709  18.295
  205MPD1     C 3150   4.029   4.018  16.927
  205MPD1    C1 3151   4.044   3.881  16.953
  205MPD1    C2 3152   3.969   3.831  17.062
  205MPD1    C3 3153   3.894   3.914  17.141
  205MPD1    C4 3154   3.890   4.049  17.110
  205MPD1    C5 3155   3.948   4.100  17.003
  205MPD1     H 3156   3.987   3.730  17.098
  205MPD1    H1 3157   3.832   4.117  17.171
  205MPD1    H2 3158   4.080   4.056  16.839
  205MPD1    H3 3159   3.937   4.205  16.976
  205MPD1     N 3160   3.830   3.867  17.262
  205MPD1    H5 3161   3.808   3.947  17.321
  205MPD1    N1 3162   4.121   3.801  16.873
  205MPD1    H6 3163   4.195   3.856  16.829
  205MPD1    H7 3164   4.154   3.721  16.927
  206MPD1     C 3165   4.402   2.358  17.080
  206MPD1    C1 3166   4.392   2.257  16.983
  206MPD1    C2 3167   4.268   2.215  16.947
  206MPD1    C3 3168   4.155   2.283  16.980
  206MPD1    C4 3169   4.167   2.376  17.076
  206MPD1    C5 3170   4.285   2.416  17.119
  206MPD1     H 3171   4.265   2.124  16.888
  206MPD1    H1 3172   4.085   2.442  17.104
  206MPD1    H2 3173   4.498   2.395  17.115
  206MPD1    H3 3174   4.299   2.491  17.196
  206MPD1     N 3175   4.028   2.256  16.924
  206MPD1    H5 3176   3.950   2.307  16.965
  206MPD1    N1 3177   4.502   2.181  16.949
  206MPD1    H6 3178   4.477   2.123  16.869
  206MPD1    H7 3179   4.587   2.236  16.936
  207MPD1     C 3180   1.365   4.151  10.102
  207MPD1    C1 3181   1.452   4.249  10.068
  207MPD1    C2 3182   1.537   4.300  10.164
  207MPD1    C3 3183   1.526   4.263  10.292
  207MPD1    C4 3184   1.437   4.161  10.324
  207MPD1    C5 3185   1.366   4.105  10.225
  207MPD1     H 3186   1.607   4.377  10.135
  207MPD1    H1 3187   1.430   4.121  10.424
  207MPD1    H2 3188   1.318   4.096  10.021
  207MPD1    H3 3189   1.302   4.021  10.249
  207MPD1     N 3190   1.604   4.316  10.398
  207MPD1    H5 3191   1.587   4.286  10.493
  207MPD1    N1 3192   1.464   4.295   9.936
  207MPD1    H6 3193   1.492   4.393   9.930
  207MPD1    H7 3194   1.380   4.269   9.885
  208MPD1     C 3195   4.653   3.461  17.541
  208MPD1    C1 3196   4.669   3.418  17.666
  208MPD1    C2 3197   4.599   3.307  17.709
  208MPD1    C3 3198   4.549   3.223  17.618
  208MPD1    C4 3199   4.525   3.271  17.490
  208MPD1    C5 3200   4.573   3.392  17.455
  208MPD1     H 3201   4.595   3.290  17.816
  208MPD1    H1 3202   4.465   3.210  17.423
  208MPD1    H2 3203   4.706   3.547  17.502
  208MPD1    H3 3204   4.538   3.436  17.362
  208MPD1     N 3205   4.489   3.104  17.661
  208MPD1    H5 3206   4.505   3.070  17.756
  208MPD1    N1 3207   4.730   3.504  17.757
  208MPD1    H6 3208   4.778   3.451  17.829
  208MPD1    H7 3209   0.017   3.568  17.718
  209MPD1     C 3210   1.752   3.278  11.515
  209MPD1    C1 3211   1.786   3.344  11.401
  209MPD1    C2 3212   1.834   3.471  11.410
  209MPD1    C3 3213   1.860   3.527  11.529
  209MPD1    C4 3214   1.846   3.454  11.645
  209MPD1    C5 3215   1.785   3.334  11.635
  209MPD1     H 3216   1.849   3.526  11.318
  209MPD1    H1 3217   1.876   3.493  11.742
  209MPD1    H2 3218   1.714   3.176  11.515
  209MPD1    H3 3219   1.755   3.282  11.725
  209MPD1     N 3220   1.908   3.664  11.524
  209MPD1    H5 3221   1.932   3.701  11.433
  209MPD1    N1 3222   1.765   3.280  11.275
  209MPD1    H6 3223   1.831   3.304  11.202
  209MPD1    H7 3224   1.776   3.180  11.289
  210MPD1     C 3225   2.263   4.536  11.979
  210MPD1    C1 3226   2.359   4.449  11.940
  210MPD1    C2 3227   2.323   4.341  11.863
  210MPD1    C3 3228   2.199   4.335  11.804
  210MPD1    C4 3229   2.106   4.432  11.838
  210MPD1    C5 3230   2.136   4.525  11.926
  210MPD1     H 3231   2.394   4.263  11.840
  210MPD1    H1 3232   2.003   4.433  11.803
  210MPD1    H2 3233   2.277   4.627  12.036
  210MPD1    H3 3234   2.061   4.599  11.950
  210MPD1     N 3235   2.152   4.225  11.723
  210MPD1    H5 3236   2.059   4.233  11.682
  210MPD1    N1 3237   2.486   4.451  12.004
  210MPD1    H6 3238   2.512   4.546  12.031
  210MPD1    H7 3239   2.560   4.406  11.949
  211MPD1     C 3240   4.674   3.535  16.763
  211MPD1    C1 3241   4.691   3.659  16.707
  211MPD1    C2 3242   4.590   3.713  16.630
  211MPD1    C3 3243   4.461   3.649  16.627
  211MPD1    C4 3244   4.445   3.537  16.709
  211MPD1    C5 3245   4.552   3.475  16.762
  211MPD1     H 3246   4.595   3.806  16.575
  211MPD1    H1 3247   4.343   3.503  16.716
  211MPD1    H2 3248   4.758   3.482  16.807
  211MPD1    H3 3249   4.540   3.377  16.805
  211MPD1     N 3250   4.356   3.715  16.558
  211MPD1    H5 3251   4.373   3.810  16.525
  211MPD1    N1 3252   0.039   3.714  16.699
  211MPD1    H6 3253   0.042   3.816  16.701
  211MPD1    H7 3254   0.096   3.677  16.776
  212MPD1     C 3255   3.236   2.170  16.813
  212MPD1    C1 3256   3.172   2.232  16.912
  212MPD1    C2 3257   3.076   2.158  16.985
  212MPD1    C3 3258   3.033   2.034  16.940
  212MPD1    C4 3259   3.087   1.981  16.822
  212MPD1    C5 3260   3.197   2.048  16.771
  212MPD1     H 3261   3.029   2.198  17.074
  212MPD1    H1 3262   3.062   1.882  16.786
  212MPD1    H2 3263   3.314   2.230  16.766
  212MPD1    H3 3264   3.238   2.002  16.681
  212MPD1     N 3265   2.945   1.955  17.014
  212MPD1    H5 3266   2.908   1.868  16.979
  212MPD1    N1 3267   3.225   2.354  16.962
  212MPD1    H6 3268   3.151   2.408  17.006
  212MPD1    H7 3269   3.269   2.422  16.900
  213MPD1     C 3270   1.657   2.362  15.708
  213MPD1    C1 3271   1.665   2.468  15.620
  213MPD1    C2 3272   1.542   2.537  15.597
  213MPD1    C3 3273   1.425   2.488  15.644
  213MPD1    C4 3274   1.422   2.387  15.739
  213MPD1    C5 3275   1.543   2.326  15.771
  213MPD1     H 3276   1.535   2.616  15.523
  213MPD1    H1 3277   1.333   2.364  15.797
  213MPD1    H2 3278   1.751   2.323  15.746
  213MPD1    H3 3279   1.552   2.234  15.828
  213MPD1     N 3280   1.310   2.559  15.599
  213MPD1    H5 3281   1.329   2.633  15.532
  213MPD1    N1 3282   1.779   2.533  15.590
  213MPD1    H6 3283   1.775   2.573  15.496
  213MPD1    H7 3284   1.851   2.460  15.590
  214MPD1     C 3285   0.395   2.208  15.556
  214MPD1    C1 3286   0.443   2.208  15.427
  214MPD1    C2 3287   0.540   2.303  15.397
  214MPD1    C3 3288   0.605   2.376  15.493
  214MPD1    C4 3289   0.563   2.366  15.628
  214MPD1    C5 3290   0.456   2.284  15.653
  214MPD1     H 3291   0.574   2.313  15.294
  214MPD1    H1 3292   0.619   2.414  15.708
  214MPD1    H2 3293   0.321   2.138  15.593
  214MPD1    H3 3294   0.415   2.267  15.752
  214MPD1     N 3295   0.723   2.453  15.474
  214MPD1    H5 3296   0.754   2.509  15.553
  214MPD1    N1 3297   0.376   2.138  15.324
  214MPD1    H6 3298   0.340   2.050  15.359
  214MPD1    H7 3299   0.439   2.117  15.247
  215MPD1     C 3300   1.248   3.116  11.237
  215MPD1    C1 3301   1.363   3.096  11.308
  215MPD1    C2 3302   1.440   3.206  11.338
  215MPD1    C3 3303   1.392   3.335  11.329
  215MPD1    C4 3304   1.272   3.348  11.262
  215MPD1    C5 3305   1.205   3.239  11.215
  215MPD1     H 3306   1.539   3.185  11.376
  215MPD1    H1 3307   1.229   3.446  11.247
  215MPD1    H2 3308   1.184   3.034  11.208
  215MPD1    H3 3309   1.112   3.249  11.160
  215MPD1     N 3310   1.465   3.440  11.380
  215MPD1    H5 3311   1.537   3.417  11.447
  215MPD1    N1 3312   1.438   2.977  11.295
  215MPD1    H6 3313   1.369   2.902  11.288
  215MPD1    H7 3314   1.494   2.959  11.379
  216MPD1     C 3315   3.243   1.752  17.050
  216MPD1    C1 3316   3.278   1.620  17.037
  216MPD1    C2 3317   3.259   1.539  17.145
  216MPD1    C3 3318   3.201   1.587  17.258
  216MPD1    C4 3319   3.169   1.718  17.274
  216MPD1    C5 3320   3.193   1.797  17.167
  216MPD1     H 3321   3.284   1.433  17.137
  216MPD1    H1 3322   3.116   1.767  17.354
  216MPD1    H2 3323   3.263   1.823  16.971
  216MPD1    H3 3324   3.165   1.901  17.182
  216MPD1     N 3325   3.182   1.487  17.359
  216MPD1    H5 3326   3.184   1.390  17.329
  216MPD1    N1 3327   3.360   1.583  16.929
  216MPD1    H6 3328   3.338   1.490  16.894
  216MPD1    H7 3329   3.352   1.645  16.849
  217MPD1     C 3330   3.551   3.024   8.619
  217MPD1    C1 3331   3.474   3.038   8.733
  217MPD1    C2 3332   3.527   3.119   8.834
  217MPD1    C3 3333   3.653   3.184   8.819
  217MPD1    C4 3334   3.718   3.158   8.702
  217MPD1    C5 3335   3.670   3.087   8.598
  217MPD1     H 3336   3.467   3.128   8.924
  217MPD1    H1 3337   3.819   3.194   8.688
  217MPD1    H2 3338   3.512   2.959   8.542
  217MPD1    H3 3339   3.716   3.082   8.500
  217MPD1     N 3340   3.717   3.242   8.927
  217MPD1    H5 3341   3.807   3.279   8.900
  217MPD1    N1 3342   3.347   2.986   8.747
  217MPD1    H6 3343   3.337   2.938   8.836
  217MPD1    H7 3344   3.343   2.920   8.669
  218MPD1     C 3345   0.411   4.222  13.189
  218MPD1    C1 3346   0.492   4.295  13.103
  218MPD1    C2 3347   0.587   4.227  13.035
  218MPD1    C3 3348   0.619   4.096  13.046
  218MPD1    C4 3349   0.531   4.022  13.124
  218MPD1    C5 3350   0.434   4.084  13.202
  218MPD1     H 3351   0.646   4.282  12.963
  218MPD1    H1 3352   0.546   3.917  13.148
  218MPD1    H2 3353   0.321   4.257  13.238
  218MPD1    H3 3354   0.371   4.026  13.268
  218MPD1     N 3355   0.744   4.042  13.002
  218MPD1    H5 3356   0.798   4.106  12.944
  218MPD1    N1 3357   0.453   4.420  13.060
  218MPD1    H6 3358   0.528   4.480  13.027
  218MPD1    H7 3359   0.406   4.458  13.143
  219MPD1     C 3360   1.283   4.040  12.171
  219MPD1    C1 3361   1.221   4.136  12.257
  219MPD1    C2 3362   1.158   4.080  12.366
  219MPD1    C3 3363   1.171   3.945  12.398
  219MPD1    C4 3364   1.246   3.859  12.325
  219MPD1    C5 3365   1.297   3.911  12.210
  219MPD1     H 3366   1.123   4.148  12.443
  219MPD1    H1 3367   1.246   3.753  12.349
  219MPD1    H2 3368   1.334   4.064  12.078
  219MPD1    H3 3369   1.351   3.847  12.142
  219MPD1     N 3370   1.117   3.894  12.521
  219MPD1    H5 3371   1.151   3.802  12.548
  219MPD1    N1 3372   1.189   4.266  12.210
  219MPD1    H6 3373   1.179   4.333  12.286
  219MPD1    H7 3374   1.256   4.315  12.152
  220MPD1     C 3375   1.146   0.138  10.305
  220MPD1    C1 3376   1.175   0.190  10.430
  220MPD1    C2 3377   1.127   0.133  10.545
  220MPD1    C3 3378   1.078   0.002  10.535
  220MPD1    C4 3379   1.077   4.722  10.411
  220MPD1    C5 3380   1.104   0.009  10.299
  220MPD1     H 3381   1.132   0.178  10.644
  220MPD1    H1 3382   1.049   4.618  10.404
  220MPD1    H2 3383   1.171   0.188  10.213
  220MPD1    H3 3384   1.097   4.742  10.203
  220MPD1     N 3385   1.038   4.720  10.652
  220MPD1    H5 3386   1.055   4.771  10.738
  220MPD1    N1 3387   1.206   0.330  10.429
  220MPD1    H6 3388   1.258   0.368  10.350
  220MPD1    H7 3389   1.257   0.363  10.510
  221MPD1     C 3390   3.174   3.000  16.443
  221MPD1    C1 3391   3.240   3.038  16.561
  221MPD1    C2 3392   3.377   3.018  16.568
  221MPD1    C3 3393   3.452   2.990  16.448
  221MPD1    C4 3394   3.380   2.972  16.327
  221MPD1    C5 3395   3.244   2.976  16.333
  221MPD1     H 3396   3.430   3.023  16.663
  221MPD1    H1 3397   3.436   2.954  16.237
  221MPD1    H2 3398   3.067   3.008  16.426
  221MPD1    H3 3399   3.188   2.948  16.244
  221MPD1     N 3400   3.589   2.972  16.443
  221MPD1    H5 3401   3.629   2.952  16.352
  221MPD1    N1 3402   3.156   3.063  16.676
  221MPD1    H6 3403   3.198   3.138  16.730
  221MPD1    H7 3404   3.065   3.090  16.639
  222MPD1     C 3405   2.473   1.628  17.941
  222MPD1    C1 3406   2.521   1.686  17.821
  222MPD1    C2 3407   2.513   1.825  17.812
  222MPD1    C3 3408   2.460   1.900  17.918
  222MPD1    C4 3409   2.417   1.833  18.034
  222MPD1    C5 3410   2.419   1.700  18.045
  222MPD1     H 3411   2.557   1.876  17.727
  222MPD1    H1 3412   2.390   1.897  18.117
  222MPD1    H2 3413   2.486   1.523  17.964
  222MPD1    H3 3414   2.394   1.643  18.133
  222MPD1     N 3415   2.468   2.043  17.937
  222MPD1    H5 3416   2.441   2.087  18.025
  222MPD1    N1 3417   2.581   1.604  17.718
  222MPD1    H6 3418   2.564   1.649  17.628
  222MPD1    H7 3419   2.543   1.510  17.711
  223MPD1     C 3420   2.125   2.753  18.517
  223MPD1    C1 3421   2.233   2.817  18.464
  223MPD1    C2 3422   2.299   2.761  18.362
  223MPD1    C3 3423   2.251   2.645  18.300
  223MPD1    C4 3424   2.138   2.582  18.351
  223MPD1    C5 3425   2.077   2.635  18.459
  223MPD1     H 3426   2.386   2.809  18.320
  223MPD1    H1 3427   2.100   2.485  18.319
  223MPD1    H2 3428   2.087   2.783  18.614
  223MPD1    H3 3429   1.989   2.587  18.502
  223MPD1     N 3430   2.330   2.590  18.194
  223MPD1    H5 3431   2.421   2.631  18.177
  223MPD1    N1 3432   2.299   2.916  18.537
  223MPD1    H6 3433   2.240   2.972  18.599
  223MPD1    H7 3434   2.359   2.983  18.490
  224MPD1     C 3435   4.618   4.185   9.174
  224MPD1    C1 3436   4.538   4.257   9.253
  224MPD1    C2 3437   4.515   4.219   9.384
  224MPD1    C3 3438   4.562   4.099   9.436
  224MPD1    C4 3439   4.647   4.027   9.356
  224MPD1    C5 3440   4.677   4.074   9.227
  224MPD1     H 3441   4.460   4.282   9.453
  224MPD1    H1 3442   4.676   3.926   9.382
  224MPD1    H2 3443   4.648   4.213   9.073
  224MPD1    H3 3444   4.735   3.997   9.178
  224MPD1     N 3445   4.537   4.047   9.565
  224MPD1    H5 3446   4.585   3.962   9.591
  224MPD1    N1 3447   4.498   4.382   9.212
  224MPD1    H6 3448   4.405   4.412   9.242
  224MPD1    H7 3449   4.496   4.381   9.110
  225MPD1     C 3450   0.974   0.178  13.159
  225MPD1    C1 3451   0.937   0.057  13.118
  225MPD1    C2 3452   0.819   0.041  13.053
  225MPD1    C3 3453   0.725   0.143  13.045
  225MPD1    C4 3454   0.759   0.266  13.096
  225MPD1    C5 3455   0.887   0.281  13.142
  225MPD1     H 3456   0.801   4.726  13.010
  225MPD1    H1 3457   0.692   0.352  13.095
  225MPD1    H2 3458   1.074   0.198  13.196
  225MPD1    H3 3459   0.923   0.370  13.194
  225MPD1     N 3460   0.592   0.127  13.003
  225MPD1    H5 3461   0.531   0.206  13.025
  225MPD1    N1 3462   1.035   4.739  13.082
  225MPD1    H6 3463   1.005   4.644  13.100
  225MPD1    H7 3464   1.118   4.746  13.141
  226MPD1     C 3465   3.990   4.034   9.373
  226MPD1    C1 3466   4.097   4.082   9.446
  226MPD1    C2 3467   4.085   4.202   9.515
  226MPD1    C3 3468   3.967   4.273   9.506
  226MPD1    C4 3469   3.861   4.235   9.424
  226MPD1    C5 3470   3.877   4.113   9.364
  226MPD1     H 3471   4.165   4.228   9.585
  226MPD1    H1 3472   3.766   4.286   9.417
  226MPD1    H2 3473   3.987   3.939   9.319
  226MPD1    H3 3474   3.789   4.087   9.307
  226MPD1     N 3475   3.959   4.396   9.584
  226MPD1    H5 3476   4.043   4.423   9.635
  226MPD1    N1 3477   4.211   3.996   9.468
  226MPD1    H6 3478   4.297   4.050   9.472
  226MPD1    H7 3479   4.224   3.927   9.393
  227MPD1     C 3480   3.432   0.469   9.472
  227MPD1    C1 3481   3.377   0.346   9.496
  227MPD1    C2 3482   3.451   0.243   9.544
  227MPD1    C3 3483   3.582   0.268   9.580
  227MPD1    C4 3484   3.636   0.390   9.557
  227MPD1    C5 3485   3.560   0.494   9.501
  227MPD1     H 3486   3.406   0.145   9.558
  227MPD1    H1 3487   3.732   0.430   9.587
  227MPD1    H2 3488   3.369   0.551   9.439
  227MPD1    H3 3489   3.604   0.591   9.483
  227MPD1     N 3490   3.653   0.162   9.641
  227MPD1    H5 3491   3.602   0.075   9.653
  227MPD1    N1 3492   3.250   0.311   9.443
  227MPD1    H6 3493   3.171   0.375   9.451
  227MPD1    H7 3494   3.215   0.221   9.472
  228MPD1     C 3495   2.723   2.772  12.798
  228MPD1    C1 3496   2.620   2.780  12.715
  228MPD1    C2 3497   2.500   2.732  12.759
  228MPD1    C3 3498   2.483   2.677  12.884
  228MPD1    C4 3499   2.584   2.678  12.973
  228MPD1    C5 3500   2.706   2.723  12.925
  228MPD1     H 3501   2.411   2.730  12.698
  228MPD1    H1 3502   2.569   2.625  13.067
  228MPD1    H2 3503   2.825   2.804  12.779
  228MPD1    H3 3504   2.792   2.714  12.990
  228MPD1     N 3505   2.359   2.630  12.904
  228MPD1    H5 3506   2.301   2.625  12.821
  228MPD1    N1 3507   2.633   2.815  12.579
  228MPD1    H6 3508   2.706   2.885  12.566
  228MPD1    H7 3509   2.544   2.854  12.548
  229MPD1     C 3510   2.141   1.283  14.859
  229MPD1    C1 3511   2.092   1.267  14.982
  229MPD1    C2 3512   2.158   1.182  15.066
  229MPD1    C3 3513   2.278   1.121  15.036
  229MPD1    C4 3514   2.328   1.141  14.913
  229MPD1    C5 3515   2.265   1.229  14.824
  229MPD1     H 3516   2.118   1.157  15.164
  229MPD1    H1 3517   2.420   1.091  14.886
  229MPD1    H2 3518   2.081   1.336  14.786
  229MPD1    H3 3519   2.311   1.265  14.733
  229MPD1     N 3520   2.339   1.021  15.121
  229MPD1    H5 3521   2.432   0.990  15.093
  229MPD1    N1 3522   1.965   1.317  15.012
  229MPD1    H6 3523   1.952   1.337  15.111
  229MPD1    H7 3524   1.938   1.401  14.960
  230MPD1     C 3525   3.000   0.984  15.935
  230MPD1    C1 3526   3.012   0.869  15.867
  230MPD1    C2 3527   2.925   0.841  15.762
  230MPD1    C3 3528   2.817   0.918  15.733
  230MPD1    C4 3529   2.811   1.043  15.798
  230MPD1    C5 3530   2.906   1.073  15.895
  230MPD1     H 3531   2.947   0.749  15.709
  230MPD1    H1 3532   2.737   1.119  15.776
  230MPD1    H2 3533   3.058   1.004  16.025
  230MPD1    H3 3534   2.890   1.164  15.952
  230MPD1     N 3535   2.730   0.875  15.632
  230MPD1    H5 3536   2.755   0.785  15.593
  230MPD1    N1 3537   3.105   0.772  15.911
  230MPD1    H6 3538   3.165   0.809  15.984
  230MPD1    H7 3539   3.169   0.757  15.833
  231MPD1     C 3540   0.490   2.773  16.154
  231MPD1    C1 3541   0.397   2.812  16.061
  231MPD1    C2 3542   0.439   2.817  15.930
  231MPD1    C3 3543   0.572   2.797  15.902
  231MPD1    C4 3544   0.667   2.766  15.996
  231MPD1    C5 3545   0.620   2.750  16.119
  231MPD1     H 3546   0.367   2.836  15.851
  231MPD1    H1 3547   0.770   2.742  15.971
  231MPD1    H2 3548   0.467   2.755  16.259
  231MPD1    H3 3549   0.692   2.720  16.194
  231MPD1     N 3550   0.614   2.816  15.763
  231MPD1    H5 3551   0.539   2.828  15.695
  231MPD1    N1 3552   0.262   2.817  16.097
  231MPD1    H6 3553   0.258   2.841  16.196
  231MPD1    H7 3554   0.226   2.899  16.049
  232MPD1     C 3555   2.477   0.759  18.595
  232MPD1    C1 3556   2.452   0.725  18.468
  232MPD1    C2 3557   2.398   0.596  18.449
  232MPD1    C3 3558   2.349   0.519  18.555
  232MPD1    C4 3559   2.355   0.578  18.681
  232MPD1    C5 3560   2.420   0.696  18.701
  232MPD1     H 3561   2.403   0.547  18.353
  232MPD1    H1 3562   2.302   0.557  18.773
  232MPD1    H2 3563   2.534   0.846  18.623
  232MPD1    H3 3564   2.436   0.733  18.802
  232MPD1     N 3565   2.285   0.398  18.528
  232MPD1    H5 3566   2.277   0.373  18.430
  232MPD1    N1 3567   2.523   0.784  18.368
  232MPD1    H6 3568   2.483   0.776  18.275
  232MPD1    H7 3569   2.532   0.884  18.383
  233MPD1     C 3570   3.929   3.430  17.782
  233MPD1    C1 3571   3.903   3.373  17.908
  233MPD1    C2 3572   3.926   3.459  18.018
  233MPD1    C3 3573   3.960   3.593  18.007
  233MPD1    C4 3574   3.962   3.649  17.881
  233MPD1    C5 3575   3.947   3.570  17.768
  233MPD1     H 3576   3.923   3.413  18.117
  233MPD1    H1 3577   3.977   3.756  17.870
  233MPD1    H2 3578   3.930   3.369  17.693
  233MPD1    H3 3579   3.959   3.602  17.665
  233MPD1     N 3580   3.994   3.674  18.122
  233MPD1    H5 3581   4.036   3.762  18.096
  233MPD1    N1 3582   3.883   3.237  17.923
  233MPD1    H6 3583   3.832   3.223  18.010
  233MPD1    H7 3584   3.823   3.212  17.844
  234MPD1     C 3585   4.739   2.186   9.674
  234MPD1    C1 3586   4.648   2.244   9.593
  234MPD1    C2 3587   4.647   2.384   9.591
  234MPD1    C3 3588   4.714   2.465   9.672
  234MPD1    C4 3589   0.016   2.400   9.761
  234MPD1    C5 3590   0.031   2.261   9.760
  234MPD1     H 3591   4.587   2.433   9.515
  234MPD1    H1 3592   0.080   2.458   9.826
  234MPD1    H2 3593   4.757   2.079   9.677
  234MPD1    H3 3594   0.105   2.212   9.821
  234MPD1     N 3595   4.691   2.601   9.667
  234MPD1    H5 3596   4.629   2.634   9.593
  234MPD1    N1 3597   4.578   2.168   9.502
  234MPD1    H6 3598   4.501   2.222   9.463
  234MPD1    H7 3599   4.542   2.085   9.548
  235MPD1     C 3600   1.378   4.484  10.741
  235MPD1    C1 3601   1.347   4.509  10.604
  235MPD1    C2 3602   1.389   4.632  10.549
  235MPD1    C3 3603   1.448   4.729  10.622
  235MPD1    C4 3604   1.471   4.703  10.756
  235MPD1    C5 3605   1.435   4.585  10.815
  235MPD1     H 3606   1.377   4.651  10.443
  235MPD1    H1 3607   1.523   4.773  10.820
  235MPD1    H2 3608   1.353   4.388  10.784
  235MPD1    H3 3609   1.464   4.565  10.918
  235MPD1     N 3610   1.496   0.061  10.550
  235MPD1    H5 3611   1.466   0.061  10.453
  235MPD1    N1 3612   1.304   4.414  10.515
  235MPD1    H6 3613   1.232   4.359  10.560
  235MPD1    H7 3614   1.270   4.453  10.427
  236MPD1     C 3615   1.135   2.199  10.384
  236MPD1    C1 3616   1.033   2.117  10.413
  236MPD1    C2 3617   1.058   2.001  10.485
  236MPD1    C3 3618   1.187   1.972  10.537
  236MPD1    C4 3619   1.293   2.060  10.513
  236MPD1    C5 3620   1.264   2.172  10.443
  236MPD1     H 3621   0.973   1.935  10.482
  236MPD1    H1 3622   1.396   2.051  10.547
  236MPD1    H2 3623   1.121   2.286  10.321
  236MPD1    H3 3624   1.339   2.244  10.411
  236MPD1     N 3625   1.219   1.847  10.593
  236MPD1    H5 3626   1.319   1.831  10.598
  236MPD1    N1 3627   0.912   2.133  10.339
  236MPD1    H6 3628   0.834   2.082  10.379
  236MPD1    H7 3629   0.893   2.228  10.309
  237MPD1     C 3630   1.268   4.028  15.439
  237MPD1    C1 3631   1.222   4.123  15.518
  237MPD1    C2 3632   1.088   4.113  15.564
  237MPD1    C3 3633   0.998   4.015  15.524
  237MPD1    C4 3634   1.048   3.923  15.447
  237MPD1    C5 3635   1.181   3.928  15.402
  237MPD1     H 3636   1.058   4.191  15.633
  237MPD1    H1 3637   0.979   3.847  15.412
  237MPD1    H2 3638   1.372   4.026  15.407
  237MPD1    H3 3639   1.217   3.844  15.343
  237MPD1     N 3640   0.867   4.007  15.568
  237MPD1    H5 3641   0.812   3.942  15.513
  237MPD1    N1 3642   1.297   4.245  15.530
  237MPD1    H6 3643   1.399   4.233  15.531
  237MPD1    H7 3644   1.266   4.289  15.616
  238MPD1     C 3645   2.723   3.090  15.085
  238MPD1    C1 3646   2.691   2.970  15.152
  238MPD1    C2 3647   2.591   2.892  15.101
  238MPD1    C3 3648   2.541   2.909  14.974
  238MPD1    C4 3649   2.582   3.018  14.904
  238MPD1    C5 3650   2.665   3.110  14.961
  238MPD1     H 3651   2.583   2.800  15.157
  238MPD1    H1 3652   2.541   3.040  14.806
  238MPD1    H2 3653   2.798   3.158  15.123
  238MPD1    H3 3654   2.699   3.188  14.894
  238MPD1     N 3655   2.428   2.837  14.924
  238MPD1    H5 3656   2.394   2.860  14.831
  238MPD1    N1 3657   2.744   2.941  15.278
  238MPD1    H6 3658   2.832   2.990  15.292
  238MPD1    H7 3659   2.755   2.845  15.311
  239MPD1     C 3660   2.679   3.337  15.330
  239MPD1    C1 3661   2.795   3.391  15.272
  239MPD1    C2 3662   2.775   3.492  15.175
  239MPD1    C3 3663   2.644   3.531  15.146
  239MPD1    C4 3664   2.537   3.480  15.212
  239MPD1    C5 3665   2.553   3.372  15.290
  239MPD1     H 3666   2.864   3.525  15.122
  239MPD1    H1 3667   2.433   3.507  15.196
  239MPD1    H2 3668   2.694   3.256  15.400
  239MPD1    H3 3669   2.463   3.325  15.327
  239MPD1     N 3670   2.618   3.624  15.040
  239MPD1    H5 3671   2.522   3.639  15.009
  239MPD1    N1 3672   2.918   3.342  15.304
  239MPD1    H6 3673   2.909   3.266  15.371
  239MPD1    H7 3674   2.979   3.311  15.229
  240MPD1     C 3675   1.647   3.809  13.879
  240MPD1    C1 3676   1.540   3.740  13.932
  240MPD1    C2 3677   1.566   3.634  14.023
  240MPD1    C3 3678   1.698   3.602  14.068
  240MPD1    C4 3679   1.798   3.682  14.014
  240MPD1    C5 3680   1.768   3.786  13.934
  240MPD1     H 3681   1.485   3.568  14.048
  240MPD1    H1 3682   1.905   3.673  14.031
  240MPD1    H2 3683   1.644   3.886  13.804
  240MPD1    H3 3684   1.861   3.832  13.901
  240MPD1     N 3685   1.727   3.492  14.149
  240MPD1    H5 3686   1.648   3.439  14.185
  240MPD1    N1 3687   1.409   3.758  13.886
  240MPD1    H6 3688   1.340   3.705  13.939
  240MPD1    H7 3689   1.388   3.858  13.889
  241MPD1     C 3690   2.268   3.227  15.043
  241MPD1    C1 3691   2.322   3.279  14.930
  241MPD1    C2 3692   2.256   3.265  14.809
  241MPD1    C3 3693   2.137   3.201  14.798
  241MPD1    C4 3694   2.078   3.154  14.919
  241MPD1    C5 3695   2.143   3.170  15.034
  241MPD1     H 3696   2.291   3.310  14.717
  241MPD1    H1 3697   1.978   3.113  14.922
  241MPD1    H2 3698   2.315   3.248  15.138
  241MPD1    H3 3699   2.095   3.125  15.120
  241MPD1     N 3700   2.053   3.197  14.684
  241MPD1    H5 3701   1.967   3.142  14.689
  241MPD1    N1 3702   2.433   3.360  14.939
  241MPD1    H6 3703   2.501   3.323  15.004
  241MPD1    H7 3704   2.492   3.354  14.856
  242MPD1     C 3705   1.699   1.593  16.209
  242MPD1    C1 3706   1.834   1.632  16.215
  242MPD1    C2 3707   1.882   1.688  16.100
  242MPD1    C3 3708   1.816   1.679  15.977
  242MPD1    C4 3709   1.701   1.613  15.977
  242MPD1    C5 3710   1.642   1.559  16.091
  242MPD1     H 3711   1.965   1.757  16.101
  242MPD1    H1 3712   1.650   1.593  15.884
  242MPD1    H2 3713   1.644   1.564  16.298
  242MPD1    H3 3714   1.551   1.501  16.081
  242MPD1     N 3715   1.874   1.702  15.847
  242MPD1    H5 3716   1.814   1.673  15.770
  242MPD1    N1 3717   1.888   1.667  16.343
  242MPD1    H6 3718   1.989   1.676  16.343
  242MPD1    H7 3719   1.862   1.597  16.412
  243MPD1     C 3720   3.120   0.609  18.486
  243MPD1    C1 3721   3.090   0.506  18.399
  243MPD1    C2 3722   3.175   0.479  18.290
  243MPD1    C3 3723   3.271   0.577  18.255
  243MPD1    C4 3724   3.299   0.685  18.342
  243MPD1    C5 3725   3.221   0.701  18.455
  243MPD1     H 3726   3.154   0.400  18.219
  243MPD1    H1 3727   3.384   0.747  18.314
  243MPD1    H2 3728   3.059   0.621  18.574
  243MPD1    H3 3729   3.235   0.787  18.519
  243MPD1     N 3730   3.333   0.557  18.128
  243MPD1    H5 3731   3.308   0.466  18.091
  243MPD1    N1 3732   3.009   0.403  18.449
  243MPD1    H6 3733   2.969   0.355  18.368
  243MPD1    H7 3734   2.932   0.440  18.504
  244MPD1     C 3735   3.442   4.542  17.868
  244MPD1    C1 3736   3.370   4.611  17.961
  244MPD1    C2 3737   3.381   4.746  17.955
  244MPD1    C3 3738   3.450   0.037  17.856
  244MPD1    C4 3739   3.515   4.743  17.764
  244MPD1    C5 3740   3.511   4.608  17.771
  244MPD1     H 3741   3.319   0.018  18.025
  244MPD1    H1 3742   3.566   0.001  17.678
  244MPD1    H2 3743   3.438   4.434  17.865
  244MPD1    H3 3744   3.570   4.553  17.698
  244MPD1     N 3745   3.461   0.179  17.868
  244MPD1    H5 3746   3.397   0.231  17.928
  244MPD1    N1 3747   3.318   4.548  18.074
  244MPD1    H6 3748   3.254   4.605  18.129
  244MPD1    H7 3749   3.272   4.462  18.046
  245MPD1     C 3750   0.310   0.474  13.630
  245MPD1    C1 3751   0.378   0.472  13.753
  245MPD1    C2 3752   0.420   0.599  13.799
  245MPD1    C3 3753   0.401   0.713  13.729
  245MPD1    C4 3754   0.332   0.706  13.609
  245MPD1    C5 3755   0.292   0.585  13.553
  245MPD1     H 3756   0.464   0.604  13.898
  245MPD1    H1 3757   0.297   0.793  13.555
  245MPD1    H2 3758   0.288   0.374  13.595
  245MPD1    H3 3759   0.246   0.587  13.455
  245MPD1     N 3760   0.444   0.835  13.789
  245MPD1    H5 3761   0.513   0.826  13.863
  245MPD1    N1 3762   0.406   0.351  13.818
  245MPD1    H6 3763   0.376   0.358  13.916
  245MPD1    H7 3764   0.373   0.268  13.770
  246MPD1     C 3765   0.789   3.129   9.221
  246MPD1    C1 3766   0.745   3.011   9.172
  246MPD1    C2 3767   0.811   2.896   9.213
  246MPD1    C3 3768   0.920   2.898   9.294
  246MPD1    C4 3769   0.967   3.022   9.339
  246MPD1    C5 3770   0.906   3.136   9.298
  246MPD1     H 3771   0.789   2.798   9.172
  246MPD1    H1 3772   1.059   3.025   9.396
  246MPD1    H2 3773   0.733   3.218   9.197
  246MPD1    H3 3774   0.946   3.231   9.331
  246MPD1     N 3775   0.979   2.776   9.326
  246MPD1    H5 3776   0.933   2.692   9.291
  246MPD1    N1 3777   0.613   3.006   9.114
  246MPD1    H6 3778   0.599   3.091   9.060
  246MPD1    H7 3779   0.602   2.930   9.048
  247MPD1     C 3780   4.353   0.510  15.457
  247MPD1    C1 3781   4.404   0.625  15.510
  247MPD1    C2 3782   4.414   0.634  15.650
  247MPD1    C3 3783   4.393   0.517  15.728
  247MPD1    C4 3784   4.344   0.409  15.669
  247MPD1    C5 3785   4.323   0.408  15.538
  247MPD1     H 3786   4.457   0.725  15.689
  247MPD1    H1 3787   4.314   0.320  15.722
  247MPD1    H2 3788   4.337   0.504  15.350
  247MPD1    H3 3789   4.288   0.314  15.498
  247MPD1     N 3790   4.428   0.518  15.862
  247MPD1    H5 3791   4.432   0.430  15.913
  247MPD1    N1 3792   4.414   0.739  15.427
  247MPD1    H6 3793   4.481   0.799  15.477
  247MPD1    H7 3794   4.440   0.707  15.334
  248MPD1     C 3795   1.050   0.486  18.240
  248MPD1    C1 3796   0.942   0.564  18.218
  248MPD1    C2 3797   0.840   0.573  18.316
  248MPD1    C3 3798   0.859   0.515  18.438
  248MPD1    C4 3799   0.976   0.442  18.458
  248MPD1    C5 3800   1.066   0.425  18.356
  248MPD1     H 3801   0.749   0.619  18.278
  248MPD1    H1 3802   0.997   0.403  18.557
  248MPD1    H2 3803   1.132   0.475  18.170
  248MPD1    H3 3804   1.157   0.372  18.379
  248MPD1     N 3805   0.754   0.522  18.531
  248MPD1    H5 3806   0.684   0.588  18.499
  248MPD1    N1 3807   0.913   0.634  18.094
  248MPD1    H6 3808   0.836   0.700  18.093
  248MPD1    H7 3809   0.994   0.685  18.059
  249MPD1     C 3810   1.966   4.218  10.378
  249MPD1    C1 3811   2.021   4.299  10.471
  249MPD1    C2 3812   2.086   4.414  10.423
  249MPD1    C3 3813   2.085   4.451  10.286
  249MPD1    C4 3814   2.018   4.366  10.198
  249MPD1    C5 3815   1.960   4.248  10.248
  249MPD1     H 3816   2.152   4.470  10.490
  249MPD1    H1 3817   2.012   4.392  10.093
  249MPD1    H2 3818   1.921   4.125  10.412
  249MPD1    H3 3819   1.918   4.180  10.174
  249MPD1     N 3820   2.147   4.568  10.242
  249MPD1    H5 3821   2.183   4.631  10.314
  249MPD1    N1 3822   2.056   4.245  10.594
  249MPD1    H6 3823   1.968   4.205  10.627
  249MPD1    H7 3824   2.092   4.313  10.662
  250MPD2     C 3825   3.785   4.068  13.444
  250MPD2    C1 3826   3.709   4.176  13.413
  250MPD2    C2 3827   3.592   4.164  13.340
  250MPD2    C3 3828   3.542   4.035  13.315
  250MPD2    C4 3829   3.613   3.927  13.365
  250MPD2    C5 3830   3.731   3.941  13.428
  250MPD2     H 3831   3.548   4.257  13.304
  250MPD2    H1 3832   3.572   3.828  13.347
  250MPD2    H2 3833   3.884   4.087  13.484
  250MPD2    H3 3834   3.781   3.852  13.466
  250MPD2     N 3835   3.406   4.015  13.272
  250MPD2    H5 3836   3.369   3.925  13.299
  250MPD2    N1 3837   3.754   4.301  13.455
  250MPD2    H7 3838   3.843   4.312  13.501
  251TMC3    C1 3839   3.782   4.531  13.483
  251TMC3    C2 3840   3.727   4.657  13.494
  251TMC3    C3 3841   3.808   4.764  13.520
  251TMC3    C4 3842   3.914   4.509  13.512
  251TMC3    C5 3843   3.991   4.618  13.545
  251TMC3    C6 3844   3.941   4.751  13.543
  251TMC3     C 3845   3.694   4.422  13.441
  251TMC3     O 3846   3.587   4.447  13.392
  251TMC3     H 3847   3.619   4.656  13.487
  251TMC3    H1 3848   3.964   4.415  13.494
  251TMC3    H2 3849   3.999   0.059  13.560
  251TMC3    C7 3850   4.133   4.591  13.577
  251TMC3    C8 3851   3.740   0.100  13.574
  251TMC3    O1 3852   4.167   4.474  13.588
  251TMC3    O2 3853   3.643   0.073  13.645
  252TMC3    C1 3854   3.654   1.048   9.360
  252TMC3    C2 3855   3.779   1.052   9.423
  252TMC3    C3 3856   3.784   1.051   9.563
  252TMC3    C4 3857   3.544   1.053   9.434
  252TMC3    C5 3858   3.556   1.041   9.572
  252TMC3    C6 3859   3.670   1.037   9.639
  252TMC3     C 3860   3.640   1.060   9.216
  252TMC3     O 3861   3.527   1.078   9.176
  252TMC3     H 3862   3.872   1.053   9.368
  252TMC3    H1 3863   3.445   1.051   9.389
  252TMC3    H2 3864   3.667   1.041   9.748
  252TMC3    C7 3865   3.437   1.005   9.647
  252TMC3    C8 3866   3.898   1.099   9.631
  252TMC3    O1 3867   3.335   1.054   9.604
  252TMC3    O2 3868   3.966   1.165   9.552
  253MPD2     C 3869   0.215   4.322  15.507
  253MPD2    C1 3870   0.100   4.263  15.555
  253MPD2    C2 3871   0.072   4.259  15.687
  253MPD2    C3 3872   0.160   4.316  15.772
  253MPD2    C4 3873   0.278   4.370  15.729
  253MPD2    C5 3874   0.312   4.368  15.596
  253MPD2     H 3875   4.770   4.199  15.721
  253MPD2    H1 3876   0.339   4.424  15.800
  253MPD2    H2 3877   0.261   4.317  15.409
  253MPD2    H3 3878   0.398   4.420  15.556
  253MPD2     N 3879   0.121   4.342  15.902
  253MPD2    H5 3880   0.188   4.405  15.945
  253MPD2    N1 3881   0.010   4.200  15.463
  253MPD2    H7 3882   4.720   4.140  15.501
  254TMC3    C1 3883   4.748   4.363  16.092
  254TMC3    C2 3884   4.616   4.342  16.126
  254TMC3    C3 3885   4.575   4.309  16.251
  254TMC3    C4 3886   0.064   4.355  16.189
  254TMC3    C5 3887   0.019   4.335  16.316
  254TMC3    C6 3888   4.672   4.300  16.345
  254TMC3     C 3889   4.780   4.310  15.957
  254TMC3     O 3890   4.691   4.240  15.916
  254TMC3     H 3891   4.542   4.362  16.049
  254TMC3    H1 3892   0.169   4.339  16.168
  254TMC3    H2 3893   4.647   4.281  16.449
  254TMC3    C7 3894   0.112   4.315  16.427
  254TMC3    C8 3895   4.439   4.319  16.301
  254TMC3    O1 3896   0.072   4.241  16.520
  254TMC3    O2 3897   4.417   4.256  16.404
  255MPD2     C 3898   2.668   2.060  10.591
  255MPD2    C1 3899   2.780   2.119  10.642
  255MPD2    C2 3900   2.903   2.059  10.629
  255MPD2    C3 3901   2.911   1.934  10.575
  255MPD2    C4 3902   2.800   1.874  10.522
  255MPD2    C5 3903   2.678   1.940  10.535
  255MPD2     H 3904   2.990   2.113  10.665
  255MPD2    H1 3905   2.797   1.774  10.481
  255MPD2    H2 3906   2.575   2.113  10.604
  255MPD2    H3 3907   2.589   1.886  10.506
  255MPD2     N 3908   3.038   1.877  10.565
  255MPD2    H5 3909   3.110   1.931  10.612
  255MPD2    N1 3910   2.768   2.253  10.698
  255MPD2    H7 3911   2.674   2.290  10.701
  256TMC3    C1 3912   2.817   2.461  10.787
  256TMC3    C2 3913   2.909   2.562  10.752
  256TMC3    C3 3914   2.861   2.677  10.697
  256TMC3    C4 3915   2.683   2.481  10.783
  256TMC3    C5 3916   2.637   2.601  10.737
  256TMC3    C6 3917   2.722   2.694  10.684
  256TMC3     C 3918   2.864   2.327  10.753
  256TMC3     O 3919   2.988   2.314  10.753
  256TMC3     H 3920   3.015   2.555  10.775
  256TMC3    H1 3921   2.608   2.413  10.821
  256TMC3    H2 3922   2.688   2.782  10.633
  256TMC3    C7 3923   2.515   2.571  10.662
  256TMC3    C8 3924   2.907   2.687  10.566
  256TMC3    O1 3925   2.482   2.456  10.640
  256TMC3    O2 3926   2.902   2.584  10.500
  257MPD2     C 3927   2.529   4.457  13.557
  257MPD2    C1 3928   2.458   4.370  13.477
  257MPD2    C2 3929   2.392   4.259  13.538
  257MPD2    C3 3930   2.395   4.248  13.675
  257MPD2    C4 3931   2.464   4.337  13.749
  257MPD2    C5 3932   2.530   4.442  13.689
  257MPD2     H 3933   2.336   4.193  13.473
  257MPD2    H1 3934   2.469   4.338  13.857
  257MPD2    H2 3935   2.586   4.541  13.519
  257MPD2    H3 3936   2.569   4.514  13.760
  257MPD2     N 3937   2.332   4.137  13.735
  257MPD2    H5 3938   2.272   4.080  13.677
  257MPD2    N1 3939   2.447   4.404  13.342
  257MPD2    H7 3940   2.508   4.481  13.319
  258TMC3    C1 3941   2.321   3.951  13.881
  258TMC3    C2 3942   2.363   3.853  13.794
  258TMC3    C3 3943   2.378   3.725  13.837
  258TMC3    C4 3944   2.301   3.918  14.013
  258TMC3    C5 3945   2.328   3.793  14.055
  258TMC3    C6 3946   2.350   3.693  13.966
  258TMC3     C 3947   2.362   4.087  13.860
  258TMC3     O 3948   2.415   4.147  13.950
  258TMC3     H 3949   2.379   3.885  13.692
  258TMC3    H1 3950   2.287   4.000  14.082
  258TMC3    H2 3951   2.358   3.590  13.996
  258TMC3    C7 3952   2.318   3.771  14.199
  258TMC3    C8 3953   2.407   3.618  13.739
  258TMC3    O1 3954   2.244   3.848  14.263
  258TMC3    O2 3955   2.328   3.527  13.746
  259MPD2     C 3956   1.155   0.945  18.936
  259MPD2    C1 3957   1.219   0.858  19.017
  259MPD2    C2 3958   1.339   0.804  18.969
  259MPD2    C3 3959   1.383   0.839  18.838
  259MPD2    C4 3960   1.307   0.926  18.758
  259MPD2    C5 3961   1.183   0.972  18.809
  259MPD2     H 3962   1.407   0.742  19.026
  259MPD2    H1 3963   1.338   0.961  18.660
  259MPD2    H2 3964   1.071   1.002  18.975
  259MPD2    H3 3965   1.127   1.042  18.748
  259MPD2     N 3966   1.504   0.791  18.796
  259MPD2    H5 3967   1.556   0.752  18.874
  259MPD2    N1 3968   1.180   0.838  19.151
  259MPD2    H7 3969   1.102   0.886  19.196
  260TMC3    C1 3970   1.695   0.753  18.664
  260TMC3    C2 3971   1.776   0.775  18.556
  260TMC3    C3 3972   1.902   0.725  18.556
  260TMC3    C4 3973   1.755   0.683  18.775
  260TMC3    C5 3974   1.877   0.631  18.763
  260TMC3    C6 3975   1.962   0.661  18.661
  260TMC3     C 3976   1.563   0.814  18.675
  260TMC3     O 3977   1.538   0.891  18.583
  260TMC3     H 3978   1.743   0.819  18.462
  260TMC3    H1 3979   1.694   0.647  18.857
  260TMC3    H2 3980   2.067   0.635  18.656
  260TMC3    C7 3981   1.934   0.544  18.870
  260TMC3    C8 3982   1.966   0.716  18.424
  260TMC3    O1 3983   2.048   0.545  18.897
  260TMC3    O2 3984   1.973   0.810  18.345
  261MPD2     C 3985   2.892   4.082  12.627
  261MPD2    C1 3986   2.984   4.164  12.689
  261MPD2    C2 3987   3.031   4.270  12.626
  261MPD2    C3 3988   2.999   4.284  12.486
  261MPD2    C4 3989   2.911   4.198  12.426
  261MPD2    C5 3990   2.853   4.097  12.498
  261MPD2     H 3991   3.099   4.341  12.670
  261MPD2    H1 3992   2.856   4.211  12.333
  261MPD2    H2 3993   2.841   4.003  12.682
  261MPD2    H3 3994   2.768   4.039  12.465
  261MPD2     N 3995   3.042   4.403  12.421
  261MPD2    H5 3996   3.094   4.470  12.478
  261MPD2    N1 3997   3.029   4.145  12.819
  261MPD2    H7 3998   3.083   4.211  12.874
  262TMC3    C1 3999   3.083   4.572  12.275
  262TMC3    C2 4000   3.013   4.668  12.349
  262TMC3    C3 4001   3.052   0.014  12.349
  262TMC3    C4 4002   3.189   4.610  12.193
  262TMC3    C5 4003   3.234   4.741  12.192
  262TMC3    C6 4004   3.164   0.050  12.272
  262TMC3     C 4005   3.037   4.436  12.293
  262TMC3     O 4006   3.020   4.361  12.194
  262TMC3     H 4007   2.924   4.636  12.403
  262TMC3    H1 4008   3.238   4.534  12.133
  262TMC3    H2 4009   3.202   0.152  12.274
  262TMC3    C7 4010   3.332   0.002  12.094
  262TMC3    C8 4011   2.940   0.114  12.341
  262TMC3    O1 4012   3.418   4.709  12.048
  262TMC3    O2 4013   2.979   0.226  12.357
  263MPD2     C 4014   3.799   3.599  12.105
  263MPD2    C1 4015   3.902   3.604  12.011
  263MPD2    C2 4016   3.909   3.702  11.914
  263MPD2    C3 4017   3.801   3.786  11.896
  263MPD2    C4 4018   3.699   3.782  11.991
  263MPD2    C5 4019   3.701   3.692  12.098
  263MPD2     H 4020   3.999   3.709  11.853
  263MPD2    H1 4021   3.617   3.853  11.988
  263MPD2    H2 4022   3.788   3.522  12.181
  263MPD2    H3 4023   3.624   3.693  12.174
  263MPD2     N 4024   3.803   3.882  11.793
  263MPD2    H5 4025   3.886   3.871  11.736
  263MPD2    N1 4026   4.006   3.512  12.024
  263MPD2    H7 4027   3.992   3.443  12.098
  264TMC3    C1 4028   3.732   4.034  11.636
  264TMC3    C2 4029   3.698   4.164  11.643
  264TMC3    C3 4030   3.726   4.243  11.529
  264TMC3    C4 4031   3.791   3.967  11.531
  264TMC3    C5 4032   3.810   4.044  11.419
  264TMC3    C6 4033   3.778   4.177  11.418
  264TMC3     C 4034   3.710   3.974  11.761
  264TMC3     O 4035   3.616   4.011  11.831
  264TMC3     H 4036   3.673   4.213  11.737
  264TMC3    H1 4037   3.811   3.861  11.540
  264TMC3    H2 4038   3.813   4.238  11.336
  264TMC3    C7 4039   3.935   4.017  11.341
  264TMC3    C8 4040   3.829   4.341  11.563
  264TMC3    O1 4041   3.942   4.076  11.232
  264TMC3    O2 4042   3.938   4.322  11.513
  265MPD2     C 4043   1.266   3.734  15.907
  265MPD2    C1 4044   1.292   3.845  15.834
  265MPD2    C2 4045   1.331   3.816  15.704
  265MPD2    C3 4046   1.350   3.689  15.657
  265MPD2    C4 4047   1.308   3.584  15.735
  265MPD2    C5 4048   1.273   3.605  15.864
  265MPD2     H 4049   1.369   3.897  15.643
  265MPD2    H1 4050   1.321   3.480  15.707
  265MPD2    H2 4051   1.228   3.736  16.008
  265MPD2    H3 4052   1.247   3.521  15.928
  265MPD2     N 4053   1.419   3.653  15.543
  265MPD2    H5 4054   1.435   3.553  15.542
  265MPD2    N1 4055   1.281   3.976  15.885
  265MPD2    H7 4056   1.286   4.051  15.816
  266TMC3    C1 4057   1.262   4.153  16.040
  266TMC3    C2 4058   1.302   4.198  16.158
  266TMC3    C3 4059   1.314   4.335  16.175
  266TMC3    C4 4060   1.212   4.238  15.942
  266TMC3    C5 4061   1.225   4.375  15.965
  266TMC3    C6 4062   1.283   4.427  16.081
  266TMC3     C 4063   1.272   4.012  16.021
  266TMC3     O 4064   1.273   3.944  16.122
  266TMC3     H 4065   1.339   4.136  16.239
  266TMC3    H1 4066   1.180   4.198  15.846
  266TMC3    H2 4067   1.298   4.533  16.095
  266TMC3    C7 4068   1.206   4.456  15.844
  266TMC3    C8 4069   1.392   4.379  16.295
  266TMC3    O1 4070   1.207   4.399  15.738
  266TMC3    O2 4071   1.469   4.289  16.337
  267MPD2     C 4072   3.337   1.076  18.356
  267MPD2    C1 4073   3.407   1.150  18.261
  267MPD2    C2 4074   3.345   1.202  18.153
  267MPD2    C3 4075   3.209   1.171  18.135
  267MPD2    C4 4076   3.142   1.096  18.223
  267MPD2    C5 4077   3.203   1.056  18.336
  267MPD2     H 4078   3.406   1.251  18.077
  267MPD2    H1 4079   3.042   1.059  18.206
  267MPD2    H2 4080   3.400   1.027  18.430
  267MPD2    H3 4081   3.153   0.986  18.402
  267MPD2     N 4082   3.139   1.213  18.012
  267MPD2    H5 4083   3.053   1.166  17.987
  267MPD2    N1 4084   3.545   1.160  18.293
  267MPD2    H7 4085   3.584   1.106  18.369
  268TMC3    C1 4086   3.768   1.239  18.285
  268TMC3    C2 4087   3.869   1.293  18.204
  268TMC3    C3 4088   3.987   1.327  18.258
  268TMC3    C4 4089   3.785   1.222  18.419
  268TMC3    C5 4090   3.908   1.257  18.464
  268TMC3    C6 4091   4.021   1.302  18.388
  268TMC3     C 4092   3.636   1.236  18.221
  268TMC3     O 4093   3.622   1.285  18.107
  268TMC3     H 4094   3.859   1.285  18.096
  268TMC3    H1 4095   3.710   1.174  18.481
  268TMC3    H2 4096   4.116   1.331  18.432
  268TMC3    C7 4097   3.948   1.227  18.602
  268TMC3    C8 4098   4.057   1.437  18.197
  268TMC3    O1 4099   4.055   1.171  18.623
  268TMC3    O2 4100   4.106   1.525  18.274
  269MPD2     C 4101   3.956   4.572  15.816
  269MPD2    C1 4102   3.889   4.629  15.923
  269MPD2    C2 4103   3.888   4.765  15.943
  269MPD2    C3 4104   3.956   0.064  15.848
  269MPD2    C4 4105   4.005   0.013  15.735
  269MPD2    C5 4106   4.004   4.661  15.721
  269MPD2     H 4107   3.834   0.035  16.020
  269MPD2    H1 4108   4.061   0.066  15.659
  269MPD2    H2 4109   3.965   4.466  15.794
  269MPD2    H3 4110   4.054   4.621  15.633
  269MPD2     N 4111   3.962   0.209  15.877
  269MPD2    H5 4112   3.926   0.233  15.969
  269MPD2    N1 4113   3.821   4.536  16.010
  269MPD2    H7 4114   3.817   4.437  15.985
  270TMC3    C1 4115   3.707   4.444  16.192
  270TMC3    C2 4116   3.573   4.413  16.169
  270TMC3    C3 4117   3.534   4.285  16.201
  270TMC3    C4 4118   3.803   4.355  16.225
  270TMC3    C5 4119   3.756   4.231  16.264
  270TMC3    C6 4120   3.629   4.204  16.256
  270TMC3     C 4121   3.751   4.564  16.121
  270TMC3     O 4122   3.720   4.672  16.174
  270TMC3     H 4123   3.500   4.467  16.109
  270TMC3    H1 4124   3.904   4.394  16.226
  270TMC3    H2 4125   3.599   4.102  16.278
  270TMC3    C7 4126   3.858   4.128  16.229
  270TMC3    C8 4127   3.461   4.211  16.107
  270TMC3    O1 4128   3.977   4.149  16.253
  270TMC3    O2 4129   3.511   4.106  16.065
  271MPD2     C 4130   3.118   4.377  14.365
  271MPD2    C1 4131   3.022   4.322  14.448
  271MPD2    C2 4132   2.890   4.379  14.443
  271MPD2    C3 4133   2.849   4.487  14.362
  271MPD2    C4 4134   2.951   4.535  14.286
  271MPD2    C5 4135   3.082   4.489  14.290
  271MPD2     H 4136   2.816   4.324  14.501
  271MPD2    H1 4137   2.933   4.615  14.214
  271MPD2    H2 4138   3.214   4.328  14.353
  271MPD2    H3 4139   3.150   4.533  14.219
  271MPD2     N 4140   2.722   4.539  14.343
  271MPD2    H5 4141   2.701   4.605  14.269
  271MPD2    N1 4142   3.037   4.205  14.522
  271MPD2    H7 4143   2.953   4.176  14.570
  272TMC3    C1 4144   3.137   4.024  14.640
  272TMC3    C2 4145   3.250   3.944  14.657
  272TMC3    C3 4146   3.276   3.893  14.780
  272TMC3    C4 4147   3.047   4.035  14.749
  272TMC3    C5 4148   3.083   3.984  14.869
  272TMC3    C6 4149   3.197   3.911  14.890
  272TMC3     C 4150   3.152   4.127  14.540
  272TMC3     O 4151   3.271   4.148  14.507
  272TMC3     H 4152   3.315   3.935  14.571
  272TMC3    H1 4153   2.957   4.095  14.753
  272TMC3    H2 4154   3.199   3.856  14.983
  272TMC3    C7 4155   3.017   4.026  14.984
  272TMC3    C8 4156   3.386   3.795  14.787
  272TMC3    O1 4157   2.903   4.063  14.976
  272TMC3    O2 4158   3.435   3.780  14.675
  273MPD2     C 4159   4.380   2.591  11.993
  273MPD2    C1 4160   4.506   2.608  11.954
  273MPD2    C2 4161   4.531   2.613  11.818
  273MPD2    C3 4162   4.429   2.582  11.726
  273MPD2    C4 4163   4.298   2.559  11.768
  273MPD2    C5 4164   4.273   2.565  11.906
  273MPD2     H 4165   4.632   2.624  11.781
  273MPD2    H1 4166   4.220   2.544  11.695
  273MPD2    H2 4167   4.346   2.579  12.095
  273MPD2    H3 4168   4.172   2.567  11.946
  273MPD2     N 4169   4.449   2.604  11.586
  273MPD2    H5 4170   4.368   2.611  11.525
  273MPD2    N1 4171   4.602   2.639  12.056
  273MPD2    H7 4172   4.565   2.646  12.151
  274TMC3    C1 4173   4.590   2.651  11.405
  274TMC3    C2 4174   4.479   2.666  11.318
  274TMC3    C3 4175   4.474   2.787  11.252
  274TMC3    C4 4176   4.691   2.741  11.417
  274TMC3    C5 4177   4.683   2.857  11.339
  274TMC3    C6 4178   4.579   2.876  11.249
  274TMC3     C 4179   4.568   2.577  11.527
  274TMC3     O 4180   4.668   2.522  11.576
  274TMC3     H 4181   4.404   2.590  11.301
  274TMC3    H1 4182   4.780   2.731  11.479
  274TMC3    H2 4183   4.563   2.969  11.197
  274TMC3    C7 4184   4.682   2.971  11.432
  274TMC3    C8 4185   4.350   2.819  11.180
  274TMC3    O1 4186   4.594   3.060  11.423
  274TMC3    O2 4187   4.244   2.769  11.211
  275MPD2     C 4188   4.537   0.179  14.764
  275MPD2    C1 4189   4.477   0.232  14.876
  275MPD2    C2 4190   4.342   0.201  14.886
  275MPD2    C3 4191   4.267   0.120  14.807
  275MPD2    C4 4192   4.330   0.073  14.687
  275MPD2    C5 4193   4.463   0.112  14.668
  275MPD2     H 4194   4.312   0.242  14.982
  275MPD2    H1 4195   4.282   0.010  14.612
  275MPD2    H2 4196   4.640   0.203  14.743
  275MPD2    H3 4197   4.509   0.071  14.579
  275MPD2     N 4198   4.134   0.091  14.832
  275MPD2    H5 4199   4.087   0.040  14.758
  275MPD2    N1 4200   4.531   0.313  14.975
  275MPD2    H7 4201   4.458   0.340  15.041
  276TMC3    C1 4202   4.696   0.407  15.112
  276TMC3    C2 4203   4.628   0.370  15.222
  276TMC3    C3 4204   4.692   0.388  15.342
  276TMC3    C4 4205   0.038   0.472  15.112
  276TMC3    C5 4206   0.093   0.479  15.235
  276TMC3    C6 4207   0.035   0.438  15.350
  276TMC3     C 4208   4.660   0.357  14.981
  276TMC3     O 4209   4.738   0.365  14.890
  276TMC3     H 4210   4.527   0.331  15.219
  276TMC3    H1 4211   0.089   0.505  15.021
  276TMC3    H2 4212   0.082   0.420  15.446
  276TMC3    C7 4213   0.221   0.538  15.250
  276TMC3    C8 4214   4.646   0.298  15.446
  276TMC3    O1 4215   0.247   0.566  15.369
  276TMC3    O2 4216   4.651   0.343  15.561
  277MPD2     C 4217   1.822   4.226  13.672
  277MPD2    C1 4218   1.687   4.210  13.651
  277MPD2    C2 4219   1.621   4.172  13.763
  277MPD2    C3 4220   1.670   4.150  13.885
  277MPD2    C4 4221   1.803   4.164  13.905
  277MPD2    C5 4222   1.882   4.204  13.797
  277MPD2     H 4223   1.513   4.184  13.757
  277MPD2    H1 4224   1.850   4.149  14.002
  277MPD2    H2 4225   1.895   4.235  13.592
  277MPD2    H3 4226   1.989   4.204  13.812
  277MPD2     N 4227   1.582   4.116  13.993
  277MPD2    H5 4228   1.482   4.127  13.975
  277MPD2    N1 4229   1.629   4.242  13.524
  277MPD2    H7 4230   1.686   4.296  13.459
  278TMC3    C1 4231   1.493   4.048  14.191
  278TMC3    C2 4232   1.489   3.929  14.243
  278TMC3    C3 4233   1.363   3.887  14.288
  278TMC3    C4 4234   1.380   4.127  14.167
  278TMC3    C5 4235   1.259   4.090  14.221
  278TMC3    C6 4236   1.252   3.970  14.278
  278TMC3     C 4237   1.612   4.083  14.122
  278TMC3     O 4238   1.720   4.044  14.170
  278TMC3     H 4239   1.579   3.870  14.255
  278TMC3    H1 4240   1.393   4.222  14.116
  278TMC3    H2 4241   1.161   3.936  14.325
  278TMC3    C7 4242   1.148   4.135  14.148
  278TMC3    C8 4243   1.340   3.739  14.288
  278TMC3    O1 4244   1.174   4.185  14.039
  278TMC3    O2 4245   1.420   3.668  14.348
  279MPD2     C 4246   0.756   3.937  18.517
  279MPD2    C1 4247   0.729   4.071  18.516
  279MPD2    C2 4248   0.756   4.141  18.401
  279MPD2    C3 4249   0.801   4.078  18.290
  279MPD2    C4 4250   0.812   3.940  18.284
  279MPD2    C5 4251   0.786   3.876  18.398
  279MPD2     H 4252   0.741   4.248  18.411
  279MPD2    H1 4253   0.842   3.882  18.197
  279MPD2    H2 4254   0.747   3.881  18.610
  279MPD2    H3 4255   0.801   3.768  18.397
  279MPD2     N 4256   0.820   4.143  18.169
  279MPD2    H5 4257   0.832   4.078  18.092
  279MPD2    N1 4258   0.684   4.134  18.636
  279MPD2    H7 4259   0.717   4.087  18.720
  280TMC3    C1 4260   0.547   4.320  18.538
  280TMC3    C2 4261   0.483   4.238  18.446
  280TMC3    C3 4262   0.436   4.287  18.329
  280TMC3    C4 4263   0.559   4.456  18.519
  280TMC3    C5 4264   0.500   4.504  18.410
  280TMC3    C6 4265   0.444   4.417  18.312
  280TMC3     C 4266   0.615   4.258  18.656
  280TMC3     O 4267   0.614   4.323  18.762
  280TMC3     H 4268   0.491   4.133  18.474
  280TMC3    H1 4269   0.593   4.517  18.602
  280TMC3    H2 4270   0.425   4.452  18.212
  280TMC3    C7 4271   0.511   4.640  18.381
  280TMC3    C8 4272   0.452   4.199  18.215
  280TMC3    O1 4273   0.602   4.710  18.425
  280TMC3    O2 4274   0.481   4.256  18.111
  281TMC3    C1 4275   4.371   4.289  13.844
  281TMC3    C2 4276   4.450   4.367  13.762
  281TMC3    C3 4277   4.483   4.325  13.638
  281TMC3    C4 4278   4.330   4.168  13.806
  281TMC3    C5 4279   4.375   4.117  13.692
  281TMC3    C6 4280   4.447   4.193  13.598
  281TMC3     C 4281   4.287   4.346  13.945
  281TMC3     O 4282   4.270   4.284  14.053
  281TMC3     H 4283   4.498   4.459  13.792
  281TMC3    H1 4284   4.264   4.125  13.880
  281TMC3    H2 4285   4.473   4.157  13.499
  281TMC3    C7 4286   4.322   3.982  13.644
  281TMC3    C8 4287   4.615   4.366  13.599
  281TMC3    O1 4288   4.399   3.915  13.579
  281TMC3    O2 4289   4.695   4.274  13.591
  282MPD2     C 4290   1.637   0.908  15.377
  282MPD2    C1 4291   1.513   0.967  15.397
  282MPD2    C2 4292   1.449   1.030  15.289
  282MPD2    C3 4293   1.503   1.025  15.162
  282MPD2    C4 4294   1.631   0.969  15.141
  282MPD2    C5 4295   1.693   0.906  15.248
  282MPD2     H 4296   1.350   1.070  15.308
  282MPD2    H1 4297   1.668   0.956  15.040
  282MPD2    H2 4298   1.687   0.870  15.466
  282MPD2    H3 4299   1.790   0.860  15.234
  282MPD2     N 4300   1.420   1.090  15.065
  282MPD2    H5 4301   1.333   1.126  15.103
  282MPD2    N1 4302   1.451   0.984  15.526
  282MPD2    H7 4303   1.365   1.038  15.531
  283TMC3    C1 4304   1.405   0.961  15.760
  283TMC3    C2 4305   1.379   1.091  15.780
  283TMC3    C3 4306   1.289   1.116  15.882
  283TMC3    C4 4307   1.360   0.856  15.834
  283TMC3    C5 4308   1.281   0.889  15.940
  283TMC3    C6 4309   1.241   1.023  15.961
  283TMC3     C 4310   1.491   0.927  15.648
  283TMC3     O 4311   1.572   0.835  15.669
  283TMC3     H 4312   1.414   1.165  15.709
  283TMC3    H1 4313   1.388   0.754  15.812
  283TMC3    H2 4314   1.166   1.058  16.031
  283TMC3    C7 4315   1.212   0.795  16.027
  283TMC3    C8 4316   1.286   1.252  15.931
  283TMC3    O1 4317   1.146   0.843  16.120
  283TMC3    O2 4318   1.277   1.257  16.051
  284MPD2     C 4319   3.820   0.555  12.431
  284MPD2    C1 4320   3.942   0.518  12.378
  284MPD2    C2 4321   4.009   0.406  12.426
  284MPD2    C3 4322   3.968   0.329  12.539
  284MPD2    C4 4323   3.845   0.364  12.580
  284MPD2    C5 4324   3.773   0.470  12.525
  284MPD2     H 4325   4.110   0.396  12.388
  284MPD2    H1 4326   3.798   0.293  12.648
  284MPD2    H2 4327   3.749   0.629  12.397
  284MPD2    H3 4328   3.671   0.487  12.557
  284MPD2     N 4329   4.043   0.226  12.592
  284MPD2    H5 4330   3.990   0.150  12.634
  284MPD2    N1 4331   4.001   0.588  12.275
  284MPD2    H7 4332   4.100   0.564  12.271
  285TMC3    C1 4333   4.059   0.734  12.117
  285TMC3    C2 4334   4.139   0.629  12.086
  285TMC3    C3 4335   4.273   0.664  12.049
  285TMC3    C4 4336   4.100   0.865  12.102
  285TMC3    C5 4337   4.226   0.903  12.071
  285TMC3    C6 4338   4.320   0.797  12.052
  285TMC3     C 4339   3.964   0.702  12.217
  285TMC3     O 4340   3.877   0.781  12.244
  285TMC3     H 4341   4.093   0.534  12.066
  285TMC3    H1 4342   4.034   0.948  12.125
  285TMC3    H2 4343   4.420   0.824  12.021
  285TMC3    C7 4344   4.270   1.028  12.122
  285TMC3    C8 4345   4.345   0.565  11.978
  285TMC3    O1 4346   4.194   1.122  12.113
  285TMC3    O2 4347   4.275   0.472  11.935
  286MPD2     C 4348   4.244   3.775  19.735
  286MPD2    C1 4349   4.267   3.781  19.599
  286MPD2    C2 4350   4.332   3.676  19.539
  286MPD2    C3 4351   4.358   3.555  19.604
  286MPD2    C4 4352   4.334   3.552  19.737
  286MPD2    C5 4353   4.280   3.662  19.801
  286MPD2     H 4354   4.341   3.679  19.431
  286MPD2    H1 4355   4.355   3.459  19.791
  286MPD2    H2 4356   4.215   3.860  19.797
  286MPD2    H3 4357   4.269   3.678  19.907
  286MPD2     N 4358   4.429   3.453  19.546
  286MPD2    H5 4359   4.474   3.389  19.611
  286MPD2    N1 4360   4.234   3.902  19.532
  286MPD2    H7 4361   4.227   3.889  19.432
  287TMC3    C1 4362   4.554   3.322  19.395
  287TMC3    C2 4363   4.553   3.269  19.272
  287TMC3    C3 4364   4.662   3.207  19.220
  287TMC3    C4 4365   4.661   3.313  19.481
  287TMC3    C5 4366   4.765   3.240  19.429
  287TMC3    C6 4367   4.768   3.184  19.303
  287TMC3     C 4368   4.463   3.430  19.419
  287TMC3     O 4369   4.463   3.514  19.328
  287TMC3     H 4370   4.477   3.302  19.202
  287TMC3    H1 4371   4.677   3.365  19.575
  287TMC3    H2 4372   0.055   3.104  19.276
  287TMC3    C7 4373   0.105   3.238  19.505
  287TMC3    C8 4374   4.646   3.130  19.103
  287TMC3    O1 4375   0.094   3.230  19.626
  287TMC3    O2 4376   4.531   3.082  19.093
  288TMC3    C1 4377   1.273   3.591  14.660
  288TMC3    C2 4378   1.163   3.560  14.738
  288TMC3    C3 4379   1.089   3.663  14.782
  288TMC3    C4 4380   1.288   3.722  14.614
  288TMC3    C5 4381   1.206   3.820  14.655
  288TMC3    C6 4382   1.111   3.796  14.748
  288TMC3     C 4383   1.394   3.514  14.686
  288TMC3     O 4384   1.383   3.433  14.778
  288TMC3     H 4385   1.155   3.458  14.773
  288TMC3    H1 4386   1.377   3.757  14.562
  288TMC3    H2 4387   1.062   3.876  14.801
  288TMC3    C7 4388   1.285   3.933  14.705
  288TMC3    C8 4389   1.046   3.666  14.929
  288TMC3    O1 4390   1.365   3.919  14.797
  288TMC3    O2 4391   1.061   3.770  14.997
  289MPD2     C 4392   1.575   2.828  14.679
  289MPD2    C1 4393   1.546   2.904  14.573
  289MPD2    C2 4394   1.416   2.907  14.525
  289MPD2    C3 4395   1.320   2.833  14.592
  289MPD2    C4 4396   1.346   2.748  14.694
  289MPD2    C5 4397   1.477   2.755  14.743
  289MPD2     H 4398   1.385   2.971  14.444
  289MPD2    H1 4399   1.279   2.686  14.752
  289MPD2    H2 4400   1.673   2.832  14.724
  289MPD2    H3 4401   1.514   2.705  14.832
  289MPD2     N 4402   1.181   2.847  14.561
  289MPD2    H5 4403   1.119   2.781  14.607
  289MPD2    N1 4404   1.653   2.992  14.522
  289MPD2    H7 4405   1.743   2.981  14.568
  290TMC3    C1 4406   0.981   2.908  14.460
  290TMC3    C2 4407   0.907   3.021  14.422
  290TMC3    C3 4408   0.775   3.004  14.414
  290TMC3    C4 4409   0.930   2.783  14.467
  290TMC3    C5 4410   0.794   2.774  14.458
  290TMC3    C6 4411   0.712   2.884  14.434
  290TMC3     C 4412   1.116   2.937  14.475
  290TMC3     O 4413   1.164   3.028  14.412
  290TMC3     H 4414   0.948   3.115  14.388
  290TMC3    H1 4415   0.988   2.694  14.486
  290TMC3    H2 4416   0.605   2.866  14.433
  290TMC3    C7 4417   0.736   2.669  14.537
  290TMC3    C8 4418   0.690   3.115  14.391
  290TMC3    O1 4419   0.635   2.705  14.599
  290TMC3    O2 4420   0.592   3.092  14.327
  291MPD2     C 4421   0.593   2.936  18.427
  291MPD2    C1 4422   0.712   2.884  18.400
  291MPD2    C2 4423   0.818   2.966  18.385
  291MPD2    C3 4424   0.809   3.104  18.393
  291MPD2    C4 4425   0.683   3.155  18.417
  291MPD2    C5 4426   0.579   3.069  18.440
  291MPD2     H 4427   0.919   2.925  18.383
  291MPD2    H1 4428   0.656   3.259  18.424
  291MPD2    H2 4429   0.507   2.874  18.449
  291MPD2    H3 4430   0.482   3.112  18.459
  291MPD2     N 4431   0.913   3.195  18.371
  291MPD2    H5 4432   0.883   3.289  18.347
  291MPD2    N1 4433   0.736   2.745  18.402
  291MPD2    H7 4434   0.833   2.721  18.384
  292TMC3    C1 4435   0.696   2.521  18.426
  292TMC3    C2 4436   0.749   2.493  18.548
  292TMC3    C3 4437   0.744   2.362  18.591
  292TMC3    C4 4438   0.642   2.422  18.350
  292TMC3    C5 4439   0.639   2.297  18.385
  292TMC3    C6 4440   0.695   2.264  18.508
  292TMC3     C 4441   0.635   2.647  18.403
  292TMC3     O 4442   0.522   2.658  18.360
  292TMC3     H 4443   0.789   2.574  18.608
  292TMC3    H1 4444   0.619   2.449  18.247
  292TMC3    H2 4445   0.698   2.160  18.539
  292TMC3    C7 4446   0.614   2.196  18.281
  292TMC3    C8 4447   0.674   2.361  18.718
  292TMC3    O1 4448   0.690   2.101  18.285
  292TMC3    O2 4449   0.713   2.438  18.799
  293MPD2     C 4450   2.514   4.096  12.887
  293MPD2    C1 4451   2.430   4.031  12.977
  293MPD2    C2 4452   2.469   4.019  13.112
  293MPD2    C3 4453   2.588   4.085  13.156
  293MPD2    C4 4454   2.675   4.139  13.057
  293MPD2    C5 4455   2.638   4.148  12.933
  293MPD2     H 4456   2.397   3.979  13.182
  293MPD2    H1 4457   2.768   4.183  13.092
  293MPD2    H2 4458   2.487   4.115  12.783
  293MPD2    H3 4459   2.711   4.194  12.868
  293MPD2     N 4460   2.622   4.091  13.293
  293MPD2    H5 4461   2.552   4.054  13.356
  293MPD2    N1 4462   2.308   3.983  12.922
  293MPD2    H7 4463   2.302   3.975  12.821
  294TMC3    C1 4464   2.092   3.901  12.904
  294TMC3    C2 4465   1.999   3.814  12.955
  294TMC3    C3 4466   1.910   3.763  12.859
  294TMC3    C4 4467   2.086   3.956  12.782
  294TMC3    C5 4468   1.980   3.927  12.700
  294TMC3    C6 4469   1.891   3.827  12.735
  294TMC3     C 4470   2.205   3.921  12.992
  294TMC3     O 4471   2.191   3.900  13.112
  294TMC3     H 4472   2.015   3.771  13.053
  294TMC3    H1 4473   2.145   4.046  12.767
  294TMC3    H2 4474   1.807   3.809  12.669
  294TMC3    C7 4475   1.978   3.976  12.565
  294TMC3    C8 4476   1.814   3.661  12.899
  294TMC3    O1 4477   1.875   3.944  12.504
  294TMC3    O2 4478   1.789   3.648  13.020
  295MPD2     C 4479   3.508   2.816  18.323
  295MPD2    C1 4480   3.449   2.938  18.354
  295MPD2    C2 4481   3.423   2.975  18.479
  295MPD2    C3 4482   3.441   2.882  18.583
  295MPD2    C4 4483   3.498   2.759  18.560
  295MPD2    C5 4484   3.534   2.733  18.429
  295MPD2     H 4485   3.367   3.066  18.496
  295MPD2    H1 4486   3.519   2.680  18.631
  295MPD2    H2 4487   3.535   2.783  18.223
  295MPD2    H3 4488   3.585   2.640  18.405
  295MPD2     N 4489   3.401   2.904  18.713
  295MPD2    H5 4490   3.402   2.832  18.785
  295MPD2    N1 4491   3.397   3.018  18.253
  295MPD2    H7 4492   3.343   3.099  18.279
  296TMC3    C1 4493   3.301   3.012  18.889
  296TMC3    C2 4494   3.319   3.121  18.974
  296TMC3    C3 4495   3.228   3.134  19.079
  296TMC3    C4 4496   3.212   2.915  18.921
  296TMC3    C5 4497   3.136   2.933  19.036
  296TMC3    C6 4498   3.130   3.041  19.113
  296TMC3     C 4499   3.364   3.022  18.758
  296TMC3     O 4500   3.398   3.133  18.716
  296TMC3     H 4501   3.369   3.213  18.944
  296TMC3    H1 4502   3.192   2.828  18.859
  296TMC3    H2 4503   3.076   3.041  19.207
  296TMC3    C7 4504   3.010   2.849  19.032
  296TMC3    C8 4505   3.234   3.262  19.138
  296TMC3    O1 4506   2.992   2.784  18.929
  296TMC3    O2 4507   3.340   3.277  19.196
  297MPD2     C 4508   0.248   4.628  16.650
  297MPD2    C1 4509   0.216   4.724  16.553
  297MPD2    C2 4510   0.313   0.028  16.506
  297MPD2    C3 4511   0.440   0.024  16.558
  297MPD2    C4 4512   0.472   4.710  16.651
  297MPD2    C5 4513   0.375   4.629  16.702
  297MPD2     H 4514   0.292   0.109  16.437
  297MPD2    H1 4515   0.573   4.696  16.688
  297MPD2    H2 4516   0.174   4.563  16.698
  297MPD2    H3 4517   0.406   4.553  16.773
  297MPD2     N 4518   0.534   0.124  16.520
  297MPD2    H5 4519   0.493   0.213  16.493
  297MPD2    N1 4520   0.094   4.731  16.496
  297MPD2    H7 4521   0.079   0.011  16.418
  298TMC3    C1 4522   4.663   4.670  16.451
  298TMC3    C2 4523   4.688   4.664  16.315
  298TMC3    C3 4524   4.589   4.722  16.242
  298TMC3    C4 4525   4.551   4.744  16.504
  298TMC3    C5 4526   4.459   0.006  16.417
  298TMC3    C6 4527   4.465   4.761  16.283
  298TMC3     C 4528   4.774   4.663  16.546
  298TMC3     O 4529   4.742   4.633  16.661
  298TMC3     H 4530   4.781   4.622  16.278
  298TMC3    H1 4531   4.562   4.774  16.608
  298TMC3    H2 4532   4.387   0.019  16.219
  298TMC3    C7 4533   4.362   0.094  16.477
  298TMC3    C8 4534   4.608   4.731  16.099
  298TMC3    O1 4535   4.371   0.118  16.598
  298TMC3    O2 4536   4.521   4.722  16.018
  299MPD2     C 4537   0.807   4.641  11.433
  299MPD2    C1 4538   0.873   4.696  11.319
  299MPD2    C2 4539   0.810   4.708  11.195
  299MPD2    C3 4540   0.678   4.663  11.183
  299MPD2    C4 4541   0.614   4.618  11.296
  299MPD2    C5 4542   0.673   4.607  11.423
  299MPD2     H 4543   0.851   4.768  11.115
  299MPD2    H1 4544   0.513   4.578  11.299
  299MPD2    H2 4545   0.846   4.637  11.534
  299MPD2    H3 4546   0.617   4.563  11.504
  299MPD2     N 4547   0.598   4.665  11.059
  299MPD2    H5 4548   0.499   4.646  11.060
  299MPD2    N1 4549   1.005   4.745  11.343
  299MPD2    H7 4550   1.050   4.729  11.432
  300TMC3    C1 4551   0.541   4.666  10.836
  300TMC3    C2 4552   0.572   4.713  10.708
  300TMC3    C3 4553   0.469   4.748  10.630
  300TMC3    C4 4554   0.418   4.607  10.867
  300TMC3    C5 4555   0.326   4.626  10.768
  300TMC3    C6 4556   0.348   4.691  10.653
  300TMC3     C 4557   0.640   4.700  10.936
  300TMC3     O 4558   0.755   4.721  10.899
  300TMC3     H 4559   0.666   4.765  10.697
  300TMC3    H1 4560   0.387   4.542  10.948
  300TMC3    H2 4561   0.262   4.716  10.592
  300TMC3    C7 4562   0.195   4.572  10.788
  300TMC3    C8 4563   0.455   0.108  10.618
  300TMC3    O1 4564   0.140   4.543  10.684
  300TMC3    O2 4565   0.560   0.172  10.607
  301MPD2     C 4566   3.308   1.656  18.934
  301MPD2    C1 4567   3.259   1.586  19.042
  301MPD2    C2 4568   3.305   1.458  19.073
  301MPD2    C3 4569   3.401   1.395  18.989
  301MPD2    C4 4570   3.440   1.462  18.872
  301MPD2    C5 4571   3.400   1.585  18.849
  301MPD2     H 4572   3.261   1.417  19.163
  301MPD2    H1 4573   3.509   1.418  18.802
  301MPD2    H2 4574   3.277   1.756  18.907
  301MPD2    H3 4575   3.442   1.636  18.764
  301MPD2     N 4576   3.429   1.258  18.997
  301MPD2    H5 4577   3.479   1.218  18.918
  301MPD2    N1 4578   3.166   1.635  19.141
  301MPD2    H7 4579   3.127   1.565  19.204
  302TMC3    C1 4580   3.366   1.040  19.044
  302TMC3    C2 4581   3.376   0.931  19.131
  302TMC3    C3 4582   3.314   0.818  19.089
  302TMC3    C4 4583   3.312   1.027  18.920
  302TMC3    C5 4584   3.273   0.906  18.878
  302TMC3    C6 4585   3.255   0.805  18.969
  302TMC3     C 4586   3.386   1.177  19.097
  302TMC3     O 4587   3.368   1.210  19.213
  302TMC3     H 4588   3.408   0.953  19.233
  302TMC3    H1 4589   3.297   1.112  18.854
  302TMC3    H2 4590   3.215   0.711  18.934
  302TMC3    C7 4591   3.172   0.917  18.782
  302TMC3    C8 4592   3.338   0.702  19.177
  302TMC3    O1 4593   3.201   0.982  18.680
  302TMC3    O2 4594   3.432   0.721  19.254
  303MPD2     C 4595   3.218   4.091  10.864
  303MPD2    C1 4596   3.087   4.063  10.905
  303MPD2    C2 4597   2.985   4.096  10.818
  303MPD2    C3 4598   3.015   4.135  10.687
  303MPD2    C4 4599   3.144   4.161  10.654
  303MPD2    C5 4600   3.243   4.144  10.743
  303MPD2     H 4601   2.884   4.063  10.839
  303MPD2    H1 4602   3.179   4.195  10.557
  303MPD2    H2 4603   3.304   4.076  10.929
  303MPD2    H3 4604   3.344   4.182  10.734
  303MPD2     N 4605   2.914   4.145  10.588
  303MPD2    H5 4606   2.942   4.162  10.492
  303MPD2    N1 4607   3.059   4.022  11.035
  303MPD2    H7 4608   3.138   3.985  11.087
  304TMC3    C1 4609   2.936   3.970  11.240
  304TMC3    C2 4610   2.831   4.001  11.323
  304TMC3    C3 4611   2.795   3.918  11.427
  304TMC3    C4 4612   2.990   3.847  11.249
  304TMC3    C5 4613   2.967   3.769  11.359
  304TMC3    C6 4614   2.881   3.817  11.462
  304TMC3     C 4615   2.935   4.034  11.107
  304TMC3     O 4616   2.831   4.085  11.067
  304TMC3     H 4617   2.767   4.087  11.308
  304TMC3    H1 4618   3.070   3.815  11.183
  304TMC3    H2 4619   2.852   3.755  11.546
  304TMC3    C7 4620   2.949   3.629  11.335
  304TMC3    C8 4621   2.659   3.883  11.415
  304TMC3    O1 4622   2.932   3.590  11.219
  304TMC3    O2 4623   2.605   3.894  11.307
  305MPD2     C 4624   1.356   1.510  14.179
  305MPD2    C1 4625   1.390   1.386  14.234
  305MPD2    C2 4626   1.359   1.273  14.159
  305MPD2    C3 4627   1.291   1.284  14.036
  305MPD2    C4 4628   1.251   1.408  13.994
  305MPD2    C5 4629   1.292   1.521  14.062
  305MPD2     H 4630   1.372   1.179  14.211
  305MPD2    H1 4631   1.204   1.423  13.897
  305MPD2    H2 4632   1.380   1.603  14.229
  305MPD2    H3 4633   1.254   1.614  14.020
  305MPD2     N 4634   1.265   1.181  13.944
  305MPD2    H5 4635   1.222   1.213  13.858
  305MPD2    N1 4636   1.470   1.374  14.349
  305MPD2    H7 4637   1.527   1.455  14.372
  306TMC3    C1 4638   1.616   1.295  14.515
  306TMC3    C2 4639   1.698   1.188  14.546
  306TMC3    C3 4640   1.751   1.183  14.667
  306TMC3    C4 4641   1.588   1.390  14.613
  306TMC3    C5 4642   1.653   1.384  14.727
  306TMC3    C6 4643   1.742   1.280  14.760
  306TMC3     C 4644   1.517   1.264  14.417
  306TMC3     O 4645   1.485   1.148  14.401
  306TMC3     H 4646   1.704   1.110  14.471
  306TMC3    H1 4647   1.521   1.469  14.582
  306TMC3    H2 4648   1.787   1.271  14.858
  306TMC3    C7 4649   1.575   1.437  14.840
  306TMC3    C8 4650   1.838   1.066  14.692
  306TMC3    O1 4651   1.453   1.441  14.844
  306TMC3    O2 4652   1.851   0.984  14.602
  307MPD2     C 4653   3.859   4.008  18.221
  307MPD2    C1 4654   3.979   4.042  18.275
  307MPD2    C2 4655   3.987   4.090  18.401
  307MPD2    C3 4656   3.873   4.094  18.477
  307MPD2    C4 4657   3.749   4.049  18.425
  307MPD2    C5 4658   3.741   4.004  18.298
  307MPD2     H 4659   4.078   4.124  18.448
  307MPD2    H1 4660   3.667   4.060  18.496
  307MPD2    H2 4661   3.847   3.984  18.116
  307MPD2    H3 4662   3.651   3.970  18.247
  307MPD2     N 4663   3.883   4.154  18.606
  307MPD2    H5 4664   3.978   4.160  18.642
  307MPD2    N1 4665   4.095   4.074  18.192
  307MPD2    H7 4666   4.178   4.116  18.233
  308TMC3    C1 4667   3.702   4.101  18.999
  308TMC3    C2 4668   3.692   4.223  19.060
  308TMC3    C3 4669   3.739   4.331  18.997
  308TMC3    C4 4670   3.779   4.078  18.891
  308TMC3    C5 4671   3.821   4.187  18.829
  308TMC3    C6 4672   3.799   4.310  18.881
  308TMC3     C 4673   3.575   4.040  18.978
  308TMC3     O 4674   3.565   3.928  18.926
  308TMC3     H 4675   3.632   4.236  19.149
  308TMC3    H1 4676   3.781   3.977  18.850
  308TMC3    H2 4677   3.820   4.396  18.818
  308TMC3    C7 4678   3.780   4.184  18.689
  308TMC3    C8 4679   3.647   4.449  19.020
  308TMC3    O1 4680   3.659   4.198  18.664
  308TMC3    O2 4681   3.539   4.423  19.071
  309MPD2     C 4682   3.041   4.270  17.586
  309MPD2    C1 4683   3.028   4.372  17.492
  309MPD2    C2 4684   2.944   4.477  17.523
  309MPD2    C3 4685   2.872   4.481  17.645
  309MPD2    C4 4686   2.899   4.378  17.740
  309MPD2    C5 4687   2.987   4.279  17.706
  309MPD2     H 4688   2.949   4.560  17.454
  309MPD2    H1 4689   2.850   4.356  17.834
  309MPD2    H2 4690   3.101   4.183  17.562
  309MPD2    H3 4691   2.996   4.199  17.778
  309MPD2     N 4692   2.772   4.576  17.686
  309MPD2    H5 4693   2.755   4.580  17.786
  309MPD2    N1 4694   3.086   4.371  17.367
  309MPD2    H7 4695   3.058   4.447  17.305
  310TMC3    C1 4696   3.212   4.321  17.188
  310TMC3    C2 4697   3.143   4.414  17.120
  310TMC3    C3 4698   3.210   4.475  17.016
  310TMC3    C4 4699   3.336   4.273  17.155
  310TMC3    C5 4700   3.392   4.332  17.042
  310TMC3    C6 4701   3.335   4.438  16.975
  310TMC3     C 4702   3.165   4.279  17.316
  310TMC3     O 4703   3.228   4.193  17.381
  310TMC3     H 4704   3.036   4.430  17.124
  310TMC3    H1 4705   3.394   4.196  17.204
  310TMC3    H2 4706   3.362   4.458  16.872
  310TMC3    C7 4707   3.509   4.265  16.975
  310TMC3    C8 4708   3.137   4.563  16.927
  310TMC3    O1 4709   3.542   4.148  16.997
  310TMC3    O2 4710   3.016   4.540  16.915
  311MPD2     C 4711   0.179   1.100  13.004
  311MPD2    C1 4712   0.200   1.154  13.130
  311MPD2    C2 4713   0.118   1.104  13.234
  311MPD2    C3 4714   0.028   1.000  13.214
  311MPD2    C4 4715   0.023   0.950  13.088
  311MPD2    C5 4716   0.087   1.003  12.983
  311MPD2     H 4717   0.128   1.158  13.328
  311MPD2    H1 4718   4.741   0.866  13.065
  311MPD2    H2 4719   0.232   1.141  12.918
  311MPD2    H3 4720   0.070   0.963  12.884
  311MPD2     N 4721   4.743   0.967  13.328
  311MPD2    H5 4722   4.749   1.024  13.411
  311MPD2    N1 4723   0.301   1.251  13.148
  311MPD2    H7 4724   0.308   1.275  13.246
  312TMC3    C1 4725   4.570   0.870  13.452
  312TMC3    C2 4726   4.442   0.835  13.429
  312TMC3    C3 4727   4.341   0.903  13.478
  312TMC3    C4 4728   4.592   0.966  13.542
  312TMC3    C5 4729   4.490   1.024  13.606
  312TMC3    C6 4730   4.359   1.004  13.567
  312TMC3     C 4731   4.665   0.863  13.338
  312TMC3     O 4732   4.637   0.781  13.246
  312TMC3     H 4733   4.413   0.781  13.339
  312TMC3    H1 4734   4.695   0.987  13.568
  312TMC3    H2 4735   4.280   1.058  13.619
  312TMC3    C7 4736   4.511   1.127  13.703
  312TMC3    C8 4737   4.214   0.881  13.410
  312TMC3    O1 4738   4.424   1.217  13.709
  312TMC3    O2 4739   4.193   0.769  13.366
  313MPD2     C 4740   3.976   0.171  11.538
  313MPD2    C1 4741   4.029   0.283  11.470
  313MPD2    C2 4742   4.128   0.259  11.376
  313MPD2    C3 4743   4.173   0.131  11.345
  313MPD2    C4 4744   4.116   0.022  11.414
  313MPD2    C5 4745   4.029   0.043  11.512
  313MPD2     H 4746   4.181   0.346  11.339
  313MPD2    H1 4747   4.139   4.702  11.386
  313MPD2    H2 4748   3.898   0.198  11.608
  313MPD2    H3 4749   3.983   4.740  11.561
  313MPD2     N 4750   4.247   0.117  11.227
  313MPD2    H5 4751   4.280   0.203  11.184
  313MPD2    N1 4752   3.989   0.414  11.495
  313MPD2    H7 4753   4.037   0.487  11.444
  314TMC3    C1 4754   3.878   0.589  11.585
  314TMC3    C2 4755   3.994   0.658  11.595
  314TMC3    C3 4756   3.997   0.785  11.540
  314TMC3    C4 4757   3.767   0.641  11.521
  314TMC3    C5 4758   3.781   0.760  11.455
  314TMC3    C6 4759   3.888   0.841  11.471
  314TMC3     C 4760   3.889   0.452  11.582
  314TMC3     O 4761   3.792   0.390  11.625
  314TMC3     H 4762   4.065   0.620  11.668
  314TMC3    H1 4763   3.673   0.588  11.522
  314TMC3    H2 4764   3.886   0.942  11.431
  314TMC3    C7 4765   3.712   0.768  11.331
  314TMC3    C8 4766   4.079   0.888  11.599
  314TMC3    O1 4767   3.599   0.719  11.336
  314TMC3    O2 4768   4.044   1.002  11.599
  315MPD2     C 4769   4.505   4.204  17.788
  315MPD2    C1 4770   4.583   4.274  17.876
  315MPD2    C2 4771   4.628   4.403  17.845
  315MPD2    C3 4772   4.596   4.460  17.724
  315MPD2    C4 4773   4.518   4.394  17.637
  315MPD2    C5 4774   4.477   4.261  17.670
  315MPD2     H 4775   4.694   4.455  17.913
  315MPD2    H1 4776   4.489   4.436  17.541
  315MPD2    H2 4777   4.467   4.105  17.809
  315MPD2    H3 4778   4.435   4.203  17.589
  315MPD2     N 4779   4.652   4.588  17.701
  315MPD2    H5 4780   4.712   4.617  17.778
  315MPD2    N1 4781   4.621   4.224  18.005
  315MPD2    H7 4782   4.680   4.279  18.067
  316TMC3    C1 4783   4.709   0.010  17.600
  316TMC3    C2 4784   0.040   0.008  17.675
  316TMC3    C3 4785   0.095   0.130  17.695
  316TMC3    C4 4786   4.650   0.121  17.539
  316TMC3    C5 4787   4.721   0.232  17.552
  316TMC3    C6 4788   0.058   0.236  17.625
  316TMC3     C 4789   4.630   4.667  17.592
  316TMC3     O 4790   4.530   4.668  17.525
  316TMC3     H 4791   0.100   4.701  17.691
  316TMC3    H1 4792   4.558   0.121  17.482
  316TMC3    H2 4793   0.109   0.329  17.645
  316TMC3    C7 4794   4.640   0.356  17.564
  316TMC3    C8 4795   0.213   0.157  17.778
  316TMC3    O1 4796   4.649   0.420  17.669
  316TMC3    O2 4797   0.298   0.238  17.744
  317MPD2     C 4798   1.252   2.980  12.862
  317MPD2    C1 4799   1.298   2.848  12.849
  317MPD2    C2 4800   1.387   2.794  12.942
  317MPD2    C3 4801   1.437   2.873  13.036
  317MPD2    C4 4802   1.399   3.007  13.046
  317MPD2    C5 4803   1.313   3.054  12.957
  317MPD2     H 4804   1.422   2.692  12.932
  317MPD2    H1 4805   1.435   3.079  13.119
  317MPD2    H2 4806   1.195   3.034  12.787
  317MPD2    H3 4807   1.272   3.154  12.956
  317MPD2     N 4808   1.521   2.810  13.137
  317MPD2    H5 4809   1.525   2.709  13.140
  317MPD2    N1 4810   1.262   2.782  12.729
  317MPD2    H7 4811   1.285   2.684  12.713
  318TMC3    C1 4812   1.631   2.774  13.343
  318TMC3    C2 4813   1.537   2.682  13.375
  318TMC3    C3 4814   1.565   2.584  13.467
  318TMC3    C4 4815   1.751   2.783  13.407
  318TMC3    C5 4816   1.784   2.679  13.492
  318TMC3    C6 4817   1.692   2.584  13.531
  318TMC3     C 4818   1.596   2.870  13.234
  318TMC3     O 4819   1.637   2.986  13.239
  318TMC3     H 4820   1.448   2.676  13.314
  318TMC3    H1 4821   1.819   2.866  13.392
  318TMC3    H2 4822   1.718   2.499  13.594
  318TMC3    C7 4823   1.911   2.698  13.571
  318TMC3    C8 4824   1.478   2.472  13.489
  318TMC3    O1 4825   1.948   2.811  13.595
  318TMC3    O2 4826   1.520   2.360  13.492
  319MPD2     C 4827   2.362   4.083  16.792
  319MPD2    C1 4828   2.249   4.051  16.864
  319MPD2    C2 4829   2.158   3.954  16.808
  319MPD2    C3 4830   2.191   3.895  16.688
  319MPD2    C4 4831   2.310   3.925  16.623
  319MPD2    C5 4832   2.392   4.018  16.678
  319MPD2     H 4833   2.068   3.928  16.863
  319MPD2    H1 4834   2.341   3.880  16.530
  319MPD2    H2 4835   2.420   4.169  16.824
  319MPD2    H3 4836   2.478   4.042  16.617
  319MPD2     N 4837   2.112   3.806  16.617
  319MPD2    H5 4838   2.136   3.792  16.519
  319MPD2    N1 4839   2.219   4.109  16.991
  319MPD2    H7 4840   2.129   4.092  17.034
  320TMC3    C1 4841   1.919   3.685  16.560
  320TMC3    C2 4842   1.915   3.758  16.444
  320TMC3    C3 4843   1.827   3.723  16.354
  320TMC3    C4 4844   1.841   3.582  16.588
  320TMC3    C5 4845   1.749   3.542  16.493
  320TMC3    C6 4846   1.753   3.608  16.374
  320TMC3     C 4847   2.003   3.736  16.667
  320TMC3     O 4848   1.968   3.723  16.784
  320TMC3     H 4849   1.959   3.856  16.431
  320TMC3    H1 4850   1.840   3.536  16.686
  320TMC3    H2 4851   1.668   3.593  16.309
  320TMC3    C7 4852   1.726   3.401  16.480
  320TMC3    C8 4853   1.764   3.833  16.284
  320TMC3    O1 4854   1.646   3.366  16.391
  320TMC3    O2 4855   1.772   3.939  16.344
  321TMC3    C1 4856   2.236   4.240  17.175
  321TMC3    C2 4857   2.147   4.157  17.233
  321TMC3    C3 4858   2.081   4.209  17.344
  321TMC3    C4 4859   2.274   4.361  17.221
  321TMC3    C5 4860   2.204   4.415  17.321
  321TMC3    C6 4861   2.101   4.344  17.376
  321TMC3     C 4862   2.306   4.196  17.055
  321TMC3     O 4863   2.406   4.252  17.020
  321TMC3     H 4864   2.120   4.055  17.209
  321TMC3    H1 4865   2.354   4.421  17.179
  321TMC3    H2 4866   2.051   4.377  17.466
  321TMC3    C7 4867   2.295   4.477  17.417
  321TMC3    C8 4868   2.085   4.123  17.459
  321TMC3    O1 4869   2.413   4.452  17.402
  321TMC3    O2 4870   2.058   4.171  17.571
  322MPD2     C 4871   1.160   0.538  13.824
  322MPD2    C1 4872   1.225   0.478  13.929
  322MPD2    C2 4873   1.256   0.340  13.921
  322MPD2    C3 4874   1.244   0.281  13.798
  322MPD2    C4 4875   1.186   0.341  13.691
  322MPD2    C5 4876   1.137   0.475  13.706
  322MPD2     H 4877   1.308   0.284  13.998
  322MPD2    H1 4878   1.187   0.308  13.588
  322MPD2    H2 4879   1.132   0.642  13.837
  322MPD2    H3 4880   1.088   0.521  13.621
  322MPD2     N 4881   1.287   0.144  13.792
  322MPD2    H5 4882   1.306   0.098  13.880
  322MPD2    N1 4883   1.249   0.555  14.042
  322MPD2    H7 4884   1.234   0.655  14.034
  323TMC3    C1 4885   1.350   0.594  14.251
  323TMC3    C2 4886   1.436   0.684  14.199
  323TMC3    C3 4887   1.533   0.733  14.290
  323TMC3    C4 4888   1.357   0.550  14.382
  323TMC3    C5 4889   1.455   0.602  14.467
  323TMC3    C6 4890   1.548   0.689  14.420
  323TMC3     C 4891   1.282   0.501  14.161
  323TMC3     O 4892   1.272   0.383  14.204
  323TMC3     H 4893   1.431   0.719  14.097
  323TMC3    H1 4894   1.278   0.485  14.418
  323TMC3    H2 4895   1.638   0.709  14.477
  323TMC3    C7 4896   1.500   0.513  14.573
  323TMC3    C8 4897   1.652   0.785  14.235
  323TMC3    O1 4898   1.483   0.391  14.557
  323TMC3    O2 4899   1.756   0.743  14.285
  324MPD2     C 4900   2.699   1.568  14.602
  324MPD2    C1 4901   2.739   1.669  14.513
  324MPD2    C2 4902   2.647   1.710  14.414
  324MPD2    C3 4903   2.520   1.671  14.418
  324MPD2    C4 4904   2.478   1.576  14.508
  324MPD2    C5 4905   2.572   1.525  14.603
  324MPD2     H 4906   2.680   1.790  14.349
  324MPD2    H1 4907   2.377   1.538  14.499
  324MPD2    H2 4908   2.768   1.531  14.677
  324MPD2    H3 4909   2.541   1.445  14.668
  324MPD2     N 4910   2.421   1.705  14.318
  324MPD2    H5 4911   2.325   1.675  14.329
  324MPD2    N1 4912   2.872   1.711  14.510
  324MPD2    H7 4913   2.879   1.799  14.461
  325TMC3    C1 4914   2.319   1.811  14.126
  325TMC3    C2 4915   2.207   1.736  14.141
  325TMC3    C3 4916   2.090   1.779  14.080
  325TMC3    C4 4917   2.317   1.932  14.054
  325TMC3    C5 4918   2.193   1.977  14.006
  325TMC3    C6 4919   2.085   1.899  14.005
  325TMC3     C 4920   2.439   1.780  14.198
  325TMC3     O 4921   2.538   1.841  14.163
  325TMC3     H 4922   2.204   1.645  14.200
  325TMC3    H1 4923   2.400   2.000  14.070
  325TMC3    H2 4924   1.991   1.921  13.955
  325TMC3    C7 4925   2.183   2.119  14.004
  325TMC3    C8 4926   1.991   1.677  14.066
  325TMC3    O1 4927   2.284   2.185  13.984
  325TMC3    O2 4928   2.005   1.571  14.132
  326MPD2     C 4929   4.065   3.388  11.393
  326MPD2    C1 4930   4.071   3.328  11.270
  326MPD2    C2 4931   4.193   3.292  11.219
  326MPD2    C3 4932   4.310   3.314  11.297
  326MPD2    C4 4933   4.300   3.370  11.421
  326MPD2    C5 4934   4.176   3.405  11.473
  326MPD2     H 4935   4.194   3.242  11.123
  326MPD2    H1 4936   4.383   3.397  11.485
  326MPD2    H2 4937   3.973   3.435  11.425
  326MPD2    H3 4938   4.174   3.466  11.562
  326MPD2     N 4939   4.442   3.290  11.242
  326MPD2    H5 4940   4.511   3.312  11.312
  326MPD2    N1 4941   3.955   3.309  11.189
  326MPD2    H7 4942   3.982   3.273  11.098
  327TMC3    C1 4943   3.732   3.281  11.118
  327TMC3    C2 4944   3.658   3.383  11.060
  327TMC3    C3 4945   3.640   3.372  10.925
  327TMC3    C4 4946   3.788   3.176  11.043
  327TMC3    C5 4947   3.767   3.171  10.908
  327TMC3    C6 4948   3.692   3.273  10.852
  327TMC3     C 4949   3.826   3.332  11.218
  327TMC3     O 4950   3.777   3.396  11.306
  327TMC3     H 4951   3.626   3.468  11.119
  327TMC3    H1 4952   3.850   3.105  11.097
  327TMC3    H2 4953   3.676   3.267  10.745
  327TMC3    C7 4954   3.870   3.109  10.827
  327TMC3    C8 4955   3.555   3.468  10.856
  327TMC3    O1 4956   3.885   3.158  10.713
  327TMC3    O2 4957   3.580   3.503  10.740
  328MPD2     C 4958   1.970   2.892  17.568
  328MPD2    C1 4959   1.910   2.798  17.500
  328MPD2    C2 4960   1.855   2.820  17.368
  328MPD2    C3 4961   1.893   2.939  17.302
  328MPD2    C4 4962   1.953   3.037  17.374
  328MPD2    C5 4963   1.990   3.012  17.505
  328MPD2     H 4964   1.786   2.748  17.325
  328MPD2    H1 4965   1.990   3.123  17.319
  328MPD2    H2 4966   2.002   2.893  17.672
  328MPD2    H3 4967   2.031   3.090  17.568
  328MPD2     N 4968   1.822   2.985  17.188
  328MPD2    H5 4969   1.805   3.085  17.186
  328MPD2    N1 4970   1.855   2.687  17.579
  328MPD2    H7 4971   1.868   2.681  17.680
  329TMC3    C1 4972   1.683   2.533  17.619
  329TMC3    C2 4973   1.604   2.617  17.693
  329TMC3    C3 4974   1.477   2.585  17.710
  329TMC3    C4 4975   1.627   2.420  17.569
  329TMC3    C5 4976   1.494   2.391  17.601
  329TMC3    C6 4977   1.416   2.470  17.677
  329TMC3     C 4978   1.781   2.589  17.525
  329TMC3     O 4979   1.782   2.541  17.416
  329TMC3     H 4980   1.641   2.715  17.720
  329TMC3    H1 4981   1.677   2.351  17.502
  329TMC3    H2 4982   1.309   2.453  17.686
  329TMC3    C7 4983   1.440   2.257  17.572
  329TMC3    C8 4984   1.384   2.694  17.692
  329TMC3    O1 4985   1.339   2.222  17.631
  329TMC3    O2 4986   1.298   2.688  17.606
  330TMC3    C1 4987   4.363   2.604   9.785
  330TMC3    C2 4988   4.310   2.499   9.717
  330TMC3    C3 4989   4.328   2.373   9.758
  330TMC3    C4 4990   4.449   2.583   9.892
  330TMC3    C5 4991   4.476   2.455   9.927
  330TMC3    C6 4992   4.418   2.349   9.861
  330TMC3     C 4993   4.330   2.745   9.752
  330TMC3     O 4994   4.371   2.831   9.829
  330TMC3     H 4995   4.228   2.506   9.646
  330TMC3    H1 4996   4.491   2.670   9.941
  330TMC3    H2 4997   4.457   2.250   9.881
  330TMC3    C7 4998   4.544   2.435  10.052
  330TMC3    C8 4999   4.257   2.276   9.681
  330TMC3    O1 5000   4.607   2.534  10.087
  330TMC3    O2 5001   4.222   2.310   9.569
  331MPD2     C 5002   3.034   1.242  13.681
  331MPD2    C1 5003   3.065   1.273  13.552
  331MPD2    C2 5004   2.983   1.220  13.456
  331MPD2    C3 5005   2.864   1.153  13.484
  331MPD2    C4 5006   2.838   1.120  13.619
  331MPD2    C5 5007   2.919   1.179  13.711
  331MPD2     H 5008   3.003   1.249  13.354
  331MPD2    H1 5009   2.742   1.091  13.660
  331MPD2    H2 5010   3.079   1.298  13.763
  331MPD2    H3 5011   2.897   1.162  13.816
  331MPD2     N 5012   2.785   1.107  13.375
  331MPD2    H5 5013   2.809   1.136  13.281
  331MPD2    N1 5014   3.187   1.338  13.525
  331MPD2    H7 5015   3.229   1.397  13.596
  332TMC3    C1 5016   2.617   0.976  13.264
  332TMC3    C2 5017   2.601   1.055  13.157
  332TMC3    C3 5018   2.541   1.012  13.043
  332TMC3    C4 5019   2.582   0.843  13.254
  332TMC3    C5 5020   2.519   0.808  13.142
  332TMC3    C6 5021   2.482   0.886  13.037
  332TMC3     C 5022   2.690   1.011  13.384
  332TMC3     O 5023   2.655   0.938  13.482
  332TMC3     H 5024   2.622   1.161  13.154
  332TMC3    H1 5025   2.591   0.775  13.339
  332TMC3    H2 5026   2.442   0.854  12.942
  332TMC3    C7 5027   2.570   0.686  13.083
  332TMC3    C8 5028   2.594   1.059  12.918
  332TMC3    O1 5029   2.511   0.624  12.998
  332TMC3    O2 5030   2.697   1.125  12.924
  333MPD2     C 5031   2.507   1.639  11.425
  333MPD2    C1 5032   2.482   1.576  11.309
  333MPD2    C2 5033   2.462   1.436  11.309
  333MPD2    C3 5034   2.457   1.367  11.429
  333MPD2    C4 5035   2.479   1.435  11.547
  333MPD2    C5 5036   2.499   1.573  11.546
  333MPD2     H 5037   2.444   1.381  11.217
  333MPD2    H1 5038   2.482   1.383  11.642
  333MPD2    H2 5039   2.515   1.747  11.416
  333MPD2    H3 5040   2.515   1.626  11.638
  333MPD2     N 5041   2.413   1.230  11.419
  333MPD2    H5 5042   2.370   1.200  11.332
  333MPD2    N1 5043   2.490   1.650  11.185
  333MPD2    H7 5044   2.507   1.749  11.201
  334TMC3    C1 5045   2.498   1.702  10.962
  334TMC3    C2 5046   2.578   1.631  10.867
  334TMC3    C3 5047   2.692   1.689  10.831
  334TMC3    C4 5048   2.527   1.830  11.001
  334TMC3    C5 5049   2.639   1.890  10.943
  334TMC3    C6 5050   2.721   1.820  10.865
  334TMC3     C 5051   2.450   1.609  11.060
  334TMC3     O 5052   2.420   1.495  11.029
  334TMC3     H 5053   2.560   1.527  10.843
  334TMC3    H1 5054   2.466   1.874  11.078
  334TMC3    H2 5055   2.806   1.875  10.826
  334TMC3    C7 5056   2.674   2.029  10.966
  334TMC3    C8 5057   2.804   1.611  10.806
  334TMC3    O1 5058   2.793   2.070  10.956
  334TMC3    O2 5059   2.788   1.515  10.728
  335TMC3    C1 5060   2.471   2.657  17.518
  335TMC3    C2 5061   2.403   2.585  17.421
  335TMC3    C3 5062   2.454   2.581  17.295
  335TMC3    C4 5063   2.590   2.721  17.493
  335TMC3    C5 5064   2.639   2.698  17.366
  335TMC3    C6 5065   2.584   2.626  17.272
  335TMC3     C 5066   2.396   2.670  17.638
  335TMC3     O 5067   2.285   2.615  17.649
  335TMC3     H 5068   2.313   2.530  17.443
  335TMC3    H1 5069   2.656   2.759  17.571
  335TMC3    H2 5070   2.627   2.625  17.172
  335TMC3    C7 5071   2.764   2.767  17.326
  335TMC3    C8 5072   2.406   2.490  17.193
  335TMC3    O1 5073   2.807   2.733  17.216
  335TMC3    O2 5074   2.474   2.484  17.090
  336MPD2     C 5075   2.347   0.211  16.508
  336MPD2    C1 5076   2.299   0.173  16.379
  336MPD2    C2 5077   2.314   0.038  16.345
  336MPD2    C3 5078   2.383   4.733  16.425
  336MPD2    C4 5079   2.429   4.776  16.546
  336MPD2    C5 5080   2.424   0.123  16.584
  336MPD2     H 5081   2.260   4.777  16.262
  336MPD2    H1 5082   2.490   4.706  16.601
  336MPD2    H2 5083   2.342   0.317  16.531
  336MPD2    H3 5084   2.452   0.156  16.684
  336MPD2     N 5085   2.380   4.597  16.392
  336MPD2    H5 5086   2.413   4.525  16.455
  336MPD2    N1 5087   2.222   0.250  16.291
  336MPD2    H7 5088   2.207   0.206  16.201
  337TMC3    C1 5089   2.113   0.436  16.214
  337TMC3    C2 5090   2.028   0.360  16.133
  337TMC3    C3 5091   1.986   0.413  16.019
  337TMC3    C4 5092   2.134   0.566  16.181
  337TMC3    C5 5093   2.092   0.620  16.062
  337TMC3    C6 5094   2.010   0.539  15.980
  337TMC3     C 5095   2.205   0.384  16.304
  337TMC3     O 5096   2.257   0.461  16.382
  337TMC3     H 5097   2.009   0.259  16.167
  337TMC3    H1 5098   2.201   0.623  16.245
  337TMC3    H2 5099   1.983   0.580  15.884
  337TMC3    C7 5100   2.149   0.745  16.008
  337TMC3    C8 5101   1.864   0.355  15.971
  337TMC3    O1 5102   2.143   0.762  15.886
  337TMC3    O2 5103   1.833   0.242  16.012
  338MPD2     C 5104   2.803   0.236  19.136
  338MPD2    C1 5105   2.768   0.112  19.082
  338MPD2    C2 5106   2.645   0.054  19.121
  338MPD2    C3 5107   2.560   0.123  19.204
  338MPD2    C4 5108   2.595   0.247  19.260
  338MPD2    C5 5109   2.719   0.293  19.228
  338MPD2     H 5110   2.623   4.738  19.080
  338MPD2    H1 5111   2.530   0.303  19.326
  338MPD2    H2 5112   2.896   0.285  19.113
  338MPD2    H3 5113   2.761   0.389  19.256
  338MPD2     N 5114   2.430   0.063  19.221
  338MPD2    H5 5115   2.415   4.761  19.167
  338MPD2    N1 5116   2.837   0.050  18.976
  338MPD2    H7 5117   2.804   4.739  18.952
  339TMC3    C1 5118   2.197   0.042  19.256
  339TMC3    C2 5119   2.205   4.686  19.259
  339TMC3    C3 5120   2.083   4.618  19.282
  339TMC3    C4 5121   2.083   0.117  19.268
  339TMC3    C5 5122   1.970   0.040  19.272
  339TMC3    C6 5123   1.963   4.684  19.281
  339TMC3     C 5124   2.319   0.118  19.277
  339TMC3     O 5125   2.316   0.231  19.326
  339TMC3     H 5126   2.300   4.635  19.244
  339TMC3    H1 5127   2.082   0.225  19.279
  339TMC3    H2 5128   1.870   4.642  19.316
  339TMC3    C7 5129   1.863   0.120  19.308
  339TMC3    C8 5130   2.095   4.482  19.346
  339TMC3    O1 5131   1.886   0.190  19.403
  339TMC3    O2 5132   2.201   4.430  19.331
  340MPD2     C 5133   2.297   2.724  10.219
  340MPD2    C1 5134   2.330   2.598  10.267
  340MPD2    C2 5135   2.380   2.582  10.397
  340MPD2    C3 5136   2.412   2.690  10.479
  340MPD2    C4 5137   2.371   2.817  10.428
  340MPD2    C5 5138   2.317   2.832  10.304
  340MPD2     H 5139   2.428   2.488  10.425
  340MPD2    H1 5140   2.380   2.909  10.486
  340MPD2    H2 5141   2.253   2.741  10.122
  340MPD2    H3 5142   2.288   2.930  10.267
  340MPD2     N 5143   2.474   2.684  10.599
  340MPD2    H5 5144   2.494   2.773  10.644
  340MPD2    N1 5145   2.310   2.488  10.170
  340MPD2    H7 5146   2.294   2.512  10.073
  341TMC3    C1 5147   2.332   2.275  10.081
  341TMC3    C2 5148   2.286   2.144  10.093
  341TMC3    C3 5149   2.320   2.063   9.988
  341TMC3    C4 5150   2.413   2.317   9.977
  341TMC3    C5 5151   2.441   2.231   9.872
  341TMC3    C6 5152   2.395   2.098   9.880
  341TMC3     C 5153   2.315   2.350  10.198
  341TMC3     O 5154   2.327   2.298  10.309
  341TMC3     H 5155   2.234   2.111  10.182
  341TMC3    H1 5156   2.468   2.409   9.993
  341TMC3    H2 5157   2.401   2.033   9.794
  341TMC3    C7 5158   2.541   2.268   9.778
  341TMC3    C8 5159   2.268   1.933  10.001
  341TMC3    O1 5160   2.609   2.180   9.730
  341TMC3    O2 5161   2.258   1.892  10.115
  342MPD2     C 5162   0.421   0.830  17.697
  342MPD2    C1 5163   0.555   0.861  17.707
  342MPD2    C2 5164   0.596   0.993  17.701
  342MPD2    C3 5165   0.505   1.098  17.707
  342MPD2    C4 5166   0.371   1.065  17.700
  342MPD2    C5 5167   0.334   0.935  17.695
  342MPD2     H 5168   0.704   1.004  17.703
  342MPD2    H1 5169   0.293   1.141  17.699
  342MPD2    H2 5170   0.384   0.729  17.688
  342MPD2    H3 5171   0.229   0.909  17.703
  342MPD2     N 5172   0.540   1.237  17.719
  342MPD2    H5 5173   0.475   1.309  17.749
  342MPD2    N1 5174   0.653   0.760  17.710
  342MPD2    H7 5175   0.740   0.788  17.665
  343TMC3    C1 5176   0.730   0.530  17.686
  343TMC3    C2 5177   0.823   0.560  17.588
  343TMC3    C3 5178   0.892   0.457  17.525
  343TMC3    C4 5179   0.720   0.408  17.736
  343TMC3    C5 5180   0.781   0.309  17.671
  343TMC3    C6 5181   0.864   0.328  17.567
  343TMC3     C 5182   0.622   0.626  17.727
  343TMC3     O 5183   0.526   0.570  17.779
  343TMC3     H 5184   0.853   0.661  17.561
  343TMC3    H1 5185   0.649   0.379  17.813
  343TMC3    H2 5186   0.909   0.237  17.528
  343TMC3    C7 5187   0.756   0.172  17.713
  343TMC3    C8 5188   1.023   0.478  17.484
  343TMC3    O1 5189   0.709   0.099  17.625
  343TMC3    O2 5190   1.072   0.578  17.538
  344MPD2     C 5191   1.377   0.712  11.474
  344MPD2    C1 5192   1.387   0.644  11.359
  344MPD2    C2 5193   1.459   0.702  11.256
  344MPD2    C3 5194   1.519   0.829  11.277
  344MPD2    C4 5195   1.518   0.885  11.396
  344MPD2    C5 5196   1.450   0.824  11.497
  344MPD2     H 5197   1.459   0.649  11.161
  344MPD2    H1 5198   1.572   0.974  11.427
  344MPD2    H2 5199   1.329   0.657  11.554
  344MPD2    H3 5200   1.452   0.875  11.592
  344MPD2     N 5201   1.580   0.901  11.172
  344MPD2    H5 5202   1.652   0.964  11.205
  344MPD2    N1 5203   1.334   0.509  11.344
  344MPD2    H7 5204   1.384   0.463  11.268
  345TMC3    C1 5205   1.666   0.956  10.961
  345TMC3    C2 5206   1.756   1.046  11.015
  345TMC3    C3 5207   1.815   1.143  10.939
  345TMC3    C4 5208   1.620   0.981  10.839
  345TMC3    C5 5209   1.676   1.085  10.759
  345TMC3    C6 5210   1.773   1.164  10.815
  345TMC3     C 5211   1.591   0.862  11.039
  345TMC3     O 5212   1.518   0.780  10.981
  345TMC3     H 5213   1.799   1.024  11.113
  345TMC3    H1 5214   1.545   0.913  10.799
  345TMC3    H2 5215   1.814   1.246  10.757
  345TMC3    C7 5216   1.581   1.159  10.675
  345TMC3    C8 5217   1.863   1.257  11.002
  345TMC3    O1 5218   1.581   1.278  10.681
  345TMC3    O2 5219   1.841   1.273  11.120
  346MPD2     C 5220   1.057   1.826  14.060
  346MPD2    C1 5221   1.174   1.882  14.011
  346MPD2    C2 5222   1.245   1.973  14.092
  346MPD2    C3 5223   1.185   2.027  14.202
  346MPD2    C4 5224   1.062   1.981  14.242
  346MPD2    C5 5225   1.001   1.877  14.172
  346MPD2     H 5226   1.330   2.027  14.052
  346MPD2    H1 5227   0.995   2.023  14.315
  346MPD2    H2 5228   0.997   1.747  14.018
  346MPD2    H3 5229   0.909   1.838  14.214
  346MPD2     N 5230   1.248   2.138  14.262
  346MPD2    H5 5231   1.340   2.157  14.225
  346MPD2    N1 5232   1.230   1.863  13.879
  346MPD2    H7 5233   1.314   1.913  13.851
  347TMC3    C1 5234   1.298   2.326  14.391
  347TMC3    C2 5235   1.393   2.354  14.294
  347TMC3    C3 5236   1.513   2.402  14.330
  347TMC3    C4 5237   1.330   2.343  14.522
  347TMC3    C5 5238   1.450   2.396  14.551
  347TMC3    C6 5239   1.545   2.424  14.455
  347TMC3     C 5240   1.211   2.208  14.376
  347TMC3     O 5241   1.127   2.196  14.461
  347TMC3     H 5242   1.375   2.344  14.188
  347TMC3    H1 5243   1.255   2.320  14.597
  347TMC3    H2 5244   1.652   2.432  14.474
  347TMC3    C7 5245   1.491   2.400  14.692
  347TMC3    C8 5246   1.624   2.364  14.244
  347TMC3    O1 5247   1.412   2.358  14.773
  347TMC3    O2 5248   1.602   2.261  14.181
  348MPD2     C 5249   4.659   2.090  12.486
  348MPD2    C1 5250   4.777   2.079  12.408
  348MPD2    C2 5251   4.780   2.141  12.284
  348MPD2    C3 5252   4.673   2.213  12.234
  348MPD2    C4 5253   4.559   2.226  12.308
  348MPD2    C5 5254   4.553   2.164  12.429
  348MPD2     H 5255   0.086   2.137  12.221
  348MPD2    H1 5256   4.468   2.274  12.273
  348MPD2    H2 5257   4.645   2.034  12.577
  348MPD2    H3 5258   4.460   2.165  12.484
  348MPD2     N 5259   4.687   2.264  12.105
  348MPD2    H5 5260   4.778   2.283  12.066
  348MPD2    N1 5261   0.100   1.998  12.448
  348MPD2    H7 5262   0.179   1.997  12.384
  349TMC3    C1 5263   0.231   1.839  12.561
  349TMC3    C2 5264   0.215   1.726  12.626
  349TMC3    C3 5265   0.262   1.619  12.561
  349TMC3    C4 5266   0.315   1.860  12.450
  349TMC3    C5 5267   0.379   1.747  12.401
  349TMC3    C6 5268   0.351   1.622  12.454
  349TMC3     C 5269   0.114   1.924  12.563
  349TMC3     O 5270   0.032   1.894  12.644
  349TMC3     H 5271   0.146   1.713  12.708
  349TMC3    H1 5272   0.349   1.955  12.411
  349TMC3    H2 5273   0.395   1.535  12.406
  349TMC3    C7 5274   0.501   1.762  12.323
  349TMC3    C8 5275   0.244   1.485  12.618
  349TMC3    O1 5276   0.593   1.682  12.343
  349TMC3    O2 5277   0.236   1.477  12.740
  350MPD2     C 5278   3.611   4.681  10.783
  350MPD2    C1 5279   3.703   4.625  10.690
  350MPD2    C2 5280   3.826   4.677  10.666
  350MPD2    C3 5281   3.869   0.005  10.744
  350MPD2    C4 5282   3.778   0.059  10.832
  350MPD2    C5 5283   3.652   0.011  10.845
  350MPD2     H 5284   3.898   4.636  10.596
  350MPD2    H1 5285   3.803   0.138  10.901
  350MPD2    H2 5286   3.519   4.629  10.808
  350MPD2    H3 5287   3.583   0.042  10.923
  350MPD2     N 5288   4.008   0.041  10.736
  350MPD2    H5 5289   4.057   0.008  10.654
  350MPD2    N1 5290   3.667   4.518  10.611
  350MPD2    H7 5291   3.738   4.471  10.556
  351TMC3    C1 5292   3.553   4.341  10.531
  351TMC3    C2 5293   3.671   4.273  10.521
  351TMC3    C3 5294   3.698   4.214  10.396
  351TMC3    C4 5295   3.464   4.340  10.431
  351TMC3    C5 5296   3.493   4.281  10.312
  351TMC3    C6 5297   3.615   4.220  10.292
  351TMC3     C 5298   3.544   4.451  10.619
  351TMC3     O 5299   3.437   4.486  10.666
  351TMC3     H 5300   3.743   4.277  10.602
  351TMC3    H1 5301   3.366   4.386  10.429
  351TMC3    H2 5302   3.650   4.189  10.194
  351TMC3    C7 5303   3.379   4.249  10.224
  351TMC3    C8 5304   3.833   4.166  10.365
  351TMC3    O1 5305   3.272   4.298  10.248
  351TMC3    O2 5306   3.861   4.114  10.261
  352MPD2     C 5307   2.544   2.374  18.876
  352MPD2    C1 5308   2.480   2.314  18.981
  352MPD2    C2 5309   2.540   2.215  19.058
  352MPD2    C3 5310   2.672   2.183  19.031
  352MPD2    C4 5311   2.722   2.236  18.915
  352MPD2    C5 5312   2.662   2.323  18.835
  352MPD2     H 5313   2.487   2.155  19.131
  352MPD2    H1 5314   2.821   2.196  18.896
  352MPD2    H2 5315   2.505   2.452  18.812
  352MPD2    H3 5316   2.719   2.368  18.754
  352MPD2     N 5317   2.737   2.073  19.092
  352MPD2    H5 5318   2.828   2.053  19.052
  352MPD2    N1 5319   2.344   2.360  19.018
  352MPD2    H7 5320   2.311   2.433  18.955
  353TMC3    C1 5321   2.794   1.905  19.258
  353TMC3    C2 5322   2.922   1.900  19.196
  353TMC3    C3 5323   2.978   1.777  19.190
  353TMC3    C4 5324   2.732   1.797  19.311
  353TMC3    C5 5325   2.801   1.673  19.309
  353TMC3    C6 5326   2.925   1.663  19.260
  353TMC3     C 5327   2.701   2.013  19.213
  353TMC3     O 5328   2.615   2.045  19.291
  353TMC3     H 5329   2.976   1.990  19.168
  353TMC3    H1 5330   2.632   1.805  19.353
  353TMC3    H2 5331   2.957   1.559  19.255
  353TMC3    C7 5332   2.720   1.555  19.316
  353TMC3    C8 5333   3.100   1.748  19.121
  353TMC3    O1 5334   2.770   1.450  19.272
  353TMC3    O2 5335   3.136   1.844  19.051
  354TMC3    C1 5336   4.169   3.028  14.005
  354TMC3    C2 5337   4.260   3.125  14.028
  354TMC3    C3 5338   4.347   3.163  13.925
  354TMC3    C4 5339   4.161   2.960  13.888
  354TMC3    C5 5340   4.256   2.993  13.790
  354TMC3    C6 5341   4.352   3.095  13.803
  354TMC3     C 5342   4.102   2.960  14.114
  354TMC3     O 5343   3.986   2.916  14.094
  354TMC3     H 5344   4.271   3.171  14.125
  354TMC3    H1 5345   4.100   2.870  13.887
  354TMC3    H2 5346   4.404   3.123  13.712
  354TMC3    C7 5347   4.238   2.953  13.653
  354TMC3    C8 5348   4.377   3.300  13.901
  354TMC3    O1 5349   4.125   2.963  13.619
  354TMC3    O2 5350   4.278   3.367  13.879
  355MPD2     C 5351   4.191   3.903  12.039
  355MPD2    C1 5352   4.314   3.875  11.984
  355MPD2    C2 5353   4.410   3.817  12.069
  355MPD2    C3 5354   4.379   3.782  12.205
  355MPD2    C4 5355   4.256   3.818  12.258
  355MPD2    C5 5356   4.160   3.874  12.173
  355MPD2     H 5357   4.511   3.802  12.035
  355MPD2    H1 5358   4.258   3.810  12.366
  355MPD2    H2 5359   4.120   3.963  11.982
  355MPD2    H3 5360   4.068   3.917  12.212
  355MPD2     N 5361   4.486   3.749  12.293
  355MPD2    H5 5362   4.456   3.749  12.390
  355MPD2    N1 5363   4.336   3.926  11.857
  355MPD2    H7 5364   4.270   3.984  11.805
  356TMC3    C1 5365   4.704   3.757  12.339
  356TMC3    C2 5366   0.025   3.798  12.266
  356TMC3    C3 5367   0.078   3.921  12.285
  356TMC3    C4 5368   4.672   3.828  12.453
  356TMC3    C5 5369   4.726   3.948  12.471
  356TMC3    C6 5370   0.044   3.991  12.389
  356TMC3     C 5371   4.605   3.702  12.255
  356TMC3     O 5372   4.634   3.642  12.150
  356TMC3     H 5373   0.064   3.743  12.181
  356TMC3    H1 5374   4.590   3.787  12.512
  356TMC3    H2 5375   0.086   4.089  12.408
  356TMC3    C7 5376   4.735   3.978  12.616
  356TMC3    C8 5377   0.122   3.996  12.165
  356TMC3    O1 5378   4.750   3.878  12.688
  356TMC3    O2 5379   0.081   3.960  12.058
  357MPD2     C 5380   4.703   3.373  18.305
  357MPD2    C1 5381   4.638   3.404  18.418
  357MPD2    C2 5382   4.566   3.523  18.414
  357MPD2    C3 5383   4.547   3.598  18.299
  357MPD2    C4 5384   4.616   3.562  18.183
  357MPD2    C5 5385   4.692   3.448  18.189
  357MPD2     H 5386   4.503   3.541  18.500
  357MPD2    H1 5387   4.609   3.610  18.087
  357MPD2    H2 5388   4.750   3.276  18.292
  357MPD2    H3 5389   4.740   3.423  18.096
  357MPD2     N 5390   4.462   3.707  18.293
  357MPD2    H5 5391   4.430   3.723  18.198
  357MPD2    N1 5392   4.630   3.312  18.526
  357MPD2    H7 5393   4.665   3.218  18.514
  358TMC3    C1 5394   4.540   3.219  18.720
  358TMC3    C2 5395   4.507   3.115  18.641
  358TMC3    C3 5396   4.398   3.040  18.666
  358TMC3    C4 5397   4.458   3.252  18.828
  358TMC3    C5 5398   4.351   3.177  18.845
  358TMC3    C6 5399   4.308   3.078  18.763
  358TMC3     C 5400   4.583   3.340  18.649
  358TMC3     O 5401   4.556   3.445  18.711
  358TMC3     H 5402   4.576   3.075  18.567
  358TMC3    H1 5403   4.485   3.317  18.910
  358TMC3    H2 5404   4.241   3.002  18.800
  358TMC3    C7 5405   4.266   3.201  18.963
  358TMC3    C8 5406   4.336   3.015  18.536
  358TMC3    O1 5407   4.207   3.103  19.006
  358TMC3    O2 5408   4.398   3.046  18.433
  359MPD2     C 5409   4.663   2.729  12.789
  359MPD2    C1 5410   4.604   2.675  12.669
  359MPD2    C2 5411   4.493   2.595  12.667
  359MPD2    C3 5412   4.434   2.565  12.787
  359MPD2    C4 5413   4.486   2.616  12.905
  359MPD2    C5 5414   4.608   2.691  12.907
  359MPD2     H 5415   4.450   2.553  12.577
  359MPD2    H1 5416   4.443   2.596  13.002
  359MPD2    H2 5417   4.759   2.779  12.796
  359MPD2    H3 5418   4.655   2.718  13.000
  359MPD2     N 5419   4.321   2.490  12.800
  359MPD2    H5 5420   4.278   2.493  12.891
  359MPD2    N1 5421   4.645   2.709  12.542
  359MPD2    H7 5422   4.606   2.684  12.451
  360TMC3    C1 5423   4.772   2.810  12.372
  360TMC3    C2 5424   0.047   2.930  12.337
  360TMC3    C3 5425   0.088   2.954  12.211
  360TMC3    C4 5426   4.723   2.720  12.272
  360TMC3    C5 5427   4.779   2.742  12.151
  360TMC3    C6 5428   0.066   2.856  12.116
  360TMC3     C 5429   4.744   2.802  12.512
  360TMC3     O 5430   0.007   2.886  12.586
  360TMC3     H 5431   0.089   2.997  12.411
  360TMC3    H1 5432   4.675   2.627  12.301
  360TMC3    H2 5433   0.083   2.868  12.010
  360TMC3    C7 5434   4.729   2.677  12.032
  360TMC3    C8 5435   0.209   3.027  12.198
  360TMC3    O1 5436   0.017   2.652  11.937
  360TMC3    O2 5437   0.205   3.147  12.217
  361MPD2     C 5438   1.440   1.048  16.947
  361MPD2    C1 5439   1.457   1.137  17.044
  361MPD2    C2 5440   1.581   1.158  17.105
  361MPD2    C3 5441   1.693   1.082  17.070
  361MPD2    C4 5442   1.675   0.973  16.980
  361MPD2    C5 5443   1.548   0.963  16.923
  361MPD2     H 5444   1.594   1.236  17.179
  361MPD2    H1 5445   1.751   0.904  16.946
  361MPD2    H2 5446   1.345   1.019  16.904
  361MPD2    H3 5447   1.519   0.884  16.855
  361MPD2     N 5448   1.810   1.076  17.143
  361MPD2    H5 5449   1.872   0.998  17.126
  361MPD2    N1 5450   1.351   1.228  17.074
  361MPD2    H7 5451   1.358   1.279  17.162
  362TMC3    C1 5452   1.159   1.356  17.041
  362TMC3    C2 5453   1.109   1.350  17.168
  362TMC3    C3 5454   1.016   1.443  17.200
  362TMC3    C4 5455   1.113   1.443  16.945
  362TMC3    C5 5456   1.021   1.534  16.989
  362TMC3    C6 5457   0.967   1.541  17.115
  362TMC3     C 5458   1.241   1.249  16.993
  362TMC3     O 5459   1.231   1.209  16.878
  362TMC3     H 5460   1.137   1.276  17.242
  362TMC3    H1 5461   1.147   1.437  16.843
  362TMC3    H2 5462   0.895   1.614  17.151
  362TMC3    C7 5463   0.955   1.606  16.882
  362TMC3    C8 5464   0.934   1.405  17.319
  362TMC3    O1 5465   0.888   1.705  16.918
  362TMC3    O2 5466   0.919   1.285  17.347
  363TMC3    C1 5467   0.102   4.128   9.733
  363TMC3    C2 5468   0.148   4.054   9.838
  363TMC3    C3 5469   0.123   4.097   9.964
  363TMC3    C4 5470   0.021   4.239   9.755
  363TMC3    C5 5471   4.769   4.264   9.885
  363TMC3    C6 5472   0.038   4.202   9.995
  363TMC3     C 5473   0.130   4.097   9.591
  363TMC3     O 5474   0.114   4.184   9.507
  363TMC3     H 5475   0.208   3.964   9.829
  363TMC3    H1 5476   4.761   4.298   9.675
  363TMC3    H2 5477   0.005   4.210  10.098
  363TMC3    C7 5478   4.646   4.348   9.896
  363TMC3    C8 5479   0.161   4.013  10.079
  363TMC3    O1 5480   4.588   4.380   9.791
  363TMC3    O2 5481   0.176   4.063  10.187
  364MPD2     C 5482   3.138   3.765  10.820
  364MPD2    C1 5483   3.247   3.747  10.733
  364MPD2    C2 5484   3.350   3.667  10.774
  364MPD2    C3 5485   3.352   3.611  10.895
  364MPD2    C4 5486   3.250   3.643  10.987
  364MPD2    C5 5487   3.147   3.724  10.946
  364MPD2     H 5488   3.421   3.646  10.695
  364MPD2    H1 5489   3.244   3.604  11.088
  364MPD2    H2 5490   3.047   3.815  10.787
  364MPD2    H3 5491   3.057   3.734  11.006
  364MPD2     N 5492   3.450   3.518  10.938
  364MPD2    H5 5493   3.438   3.471  11.027
  364MPD2    N1 5494   3.238   3.823  10.609
  364MPD2    H7 5495   3.145   3.856  10.583
  365TMC3    C1 5496   3.479   3.845  10.557
  365TMC3    C2 5497   3.563   3.815  10.456
  365TMC3    C3 5498   3.695   3.827  10.477
  365TMC3    C4 5499   3.521   3.906  10.668
  365TMC3    C5 5500   3.655   3.922  10.684
  365TMC3    C6 5501   3.746   3.876  10.592
  365TMC3     C 5502   3.337   3.853  10.518
  365TMC3     O 5503   3.326   3.896  10.399
  365TMC3     H 5504   3.519   3.771  10.367
  365TMC3    H1 5505   3.453   3.959  10.735
  365TMC3    H2 5506   3.850   3.902  10.603
  365TMC3    C7 5507   3.712   4.036  10.765
  365TMC3    C8 5508   3.782   3.746  10.398
  365TMC3    O1 5509   3.808   4.092  10.727
  365TMC3    O2 5510   3.895   3.789  10.386
  366MPD2     C 5511   1.929   4.033  15.539
  366MPD2    C1 5512   1.987   4.137  15.472
  366MPD2    C2 5513   2.082   4.113  15.380
  366MPD2    C3 5514   2.132   3.989  15.350
  366MPD2    C4 5515   2.076   3.880  15.415
  366MPD2    C5 5516   1.977   3.907  15.507
  366MPD2     H 5517   2.125   4.197  15.327
  366MPD2    H1 5518   2.107   3.778  15.394
  366MPD2    H2 5519   1.844   4.039  15.606
  366MPD2    H3 5520   1.929   3.814  15.537
  366MPD2     N 5521   2.242   3.989  15.268
  366MPD2    H5 5522   2.258   4.073  15.213
  366MPD2    N1 5523   1.964   4.272  15.506
  366MPD2    H7 5524   2.028   4.335  15.459
  367TMC3    C1 5525   1.872   4.461  15.592
  367TMC3    C2 5526   1.987   4.512  15.640
  367TMC3    C3 5527   1.977   4.637  15.689
  367TMC3    C4 5528   1.757   4.534  15.581
  367TMC3    C5 5529   1.752   4.655  15.633
  367TMC3    C6 5530   1.859   4.713  15.689
  367TMC3     C 5531   1.862   4.321  15.580
  367TMC3     O 5532   1.757   4.274  15.623
  367TMC3     H 5533   2.076   4.454  15.660
  367TMC3    H1 5534   1.668   4.495  15.534
  367TMC3    H2 5535   1.842   0.023  15.745
  367TMC3    C7 5536   1.689   4.747  15.532
  367TMC3    C8 5537   2.080   4.683  15.781
  367TMC3    O1 5538   1.767   0.052  15.491
  367TMC3    O2 5539   2.147   4.600  15.845
  368MPD2     C 5540   3.353   1.363  13.822
  368MPD2    C1 5541   3.351   1.488  13.765
  368MPD2    C2 5542   3.455   1.521  13.678
  368MPD2    C3 5543   3.541   1.421  13.632
  368MPD2    C4 5544   3.531   1.296  13.677
  368MPD2    C5 5545   3.437   1.265  13.773
  368MPD2     H 5546   3.452   1.624  13.644
  368MPD2    H1 5547   3.602   1.216  13.661
  368MPD2    H2 5548   3.285   1.334  13.902
  368MPD2    H3 5549   3.435   1.171  13.828
  368MPD2     N 5550   3.645   1.458  13.544
  368MPD2    H5 5551   3.682   1.379  13.492
  368MPD2    N1 5552   3.240   1.572  13.795
  368MPD2    H7 5553   3.175   1.547  13.869
  369TMC3    C1 5554   3.073   1.726  13.760
  369TMC3    C2 5555   3.050   1.855  13.711
  369TMC3    C3 5556   2.927   1.879  13.643
  369TMC3    C4 5557   2.983   1.623  13.723
  369TMC3    C5 5558   2.864   1.653  13.665
  369TMC3    C6 5559   2.829   1.779  13.621
  369TMC3     C 5560   3.212   1.698  13.748
  369TMC3     O 5561   3.285   1.774  13.686
  369TMC3     H 5562   3.133   1.924  13.725
  369TMC3    H1 5563   2.998   1.518  13.749
  369TMC3    H2 5564   2.736   1.799  13.569
  369TMC3    C7 5565   2.782   1.540  13.619
  369TMC3    C8 5566   2.928   1.977  13.541
  369TMC3    O1 5567   2.754   1.453  13.698
  369TMC3    O2 5568   2.823   1.992  13.480
  370TMC3    C1 5569   2.513   2.101  16.358
  370TMC3    C2 5570   2.452   2.022  16.448
  370TMC3    C3 5571   2.455   1.886  16.434
  370TMC3    C4 5572   2.566   2.046  16.245
  370TMC3    C5 5573   2.569   1.905  16.227
  370TMC3    C6 5574   2.518   1.823  16.331
  370TMC3     C 5575   2.606   2.192  16.420
  370TMC3     O 5576   2.626   2.181  16.536
  370TMC3     H 5577   2.409   2.068  16.536
  370TMC3    H1 5578   2.620   2.102  16.169
  370TMC3    H2 5579   2.524   1.715  16.322
  370TMC3    C7 5580   2.668   1.865  16.126
  370TMC3    C8 5581   2.449   1.795  16.556
  370TMC3    O1 5582   2.693   1.941  16.029
  370TMC3    O2 5583   2.484   1.683  16.534
  371TMC3    C1 5584   4.018   0.441  15.849
  371TMC3    C2 5585   3.995   0.466  15.983
  371TMC3    C3 5586   3.988   0.596  16.023
  371TMC3    C4 5587   4.052   0.548  15.765
  371TMC3    C5 5588   4.063   0.673  15.814
  371TMC3    C6 5589   4.027   0.703  15.945
  371TMC3     C 5590   4.008   0.308  15.795
  371TMC3     O 5591   4.040   0.301  15.676
  371TMC3     H 5592   3.982   0.395  16.064
  371TMC3    H1 5593   4.071   0.524  15.661
  371TMC3    H2 5594   4.030   0.805  15.982
  371TMC3    C7 5595   4.095   0.785  15.729
  371TMC3    C8 5596   3.946   0.622  16.162
  371TMC3    O1 5597   4.036   0.808  15.626
  371TMC3    O2 5598   3.952   0.526  16.237
  372MPD2     C 5599   3.391   1.747  14.043
  372MPD2    C1 5600   3.494   1.654  14.034
  372MPD2    C2 5601   3.490   1.542  14.103
  372MPD2    C3 5602   3.382   1.512  14.183
  372MPD2    C4 5603   3.274   1.594  14.186
  372MPD2    C5 5604   3.288   1.713  14.120
  372MPD2     H 5605   3.581   1.484  14.092
  372MPD2    H1 5606   3.185   1.561  14.238
  372MPD2    H2 5607   3.382   1.839  13.987
  372MPD2    H3 5608   3.199   1.774  14.115
  372MPD2     N 5609   3.393   1.394  14.255
  372MPD2    H5 5610   3.476   1.337  14.243
  372MPD2    N1 5611   3.615   1.688  13.965
  372MPD2    H7 5612   3.676   1.607  13.958
  373TMC3    C1 5613   3.337   1.213  14.380
  373TMC3    C2 5614   3.267   1.169  14.488
  373TMC3    C3 5615   3.277   1.037  14.520
  373TMC3    C4 5616   3.414   1.126  14.304
  373TMC3    C5 5617   3.409   0.995  14.329
  373TMC3    C6 5618   3.339   0.949  14.437
  373TMC3     C 5619   3.295   1.339  14.337
  373TMC3     O 5620   3.181   1.375  14.359
  373TMC3     H 5621   3.196   1.231  14.542
  373TMC3    H1 5622   3.472   1.165  14.221
  373TMC3    H2 5623   3.323   0.844  14.456
  373TMC3    C7 5624   3.520   0.914  14.281
  373TMC3    C8 5625   3.332   1.003  14.643
  373TMC3    O1 5626   3.567   0.945  14.174
  373TMC3    O2 5627   3.413   0.903  14.645
  374TMC3    C1 5628   3.769   2.000   9.922
  374TMC3    C2 5629   3.850   2.098   9.963
  374TMC3    C3 5630   3.882   2.190   9.869
  374TMC3    C4 5631   3.716   1.995   9.796
  374TMC3    C5 5632   3.754   2.089   9.705
  374TMC3    C6 5633   3.842   2.187   9.737
  374TMC3     C 5634   3.751   1.874  10.005
  374TMC3     O 5635   3.729   1.768   9.946
  374TMC3     H 5636   3.897   2.092  10.061
  374TMC3    H1 5637   3.658   1.911   9.757
  374TMC3    H2 5638   3.878   2.264   9.669
  374TMC3    C7 5639   3.722   2.064   9.557
  374TMC3    C8 5640   3.945   2.318   9.916
  374TMC3    O1 5641   3.669   1.957   9.527
  374TMC3    O2 5642   3.931   2.414   9.843
  375MPD2     C 5643   3.969   2.750  16.900
  375MPD2    C1 5644   3.860   2.720  16.820
  375MPD2    C2 5645   3.872   2.638  16.711
  375MPD2    C3 5646   3.995   2.571  16.690
  375MPD2    C4 5647   4.101   2.606  16.768
  375MPD2    C5 5648   4.087   2.692  16.877
  375MPD2     H 5649   3.786   2.619  16.647
  375MPD2    H1 5650   4.195   2.553  16.760
  375MPD2    H2 5651   3.961   2.824  16.978
  375MPD2    H3 5652   4.173   2.718  16.939
  375MPD2     N 5653   4.016   2.477  16.592
  375MPD2    H5 5654   4.111   2.440  16.586
  375MPD2    N1 5655   3.730   2.769  16.850
  375MPD2    H7 5656   3.675   2.775  16.766
  376TMC3    C1 5657   3.990   2.332  16.409
  376TMC3    C2 5658   4.073   2.240  16.468
  376TMC3    C3 5659   4.119   2.135  16.391
  376TMC3    C4 5660   3.974   2.340  16.273
  376TMC3    C5 5661   4.033   2.242  16.203
  376TMC3    C6 5662   4.108   2.142  16.258
  376TMC3     C 5663   3.924   2.434  16.492
  376TMC3     O 5664   3.823   2.492  16.460
  376TMC3     H 5665   4.077   2.236  16.576
  376TMC3    H1 5666   3.922   2.416  16.216
  376TMC3    H2 5667   4.170   2.075  16.200
  376TMC3    C7 5668   4.077   2.283  16.065
  376TMC3    C8 5669   4.252   2.102  16.432
  376TMC3    O1 5670   4.160   2.375  16.058
  376TMC3    O2 5671   4.342   2.133  16.357
  377MPD2     C 5672   2.133   2.238  12.902
  377MPD2    C1 5673   2.170   2.120  12.952
  377MPD2    C2 5674   2.077   2.037  13.015
  377MPD2    C3 5675   1.945   2.071  13.028
  377MPD2    C4 5676   1.907   2.181  12.961
  377MPD2    C5 5677   2.002   2.266  12.897
  377MPD2     H 5678   2.109   1.940  13.052
  377MPD2    H1 5679   1.800   2.196  12.953
  377MPD2    H2 5680   2.208   2.295  12.846
  377MPD2    H3 5681   1.956   2.332  12.824
  377MPD2     N 5682   1.843   1.991  13.076
  377MPD2    H5 5683   1.747   2.025  13.070
  377MPD2    N1 5684   2.303   2.080  12.924
  377MPD2    H7 5685   2.361   2.139  12.865
  378TMC3    C1 5686   2.436   1.904  12.621
  378TMC3    C2 5687   2.380   1.886  12.740
  378TMC3    C3 5688   2.457   1.925  12.851
  378TMC3    C4 5689   2.550   1.975  12.604
  378TMC3    C5 5690   2.622   2.011  12.719
  378TMC3    C6 5691   2.583   1.984  12.846
  378TMC3     C 5692   2.348   1.879  12.509
  378TMC3     O 5693   2.240   1.820  12.531
  378TMC3     H 5694   2.281   1.846  12.752
  378TMC3    H1 5695   2.598   1.973  12.507
  378TMC3    H2 5696   2.623   2.030  12.936
  378TMC3    C7 5697   2.762   2.050  12.704
  378TMC3    C8 5698   2.359   1.961  12.955
  378TMC3    O1 5699   2.844   2.008  12.785
  378TMC3    O2 5700   2.314   1.883  13.036
  379MPD2     C 5701   3.134   0.060  16.494
  379MPD2    C1 5702   3.033   4.765  16.545
  379MPD2    C2 5703   3.061   4.701  16.663
  379MPD2    C3 5704   3.179   4.721  16.736
  379MPD2    C4 5705   3.285   0.011  16.673
  379MPD2    C5 5706   3.254   0.068  16.553
  379MPD2     H 5707   2.989   4.630  16.701
  379MPD2    H1 5708   3.387   0.018  16.709
  379MPD2    H2 5709   3.132   0.116  16.401
  379MPD2    H3 5710   3.327   0.128  16.501
  379MPD2     N 5711   3.219   4.645  16.854
  379MPD2    H5 5712   3.316   4.653  16.885
  379MPD2    N1 5713   2.919   4.742  16.467
  379MPD2    H7 5714   2.925   0.003  16.375
  380TMC3    C1 5715   2.726   4.656  16.381
  380TMC3    C2 5716   2.711   4.533  16.321
  380TMC3    C3 5717   2.712   4.522  16.183
  380TMC3    C4 5718   2.706   4.768  16.311
  380TMC3    C5 5719   2.676   4.762  16.179
  380TMC3    C6 5720   2.691   4.644  16.117
  380TMC3     C 5721   2.809   4.667  16.501
  380TMC3     O 5722   2.784   4.598  16.601
  380TMC3     H 5723   2.729   4.440  16.373
  380TMC3    H1 5724   2.700   0.085  16.356
  380TMC3    H2 5725   2.695   4.652  16.009
  380TMC3    C7 5726   2.610   0.097  16.121
  380TMC3    C8 5727   2.836   4.470  16.128
  380TMC3    O1 5728   2.626   0.213  16.158
  380TMC3    O2 5729   2.842   4.465  16.008
  381TMC3    C1 5730   2.604   1.151  16.375
  381TMC3    C2 5731   2.677   1.264  16.378
  381TMC3    C3 5732   2.656   1.360  16.479
  381TMC3    C4 5733   2.513   1.126  16.475
  381TMC3    C5 5734   2.488   1.228  16.560
  381TMC3    C6 5735   2.551   1.354  16.563
  381TMC3     C 5736   2.647   1.046  16.286
  381TMC3     O 5737   2.747   1.067  16.219
  381TMC3     H 5738   2.756   1.285  16.306
  381TMC3    H1 5739   2.440   1.045  16.471
  381TMC3    H2 5740   2.539   1.430  16.640
  381TMC3    C7 5741   2.444   1.184  16.691
  381TMC3    C8 5742   2.766   1.457  16.501
  381TMC3    O1 5743   2.479   1.068  16.718
  381TMC3    O2 5744   2.876   1.430  16.455
  382MPD2     C 5745   1.829   3.925  17.247
  382MPD2    C1 5746   1.788   3.919  17.385
  382MPD2    C2 5747   1.786   3.799  17.443
  382MPD2    C3 5748   1.811   3.682  17.373
  382MPD2    C4 5749   1.840   3.689  17.244
  382MPD2    C5 5750   1.862   3.811  17.184
  382MPD2     H 5751   1.745   3.780  17.542
  382MPD2    H1 5752   1.864   3.598  17.189
  382MPD2    H2 5753   1.820   4.017  17.191
  382MPD2    H3 5754   1.889   3.818  17.080
  382MPD2     N 5755   1.780   3.552  17.425
  382MPD2    H5 5756   1.772   3.476  17.358
  382MPD2    N1 5757   1.751   4.024  17.471
  382MPD2    H7 5758   1.711   4.004  17.562
  383TMC3    C1 5759   1.712   3.388  17.571
  383TMC3    C2 5760   1.647   3.327  17.474
  383TMC3    C3 5761   1.636   3.188  17.484
  383TMC3    C4 5762   1.748   3.328  17.693
  383TMC3    C5 5763   1.717   3.192  17.709
  383TMC3    C6 5764   1.670   3.113  17.606
  383TMC3     C 5765   1.743   3.528  17.559
  383TMC3     O 5766   1.726   3.590  17.662
  383TMC3     H 5767   1.610   3.388  17.392
  383TMC3    H1 5768   1.796   3.391  17.767
  383TMC3    H2 5769   1.661   3.006  17.624
  383TMC3    C7 5770   1.756   3.130  17.834
  383TMC3    C8 5771   1.551   3.124  17.393
  383TMC3    O1 5772   1.726   3.012  17.858
  383TMC3    O2 5773   1.490   3.200  17.320
  384MPD2     C 5774   3.459   0.549  12.235
  384MPD2    C1 5775   3.426   0.446  12.322
  384MPD2    C2 5776   3.508   0.334  12.324
  384MPD2    C3 5777   3.623   0.326  12.251
  384MPD2    C4 5778   3.652   0.428  12.170
  384MPD2    C5 5779   3.568   0.538  12.158
  384MPD2     H 5780   3.490   0.254  12.394
  384MPD2    H1 5781   3.737   0.421  12.103
  384MPD2    H2 5782   3.398   0.637  12.225
  384MPD2    H3 5783   3.580   0.621  12.089
  384MPD2     N 5784   3.706   0.209  12.248
  384MPD2    H5 5785   3.804   0.216  12.223
  384MPD2    N1 5786   3.326   0.467  12.414
  384MPD2    H7 5787   3.292   0.562  12.429
  385TMC3    C1 5788   3.761   4.771  12.296
  385TMC3    C2 5789   3.707   4.648  12.253
  385TMC3    C3 5790   3.699   4.551  12.350
  385TMC3    C4 5791   3.816   4.774  12.424
  385TMC3    C5 5792   3.808   4.665  12.514
  385TMC3    C6 5793   3.742   4.555  12.478
  385TMC3     C 5794   3.662   0.090  12.291
  385TMC3     O 5795   3.546   0.058  12.324
  385TMC3     H 5796   3.626   4.662  12.182
  385TMC3    H1 5797   3.851   0.090  12.454
  385TMC3    H2 5798   3.744   4.460  12.530
  385TMC3    C7 5799   3.796   4.714  12.653
  385TMC3    C8 5800   3.624   4.429  12.312
  385TMC3    O1 5801   3.827   0.049  12.674
  385TMC3    O2 5802   3.594   4.354  12.402
  386TMC3    C1 5803   3.704   2.360  12.212
  386TMC3    C2 5804   3.705   2.373  12.079
  386TMC3    C3 5805   3.598   2.450  12.031
  386TMC3    C4 5806   3.602   2.405  12.290
  386TMC3    C5 5807   3.495   2.473  12.238
  386TMC3    C6 5808   3.500   2.506  12.105
  386TMC3     C 5809   3.817   2.312  12.280
  386TMC3     O 5810   3.894   2.391  12.330
  386TMC3     H 5811   3.795   2.357  12.021
  386TMC3    H1 5812   3.606   2.386  12.397
  386TMC3    H2 5813   3.419   2.557  12.053
  386TMC3    C7 5814   3.378   2.501  12.319
  386TMC3    C8 5815   3.584   2.465  11.886
  386TMC3    O1 5816   3.372   2.451  12.431
  386TMC3    O2 5817   3.536   2.576  11.859
  387MPD2     C 5818   0.714   2.214   9.801
  387MPD2    C1 5819   0.818   2.270   9.880
  387MPD2    C2 5820   0.868   2.190   9.979
  387MPD2    C3 5821   0.824   2.058   9.996
  387MPD2    C4 5822   0.726   2.007   9.916
  387MPD2    C5 5823   0.666   2.086   9.822
  387MPD2     H 5824   0.935   2.233  10.053
  387MPD2    H1 5825   0.699   1.903   9.931
  387MPD2    H2 5826   0.677   2.274   9.718
  387MPD2    H3 5827   0.599   2.035   9.753
  387MPD2     N 5828   0.891   1.983  10.103
  387MPD2    H5 5829   0.950   2.034  10.168
  387MPD2    N1 5830   0.879   2.392   9.855
  387MPD2    H7 5831   0.963   2.418   9.907
  388TMC3    C1 5832   0.946   2.564   9.739
  388TMC3    C2 5833   0.934   2.699   9.738
  388TMC3    C3 5834   1.049   2.775   9.744
  388TMC3    C4 5835   1.074   2.502   9.738
  388TMC3    C5 5836   1.182   2.584   9.753
  388TMC3    C6 5837   1.172   2.722   9.758
  388TMC3     C 5838   0.830   2.483   9.767
  388TMC3     O 5839   0.721   2.512   9.723
  388TMC3     H 5840   0.837   2.745   9.731
  388TMC3    H1 5841   1.080   2.396   9.720
  388TMC3    H2 5842   1.257   2.790   9.758
  388TMC3    C7 5843   1.310   2.532   9.813
  388TMC3    C8 5844   1.021   2.914   9.760
  388TMC3    O1 5845   1.405   2.607   9.841
  388TMC3    O2 5846   0.909   2.956   9.729
  389MPD2     C 5847   0.686   0.756  11.744
  389MPD2    C1 5848   0.651   0.652  11.663
  389MPD2    C2 5849   0.639   0.526  11.723
  389MPD2    C3 5850   0.670   0.510  11.858
  389MPD2    C4 5851   0.716   0.620  11.933
  389MPD2    C5 5852   0.733   0.739  11.876
  389MPD2     H 5853   0.607   0.440  11.665
  389MPD2    H1 5854   0.725   0.620  12.041
  389MPD2    H2 5855   0.688   0.856  11.702
  389MPD2    H3 5856   0.762   0.830  11.927
  389MPD2     N 5857   0.639   0.393  11.934
  389MPD2    H5 5858   0.678   0.396  12.028
  389MPD2    N1 5859   0.628   0.679  11.529
  389MPD2    H7 5860   0.652   0.770  11.491
  390TMC3    C1 5861   0.518   0.210  11.995
  390TMC3    C2 5862   0.456   0.093  11.968
  390TMC3    C3 5863   0.389   0.030  12.068
  390TMC3    C4 5864   0.505   0.281  12.113
  390TMC3    C5 5865   0.431   0.209  12.207
  390TMC3    C6 5866   0.371   0.085  12.186
  390TMC3     C 5867   0.576   0.283  11.886
  390TMC3     O 5868   0.525   0.262  11.770
  390TMC3     H 5869   0.470   0.052  11.869
  390TMC3    H1 5870   0.528   0.383  12.141
  390TMC3    H2 5871   0.324   0.033  12.269
  390TMC3    C7 5872   0.392   0.282  12.328
  390TMC3    C8 5873   0.285   4.720  12.026
  390TMC3    O1 5874   0.487   0.353  12.374
  390TMC3    O2 5875   0.281   4.697  11.904
  391MPD2     C 5876   4.200   2.334  11.448
  391MPD2    C1 5877   4.320   2.276  11.432
  391MPD2    C2 5878   4.366   2.257  11.303
  391MPD2    C3 5879   4.293   2.291  11.187
  391MPD2    C4 5880   4.168   2.347  11.212
  391MPD2    C5 5881   4.126   2.374  11.340
  391MPD2     H 5882   4.459   2.207  11.279
  391MPD2    H1 5883   4.101   2.377  11.133
  391MPD2    H2 5884   4.153   2.353  11.544
  391MPD2    H3 5885   4.028   2.415  11.358
  391MPD2     N 5886   4.353   2.279  11.056
  391MPD2    H5 5887   4.449   2.246  11.057
  391MPD2    N1 5888   4.398   2.252  11.550
  391MPD2    H7 5889   4.331   2.247  11.626
  392TMC3    C1 5890   4.366   2.280  10.820
  392TMC3    C2 5891   4.306   2.253  10.702
  392TMC3    C3 5892   4.360   2.309  10.585
  392TMC3    C4 5893   4.484   2.350  10.825
  392TMC3    C5 5894   4.543   2.383  10.701
  392TMC3    C6 5895   4.484   2.369  10.580
  392TMC3     C 5896   4.283   2.287  10.938
  392TMC3     O 5897   4.159   2.292  10.925
  392TMC3     H 5898   4.205   2.214  10.703
  392TMC3    H1 5899   4.528   2.385  10.917
  392TMC3    H2 5900   4.524   2.412  10.489
  392TMC3    C7 5901   4.676   2.435  10.708
  392TMC3    C8 5902   4.280   2.305  10.466
  392TMC3    O1 5903   4.737   2.408  10.813
  392TMC3    O2 5904   4.190   2.220  10.458
  393TMC3    C1 5905   3.760   0.345  11.171
  393TMC3    C2 5906   3.665   0.378  11.266
  393TMC3    C3 5907   3.642   0.291  11.369
  393TMC3    C4 5908   3.825   0.231  11.180
  393TMC3    C5 5909   3.798   0.133  11.268
  393TMC3    C6 5910   3.705   0.164  11.359
  393TMC3     C 5911   3.731   0.387  11.036
  393TMC3     O 5912   3.611   0.404  11.007
  393TMC3     H 5913   3.621   0.476  11.255
  393TMC3    H1 5914   3.891   0.212  11.096
  393TMC3    H2 5915   3.684   0.094  11.439
  393TMC3    C7 5916   3.840   4.772  11.248
  393TMC3    C8 5917   3.512   0.290  11.420
  393TMC3    O1 5918   3.787   4.699  11.324
  393TMC3    O2 5919   3.458   0.184  11.444
  394TMC3    C1 5920   0.583   0.643  11.302
  394TMC3    C2 5921   0.468   0.612  11.229
  394TMC3    C3 5922   0.461   0.646  11.096
  394TMC3    C4 5923   0.688   0.709  11.249
  394TMC3    C5 5924   0.681   0.737  11.115
  394TMC3    C6 5925   0.572   0.708  11.036
  394TMC3     C 5926   0.576   0.593  11.435
  394TMC3     O 5927   0.523   0.482  11.455
  394TMC3     H 5928   0.381   0.566  11.274
  394TMC3    H1 5929   0.784   0.724  11.298
  394TMC3    H2 5930   0.562   0.745  10.935
  394TMC3    C7 5931   0.797   0.801  11.056
  394TMC3    C8 5932   0.352   0.603  11.011
  394TMC3    O1 5933   0.884   0.845  11.131
  394TMC3    O2 5934   0.245   0.596  11.066
  395TMC3    C1 5935   4.632   2.302  14.986
  395TMC3    C2 5936   4.521   2.298  15.066
  395TMC3    C3 5937   4.527   2.341  15.196
  395TMC3    C4 5938   4.742   2.375  15.026
  395TMC3    C5 5939   4.751   2.424  15.152
  395TMC3    C6 5940   4.643   2.410  15.237
  395TMC3     C 5941   4.621   2.286  14.844
  395TMC3     O 5942   4.632   2.386  14.771
  395TMC3     H 5943   4.437   2.247  15.021
  395TMC3    H1 5944   0.036   2.391  14.951
  395TMC3    H2 5945   4.651   2.441  15.340
  395TMC3    C7 5946   0.091   2.466  15.207
  395TMC3    C8 5947   4.452   2.272  15.294
  395TMC3    O1 5948   0.090   2.547  15.299
  395TMC3    O2 5949   4.450   2.330  15.403
  396MPD2     C 5950   0.026   3.234  17.233
  396MPD2    C1 5951   0.118   3.278  17.325
  396MPD2    C2 5952   0.191   3.396  17.297
  396MPD2    C3 5953   0.173   3.461  17.175
  396MPD2    C4 5954   0.087   3.405  17.081
  396MPD2    C5 5955   0.007   3.301  17.119
  396MPD2     H 5956   0.258   3.444  17.366
  396MPD2    H1 5957   0.067   3.442  16.981
  396MPD2    H2 5958   4.741   3.150  17.243
  396MPD2    H3 5959   4.710   3.260  17.057
  396MPD2     N 5960   0.249   3.581  17.151
  396MPD2    H5 5961   0.313   3.607  17.226
  396MPD2    N1 5962   0.135   3.206  17.448
  396MPD2    H7 5963   0.089   3.116  17.451
  397TMC3    C1 5964   0.214   3.140  17.648
  397TMC3    C2 5965   0.346   3.101  17.655
  397TMC3    C3 5966   0.372   2.964  17.629
  397TMC3    C4 5967   0.109   3.059  17.646
  397TMC3    C5 5968   0.139   2.923  17.652
  397TMC3    C6 5969   0.263   2.881  17.640
  397TMC3     C 5970   0.209   3.251  17.554
  397TMC3     O 5971   0.263   3.358  17.584
  397TMC3     H 5972   0.420   3.175  17.625
  397TMC3    H1 5973   0.007   3.096  17.640
  397TMC3    H2 5974   0.273   2.774  17.627
  397TMC3    C7 5975   0.034   2.828  17.639
  397TMC3    C8 5976   0.443   2.940  17.500
  397TMC3    O1 5977   0.035   2.749  17.546
  397TMC3    O2 5978   0.383   2.871  17.422
  398MPD2     C 5979   3.098   4.747  18.316
  398MPD2    C1 5980   3.166   4.636  18.354
  398MPD2    C2 5981   3.298   4.655  18.405
  398MPD2    C3 5982   3.349   4.782  18.427
  398MPD2    C4 5983   3.274   0.108  18.391
  398MPD2    C5 5984   3.151   0.091  18.327
  398MPD2     H 5985   3.351   4.569  18.445
  398MPD2    H1 5986   3.302   0.211  18.410
  398MPD2    H2 5987   2.993   4.740  18.290
  398MPD2    H3 5988   3.100   0.182  18.294
  398MPD2     N 5989   3.471   0.013  18.498
  398MPD2    H5 5990   3.524   4.709  18.494
  398MPD2    N1 5991   3.096   4.515  18.377
  398MPD2    H7 5992   3.132   4.442  18.438
  399TMC3    C1 5993   2.921   4.357  18.362
  399TMC3    C2 5994   2.997   4.255  18.412
  399TMC3    C3 5995   2.940   4.153  18.483
  399TMC3    C4 5996   2.787   4.343  18.365
  399TMC3    C5 5997   2.734   4.242  18.440
  399TMC3    C6 5998   2.809   4.153  18.506
  399TMC3     C 5999   2.973   4.478  18.322
  399TMC3     O 6000   2.897   4.533  18.242
  399TMC3     H 6001   3.105   4.248  18.405
  399TMC3    H1 6002   2.728   4.426  18.325
  399TMC3    H2 6003   2.759   4.072  18.557
  399TMC3    C7 6004   2.601   4.203  18.408
  399TMC3    C8 6005   2.992   4.021  18.503
  399TMC3    O1 6006   2.554   4.113  18.476
  399TMC3    O2 6007   2.911   3.928  18.494
  400TMC3    C1 6008   1.703   2.973  16.986
  400TMC3    C2 6009   1.583   2.917  16.951
  400TMC3    C3 6010   1.486   3.006  16.906
  400TMC3    C4 6011   1.733   3.109  16.987
  400TMC3    C5 6012   1.638   3.187  16.940
  400TMC3    C6 6013   1.519   3.139  16.893
  400TMC3     C 6014   1.759   2.901  17.094
  400TMC3     O 6015   1.760   2.780  17.091
  400TMC3     H 6016   1.574   2.810  16.967
  400TMC3    H1 6017   1.835   3.141  17.001
  400TMC3    H2 6018   1.441   3.205  16.856
  400TMC3    C7 6019   1.658   3.325  16.941
  400TMC3    C8 6020   1.353   2.964  16.873
  400TMC3    O1 6021   1.772   3.364  16.943
  400TMC3    O2 6022   1.274   3.060  16.870
  401MPD2     C 6023   4.493   1.586  18.225
  401MPD2    C1 6024   4.486   1.540  18.358
  401MPD2    C2 6025   4.442   1.414  18.387
  401MPD2    C3 6026   4.405   1.323  18.287
  401MPD2    C4 6027   4.394   1.372  18.156
  401MPD2    C5 6028   4.435   1.503  18.131
  401MPD2     H 6029   4.455   1.378  18.488
  401MPD2    H1 6030   4.346   1.321  18.073
  401MPD2    H2 6031   4.526   1.685  18.197
  401MPD2    H3 6032   4.438   1.532  18.027
  401MPD2     N 6033   4.376   1.194  18.327
  401MPD2    H5 6034   4.399   1.169  18.422
  401MPD2    N1 6035   4.555   1.608  18.464
  401MPD2    H7 6036   4.539   1.573  18.558
  402TMC3    C1 6037   4.320   0.967  18.312
  402TMC3    C2 6038   4.287   0.985  18.446
  402TMC3    C3 6039   4.317   0.883  18.533
  402TMC3    C4 6040   4.374   0.854  18.265
  402TMC3    C5 6041   4.423   0.761  18.359
  402TMC3    C6 6042   4.393   0.780  18.490
  402TMC3     C 6043   4.330   1.092  18.246
  402TMC3     O 6044   4.324   1.085  18.120
  402TMC3     H 6045   4.229   1.071  18.478
  402TMC3    H1 6046   4.403   0.843  18.161
  402TMC3    H2 6047   4.436   0.717  18.568
  402TMC3    C7 6048   4.512   0.661  18.307
  402TMC3    C8 6049   4.320   0.908  18.680
  402TMC3    O1 6050   4.496   0.611  18.198
  402TMC3    O2 6051   4.344   0.814  18.746
  403MPD2     C 6052   3.127   4.641  13.653
  403MPD2    C1 6053   3.103   4.526  13.724
  403MPD2    C2 6054   3.175   4.506  13.837
  403MPD2    C3 6055   3.266   4.596  13.881
  403MPD2    C4 6056   3.300   4.704  13.805
  403MPD2    C5 6057   3.218   4.729  13.699
  403MPD2     H 6058   3.161   4.419  13.900
  403MPD2    H1 6059   3.377   4.773  13.834
  403MPD2    H2 6060   3.076   4.671  13.562
  403MPD2    H3 6061   3.227   0.039  13.644
  403MPD2     N 6062   3.337   4.560  14.001
  403MPD2    H5 6063   3.315   4.474  14.049
  403MPD2    N1 6064   3.006   4.431  13.679
  403MPD2    H7 6065   2.961   4.458  13.592
  404TMC3    C1 6066   2.854   4.255  13.681
  404TMC3    C2 6067   2.793   4.166  13.755
  404TMC3    C3 6068   2.700   4.076  13.706
  404TMC3    C4 6069   2.832   4.256  13.543
  404TMC3    C5 6070   2.751   4.157  13.490
  404TMC3    C6 6071   2.683   4.066  13.570
  404TMC3     C 6072   2.973   4.312  13.740
  404TMC3     O 6073   3.019   4.255  13.837
  404TMC3     H 6074   2.813   4.164  13.862
  404TMC3    H1 6075   2.883   4.330  13.484
  404TMC3    H2 6076   2.620   3.987  13.531
  404TMC3    C7 6077   2.731   4.158  13.344
  404TMC3    C8 6078   2.686   3.952  13.781
  404TMC3    O1 6079   2.818   4.225  13.285
  404TMC3    O2 6080   2.693   3.849  13.720
  405MPD2     C 6081   3.313   0.325  15.149
  405MPD2    C1 6082   3.245   0.269  15.044
  405MPD2    C2 6083   3.134   0.344  14.995
  405MPD2    C3 6084   3.089   0.454  15.053
  405MPD2    C4 6085   3.145   0.502  15.170
  405MPD2    C5 6086   3.259   0.440  15.210
  405MPD2     H 6087   3.088   0.319  14.901
  405MPD2    H1 6088   3.119   0.596  15.217
  405MPD2    H2 6089   3.396   0.278  15.200
  405MPD2    H3 6090   3.313   0.485  15.293
  405MPD2     N 6091   2.967   0.497  14.994
  405MPD2    H5 6092   2.944   0.469  14.900
  405MPD2    N1 6093   3.284   0.148  14.991
  405MPD2    H7 6094   3.366   0.104  15.033
  406TMC3    C1 6095   2.538   0.635  14.937
  406TMC3    C2 6096   2.500   0.505  14.907
  406TMC3    C3 6097   2.587   0.401  14.924
  406TMC3    C4 6098   2.664   0.662  14.971
  406TMC3    C5 6099   2.751   0.555  14.990
  406TMC3    C6 6100   2.714   0.425  14.966
  406TMC3     C 6101   2.469   0.732  14.862
  406TMC3     O 6102   2.489   0.849  14.897
  406TMC3     H 6103   2.393   0.493  14.898
  406TMC3    H1 6104   2.701   0.761  14.992
  406TMC3    H2 6105   2.784   0.343  14.973
  406TMC3    C7 6106   2.876   0.587  15.056
  406TMC3    C8 6107   2.577   0.330  14.797
  406TMC3    O1 6108   2.878   0.666  15.150
  406TMC3    O2 6109   2.519   0.392  14.713
  407MPD2     C 6110   0.278   1.785  10.128
  407MPD2    C1 6111   0.418   1.784  10.133
  407MPD2    C2 6112   0.489   1.841  10.242
  407MPD2    C3 6113   0.416   1.907  10.341
  407MPD2    C4 6114   0.280   1.912  10.332
  407MPD2    C5 6115   0.206   1.851  10.229
  407MPD2     H 6116   0.595   1.820  10.251
  407MPD2    H1 6117   0.220   1.967  10.404
  407MPD2    H2 6118   0.215   1.733  10.057
  407MPD2    H3 6119   0.098   1.851  10.222
  407MPD2     N 6120   0.470   1.995  10.451
  407MPD2    H5 6121   0.407   2.051  10.508
  407MPD2    N1 6122   0.499   1.730  10.033
  407MPD2    H7 6123   0.587   1.700  10.073
  408TMC3    C1 6124   0.568   1.670   9.821
  408TMC3    C2 6125   0.668   1.604   9.876
  408TMC3    C3 6126   0.794   1.611   9.817
  408TMC3    C4 6127   0.580   1.748   9.708
  408TMC3    C5 6128   0.698   1.744   9.642
  408TMC3    C6 6129   0.807   1.681   9.699
  408TMC3     C 6130   0.454   1.703   9.904
  408TMC3     O 6131   0.362   1.746   9.837
  408TMC3     H 6132   0.656   1.547   9.968
  408TMC3    H1 6133   0.510   1.825   9.680
  408TMC3    H2 6134   0.907   1.682   9.657
  408TMC3    C7 6135   0.736   1.854   9.546
  408TMC3    C8 6136   0.897   1.525   9.868
  408TMC3    O1 6137   0.853   1.872   9.519
  408TMC3    O2 6138   0.867   1.421   9.926
  409MPD2     C 6139   0.363   2.333  17.064
  409MPD2    C1 6140   0.403   2.396  17.182
  409MPD2    C2 6141   0.468   2.520  17.174
  409MPD2    C3 6142   0.514   2.571  17.051
  409MPD2    C4 6143   0.472   2.505  16.939
  409MPD2    C5 6144   0.406   2.390  16.946
  409MPD2     H 6145   0.493   2.574  17.265
  409MPD2    H1 6146   0.501   2.537  16.839
  409MPD2    H2 6147   0.295   2.248  17.066
  409MPD2    H3 6148   0.384   2.336  16.855
  409MPD2     N 6149   0.592   2.682  17.046
  409MPD2    H5 6150   0.591   2.734  16.959
  409MPD2    N1 6151   0.380   2.338  17.312
  409MPD2    H7 6152   0.383   2.404  17.390
  410TMC3    C1 6153   0.761   2.836  17.104
  410TMC3    C2 6154   0.891   2.849  17.155
  410TMC3    C3 6155   0.960   2.964  17.125
  410TMC3    C4 6156   0.700   2.935  17.024
  410TMC3    C5 6157   0.785   3.039  16.981
  410TMC3    C6 6158   0.912   3.056  17.036
  410TMC3     C 6159   0.679   2.725  17.145
  410TMC3     O 6160   0.701   2.668  17.250
  410TMC3     H 6161   0.927   2.771  17.222
  410TMC3    H1 6162   0.598   2.929  16.988
  410TMC3    H2 6163   0.977   3.138  17.008
  410TMC3    C7 6164   0.745   3.108  16.861
  410TMC3    C8 6165   1.099   2.973  17.152
  410TMC3    O1 6166   0.635   3.067  16.818
  410TMC3    O2 6167   1.148   3.082  17.169
  411MPD2     C 6168   0.776   3.208  14.806
  411MPD2    C1 6169   0.671   3.206  14.896
  411MPD2    C2 6170   0.602   3.089  14.917
  411MPD2    C3 6171   0.627   2.973  14.852
  411MPD2    C4 6172   0.736   2.971  14.770
  411MPD2    C5 6173   0.812   3.086  14.746
  411MPD2     H 6174   0.513   3.098  14.979
  411MPD2    H1 6175   0.762   2.885  14.709
  411MPD2    H2 6176   0.827   3.302  14.791
  411MPD2    H3 6177   0.900   3.080  14.682
  411MPD2     N 6178   0.533   2.867  14.840
  411MPD2    H5 6179   0.550   2.787  14.780
  411MPD2    N1 6180   0.641   3.332  14.957
  411MPD2    H7 6181   0.639   3.414  14.899
  412TMC3    C1 6182   0.329   2.748  14.891
  412TMC3    C2 6183   0.202   2.768  14.943
  412TMC3    C3 6184   0.099   2.685  14.895
  412TMC3    C4 6185   0.352   2.660  14.786
  412TMC3    C5 6186   0.241   2.588  14.737
  412TMC3    C6 6187   0.118   2.602  14.786
  412TMC3     C 6188   0.424   2.858  14.920
  412TMC3     O 6189   0.393   2.924  15.018
  412TMC3     H 6190   0.183   2.851  15.010
  412TMC3    H1 6191   0.452   2.631  14.755
  412TMC3    H2 6192   0.038   2.537  14.753
  412TMC3    C7 6193   0.258   2.474  14.649
  412TMC3    C8 6194   4.751   2.745  14.911
  412TMC3    O1 6195   0.205   2.371  14.691
  412TMC3    O2 6196   4.742   2.858  14.952
  413MPD2     C 6197   2.666   1.756  15.664
  413MPD2    C1 6198   2.581   1.685  15.591
  413MPD2    C2 6199   2.622   1.573  15.521
  413MPD2    C3 6200   2.746   1.526  15.538
  413MPD2    C4 6201   2.838   1.606  15.601
  413MPD2    C5 6202   2.802   1.724  15.659
  413MPD2     H 6203   2.550   1.510  15.470
  413MPD2    H1 6204   2.943   1.578  15.610
  413MPD2    H2 6205   2.643   1.849  15.714
  413MPD2    H3 6206   2.870   1.790  15.711
  413MPD2     N 6207   2.778   1.406  15.472
  413MPD2    H5 6208   2.708   1.351  15.424
  413MPD2    N1 6209   2.453   1.741  15.594
  413MPD2    H7 6210   2.433   1.806  15.670
  414TMC3    C1 6211   2.913   1.212  15.425
  414TMC3    C2 6212   2.994   1.114  15.474
  414TMC3    C3 6213   2.998   1.002  15.406
  414TMC3    C4 6214   2.839   1.201  15.309
  414TMC3    C5 6215   2.851   1.078  15.242
  414TMC3    C6 6216   2.926   0.979  15.293
  414TMC3     C 6217   2.892   1.329  15.511
  414TMC3     O 6218   2.973   1.345  15.600
  414TMC3     H 6219   3.047   1.127  15.569
  414TMC3    H1 6220   2.784   1.281  15.260
  414TMC3    H2 6221   2.932   0.894  15.226
  414TMC3    C7 6222   2.773   1.063  15.125
  414TMC3    C8 6223   3.100   0.902  15.438
  414TMC3    O1 6224   2.653   1.089  15.144
  414TMC3    O2 6225   3.105   0.798  15.372
  415TMC3    C1 6226   2.710   4.109  10.475
  415TMC3    C2 6227   2.729   4.190  10.366
  415TMC3    C3 6228   2.706   4.132  10.240
  415TMC3    C4 6229   2.661   3.984  10.464
  415TMC3    C5 6230   2.619   3.940  10.339
  415TMC3    C6 6231   2.645   4.006  10.229
  415TMC3     C 6232   2.782   4.115  10.604
  415TMC3     O 6233   2.716   4.085  10.700
  415TMC3     H 6234   2.746   4.297  10.378
  415TMC3    H1 6235   2.673   3.916  10.548
  415TMC3    H2 6236   2.634   3.962  10.131
  415TMC3    C7 6237   2.571   3.802  10.324
  415TMC3    C8 6238   2.706   4.230  10.130
  415TMC3    O1 6239   2.569   3.752  10.211
  415TMC3    O2 6240   2.625   4.216  10.037
  416MPD2     C 6241   0.054   3.116  11.902
  416MPD2    C1 6242   4.711   3.127  11.843
  416MPD2    C2 6243   4.693   3.076  11.715
  416MPD2    C3 6244   0.015   3.021  11.648
  416MPD2    C4 6245   0.128   2.990  11.723
  416MPD2    C5 6246   0.152   3.050  11.843
  416MPD2     H 6247   4.592   3.069  11.677
  416MPD2    H1 6248   0.209   2.947  11.666
  416MPD2    H2 6249   0.075   3.171  11.994
  416MPD2    H3 6250   0.251   3.047  11.887
  416MPD2     N 6251   0.003   2.957  11.521
  416MPD2    H5 6252   0.072   2.890  11.488
  416MPD2    N1 6253   4.611   3.193  11.913
  416MPD2    H7 6254   4.632   3.214  12.010
  417TMC3    C1 6255   4.391   3.271  11.964
  417TMC3    C2 6256   4.423   3.267  12.096
  417TMC3    C3 6257   4.348   3.346  12.175
  417TMC3    C4 6258   4.291   3.334  11.907
  417TMC3    C5 6259   4.207   3.409  11.992
  417TMC3    C6 6260   4.246   3.423  12.123
  417TMC3     C 6261   4.479   3.210  11.868
  417TMC3     O 6262   4.435   3.195  11.757
  417TMC3     H 6263   4.508   3.209  12.128
  417TMC3    H1 6264   4.269   3.322  11.802
  417TMC3    H2 6265   4.197   3.497  12.185
  417TMC3    C7 6266   4.110   3.491  11.938
  417TMC3    C8 6267   4.366   3.362  12.322
  417TMC3    O1 6268   4.120   3.520  11.819
  417TMC3    O2 6269   4.312   3.453  12.378
  418TMC3    C1 6270   3.874   0.110  18.543
  418TMC3    C2 6271   3.744   0.078  18.526
  418TMC3    C3 6272   3.650   0.114  18.618
  418TMC3    C4 6273   3.910   0.182  18.657
  418TMC3    C5 6274   3.808   0.215  18.745
  418TMC3    C6 6275   3.678   0.190  18.725
  418TMC3     C 6276   3.958   0.156  18.429
  418TMC3     O 6277   3.996   0.271  18.431
  418TMC3     H 6278   3.712   0.031  18.434
  418TMC3    H1 6279   4.010   0.200  18.693
  418TMC3    H2 6280   3.587   0.214  18.780
  418TMC3    C7 6281   3.849   0.289  18.869
  418TMC3    C8 6282   3.519   0.128  18.567
  418TMC3    O1 6283   3.934   0.378  18.852
  418TMC3    O2 6284   3.445   0.215  18.602
  419MPD2     C 6285   2.171   2.920  13.010
  419MPD2    C1 6286   2.036   2.945  12.970
  419MPD2    C2 6287   1.950   2.997  13.067
  419MPD2    C3 6288   1.997   3.027  13.191
  419MPD2    C4 6289   2.129   2.994  13.232
  419MPD2    C5 6290   2.209   2.940  13.139
  419MPD2     H 6291   1.844   3.010  13.047
  419MPD2    H1 6292   2.170   3.020  13.329
  419MPD2    H2 6293   2.244   2.890  12.935
  419MPD2    H3 6294   2.314   2.935  13.164
  419MPD2     N 6295   1.905   3.098  13.276
  419MPD2    H5 6296   1.811   3.103  13.240
  419MPD2    N1 6297   1.988   2.937  12.841
  419MPD2    H7 6298   1.888   2.930  12.824
  420TMC3    C1 6299   1.818   3.243  13.430
  420TMC3    C2 6300   1.724   3.283  13.335
  420TMC3    C3 6301   1.657   3.404  13.363
  420TMC3    C4 6302   1.841   3.322  13.545
  420TMC3    C5 6303   1.763   3.431  13.572
  420TMC3    C6 6304   1.681   3.481  13.480
  420TMC3     C 6305   1.921   3.145  13.401
  420TMC3     O 6306   2.018   3.140  13.467
  420TMC3     H 6307   1.690   3.227  13.248
  420TMC3    H1 6308   1.908   3.278  13.618
  420TMC3    H2 6309   1.648   3.583  13.491
  420TMC3    C7 6310   1.693   3.398  13.692
  420TMC3    C8 6311   1.539   3.442  13.288
  420TMC3    O1 6312   1.742   3.323  13.777
  420TMC3    O2 6313   1.508   3.560  13.280
  421TMC3    C1 6314   3.466   4.580  14.185
  421TMC3    C2 6315   3.485   4.671  14.283
  421TMC3    C3 6316   3.520   4.616  14.407
  421TMC3    C4 6317   3.479   4.442  14.202
  421TMC3    C5 6318   3.516   4.395  14.328
  421TMC3    C6 6319   3.533   4.484  14.430
  421TMC3     C 6320   3.428   4.636  14.064
  421TMC3     O 6321   3.480   4.743  14.042
  421TMC3     H 6322   3.480   4.777  14.264
  421TMC3    H1 6323   3.502   4.379  14.117
  421TMC3    H2 6324   3.576   4.447  14.522
  421TMC3    C7 6325   3.605   4.283  14.336
  421TMC3    C8 6326   3.559   4.707  14.513
  421TMC3    O1 6327   3.695   4.282  14.252
  421TMC3    O2 6328   3.631   4.666  14.601
  422TMC3    C1 6329   0.733   1.425  13.120
  422TMC3    C2 6330   0.702   1.543  13.194
  422TMC3    C3 6331   0.578   1.560  13.243
  422TMC3    C4 6332   0.632   1.339  13.091
  422TMC3    C5 6333   0.504   1.369  13.129
  422TMC3    C6 6334   0.475   1.477  13.206
  422TMC3     C 6335   0.855   1.420  13.036
  422TMC3     O 6336   0.919   1.524  13.017
  422TMC3     H 6337   0.777   1.622  13.200
  422TMC3    H1 6338   0.646   1.248  13.034
  422TMC3    H2 6339   0.373   1.493  13.239
  422TMC3    C7 6340   0.405   1.287  13.066
  422TMC3    C8 6341   0.547   1.702  13.267
  422TMC3    O1 6342   0.431   1.258  12.948
  422TMC3    O2 6343   0.616   1.792  13.224
  423MPD2     C 6344   1.785   2.409  18.592
  423MPD2    C1 6345   1.888   2.328  18.624
  423MPD2    C2 6346   1.960   2.257  18.534
  423MPD2    C3 6347   1.920   2.250  18.401
  423MPD2    C4 6348   1.812   2.335  18.365
  423MPD2    C5 6349   1.748   2.413  18.461
  423MPD2     H 6350   2.047   2.201  18.567
  423MPD2    H1 6351   1.766   2.327  18.267
  423MPD2    H2 6352   1.746   2.476  18.668
  423MPD2    H3 6353   1.664   2.472  18.426
  423MPD2     N 6354   1.971   2.162  18.299
  423MPD2    H5 6355   1.948   2.184  18.203
  423MPD2    N1 6356   1.934   2.320  18.764
  423MPD2    H7 6357   2.021   2.277  18.792
  424TMC3    C1 6358   1.936   2.363  18.999
  424TMC3    C2 6359   2.074   2.373  19.001
  424TMC3    C3 6360   2.134   2.367  19.122
  424TMC3    C4 6361   1.858   2.340  19.116
  424TMC3    C5 6362   1.926   2.331  19.238
  424TMC3    C6 6363   2.068   2.346  19.242
  424TMC3     C 6364   1.863   2.368  18.868
  424TMC3     O 6365   1.745   2.403  18.874
  424TMC3     H 6366   2.134   2.382  18.911
  424TMC3    H1 6367   1.751   2.327  19.109
  424TMC3    H2 6368   2.129   2.343  19.331
  424TMC3    C7 6369   1.854   2.305  19.365
  424TMC3    C8 6370   2.274   2.327  19.130
  424TMC3    O1 6371   1.925   2.284  19.461
  424TMC3    O2 6372   2.304   2.255  19.223
  425MPD2     C 6373   1.471   1.538  17.825
  425MPD2    C1 6374   1.418   1.438  17.752
  425MPD2    C2 6375   1.282   1.441  17.731
  425MPD2    C3 6376   1.212   1.552  17.762
  425MPD2    C4 6377   1.267   1.662  17.821
  425MPD2    C5 6378   1.398   1.651  17.857
  425MPD2     H 6379   1.232   1.369  17.667
  425MPD2    H1 6380   1.224   1.758  17.846
  425MPD2    H2 6381   1.577   1.542  17.848
  425MPD2    H3 6382   1.459   1.724  17.910
  425MPD2     N 6383   1.074   1.556  17.737
  425MPD2    H5 6384   1.038   1.473  17.690
  425MPD2    N1 6385   1.495   1.330  17.710
  425MPD2    H7 6386   1.589   1.326  17.748
  426TMC3    C1 6387   1.552   1.125  17.589
  426TMC3    C2 6388   1.527   1.046  17.481
  426TMC3    C3 6389   1.617   0.940  17.451
  426TMC3    C4 6390   1.637   1.075  17.685
  426TMC3    C5 6391   1.713   0.968  17.657
  426TMC3    C6 6392   1.715   0.904  17.536
  426TMC3     C 6393   1.459   1.233  17.622
  426TMC3     O 6394   1.352   1.227  17.562
  426TMC3     H 6395   1.459   1.074  17.401
  426TMC3    H1 6396   1.644   1.117  17.785
  426TMC3    H2 6397   1.762   0.807  17.520
  426TMC3    C7 6398   1.768   0.890  17.765
  426TMC3    C8 6399   1.584   0.837  17.358
  426TMC3    O1 6400   1.863   0.819  17.735
  426TMC3    O2 6401   1.669   0.752  17.326
  427MPD2     C 6402   4.508   3.133  15.159
  427MPD2    C1 6403   4.512   3.177  15.292
  427MPD2    C2 6404   4.438   3.285  15.329
  427MPD2    C3 6405   4.336   3.344  15.246
  427MPD2    C4 6406   4.338   3.303  15.117
  427MPD2    C5 6407   4.421   3.193  15.074
  427MPD2     H 6408   4.450   3.309  15.434
  427MPD2    H1 6409   4.267   3.356  15.054
  427MPD2    H2 6410   4.580   3.059  15.129
  427MPD2    H3 6411   4.421   3.150  14.974
  427MPD2     N 6412   4.235   3.428  15.285
  427MPD2    H5 6413   4.159   3.448  15.221
  427MPD2    N1 6414   4.594   3.115  15.392
  427MPD2    H7 6415   4.598   3.146  15.488
  428TMC3    C1 6416   4.721   2.954  15.498
  428TMC3    C2 6417   4.704   2.825  15.536
  428TMC3    C3 6418   4.768   2.789  15.647
  428TMC3    C4 6419   0.013   3.047  15.570
  428TMC3    C5 6420   0.076   3.003  15.684
  428TMC3    C6 6421   0.059   2.875  15.727
  428TMC3     C 6422   4.656   2.992  15.377
  428TMC3     O 6423   4.636   2.901  15.295
  428TMC3     H 6424   4.644   2.755  15.479
  428TMC3    H1 6425   0.028   3.152  15.549
  428TMC3    H2 6426   0.115   2.847  15.815
  428TMC3    C7 6427   0.201   3.062  15.718
  428TMC3    C8 6428   4.767   2.644  15.672
  428TMC3    O1 6429   0.232   3.051  15.835
  428TMC3    O2 6430   4.684   2.572  15.622
  429MPD2     C 6431   0.896   3.460  18.043
  429MPD2    C1 6432   0.946   3.388  17.935
  429MPD2    C2 6433   1.016   3.449  17.830
  429MPD2    C3 6434   1.026   3.588  17.835
  429MPD2    C4 6435   0.982   3.652  17.948
  429MPD2    C5 6436   0.913   3.591  18.044
  429MPD2     H 6437   1.039   3.398  17.736
  429MPD2    H1 6438   1.001   3.758  17.961
  429MPD2    H2 6439   0.834   3.409  18.116
  429MPD2    H3 6440   0.873   3.655  18.122
  429MPD2     N 6441   1.098   3.656  17.731
  429MPD2    H5 6442   1.139   3.605  17.653
  429MPD2    N1 6443   0.941   3.245  17.924
  429MPD2    H7 6444   0.993   3.206  17.846
  430TMC3    C1 6445   1.212   3.835  17.629
  430TMC3    C2 6446   1.205   3.971  17.592
  430TMC3    C3 6447   1.301   4.020  17.506
  430TMC3    C4 6448   1.305   3.752  17.574
  430TMC3    C5 6449   1.392   3.802  17.483
  430TMC3    C6 6450   1.407   3.936  17.466
  430TMC3     C 6451   1.108   3.789  17.715
  430TMC3     O 6452   1.029   3.872  17.760
  430TMC3     H 6453   1.108   4.019  17.604
  430TMC3    H1 6454   1.315   3.647  17.600
  430TMC3    H2 6455   1.485   3.978  17.403
  430TMC3    C7 6456   1.422   3.714  17.376
  430TMC3    C8 6457   1.262   4.099  17.390
  430TMC3    O1 6458   1.418   3.594  17.398
  430TMC3    O2 6459   1.336   4.093  17.290
  431MPD2     C 6460   1.608   3.453  12.907
  431MPD2    C1 6461   1.685   3.483  12.795
  431MPD2    C2 6462   1.695   3.384  12.691
  431MPD2    C3 6463   1.630   3.264  12.704
  431MPD2    C4 6464   1.559   3.236  12.816
  431MPD2    C5 6465   1.545   3.329  12.916
  431MPD2     H 6466   1.750   3.409  12.601
  431MPD2    H1 6467   1.530   3.134  12.836
  431MPD2    H2 6468   1.599   3.523  12.990
  431MPD2    H3 6469   1.509   3.303  13.015
  431MPD2     N 6470   1.665   3.149  12.635
  431MPD2    H5 6471   1.676   3.066  12.692
  431MPD2    N1 6472   1.768   3.599  12.787
  431MPD2    H7 6473   1.807   3.619  12.696
  432TMC3    C1 6474   1.817   3.042  12.502
  432TMC3    C2 6475   1.856   2.985  12.384
  432TMC3    C3 6476   1.963   2.898  12.383
  432TMC3    C4 6477   1.886   3.018  12.618
  432TMC3    C5 6478   1.999   2.940  12.611
  432TMC3    C6 6479   2.036   2.879  12.494
  432TMC3     C 6480   1.723   3.149  12.513
  432TMC3     O 6481   1.717   3.231  12.421
  432TMC3     H 6482   1.801   3.022  12.298
  432TMC3    H1 6483   1.870   3.077  12.707
  432TMC3    H2 6484   2.117   2.809  12.505
  432TMC3    C7 6485   2.070   2.912  12.733
  432TMC3    C8 6486   2.027   2.892  12.257
  432TMC3    O1 6487   2.183   2.862  12.724
  432TMC3    O2 6488   1.965   2.866  12.154
  433MPD2     C 6489   0.646   2.271  11.113
  433MPD2    C1 6490   0.589   2.202  11.216
  433MPD2    C2 6491   0.616   2.240  11.352
  433MPD2    C3 6492   0.683   2.358  11.372
  433MPD2    C4 6493   0.736   2.434  11.266
  433MPD2    C5 6494   0.723   2.383  11.141
  433MPD2     H 6495   0.579   2.183  11.437
  433MPD2    H1 6496   0.805   2.516  11.276
  433MPD2    H2 6497   0.638   2.238  11.010
  433MPD2    H3 6498   0.768   2.440  11.060
  433MPD2     N 6499   0.698   2.394  11.511
  433MPD2    H5 6500   0.648   2.335  11.576
  433MPD2    N1 6501   0.534   2.078  11.187
  433MPD2    H7 6502   0.546   2.042  11.093
  434TMC3    C1 6503   0.424   1.872  11.247
  434TMC3    C2 6504   0.434   1.781  11.349
  434TMC3    C3 6505   0.456   1.653  11.320
  434TMC3    C4 6506   0.431   1.826  11.115
  434TMC3    C5 6507   0.440   1.690  11.088
  434TMC3    C6 6508   0.456   1.603  11.190
  434TMC3     C 6509   0.445   2.010  11.278
  434TMC3     O 6510   0.394   2.061  11.380
  434TMC3     H 6511   0.443   1.816  11.452
  434TMC3    H1 6512   0.423   1.896  11.033
  434TMC3    H2 6513   0.493   1.502  11.175
  434TMC3    C7 6514   0.490   1.659  10.957
  434TMC3    C8 6515   0.540   1.585  11.418
  434TMC3    O1 6516   0.528   1.750  10.886
  434TMC3    O2 6517   0.505   1.588  11.533
  435MPD2     C 6518   2.879   2.070  15.583
  435MPD2    C1 6519   2.833   2.082  15.710
  435MPD2    C2 6520   2.923   2.056  15.814
  435MPD2    C3 6521   3.050   2.003  15.795
  435MPD2    C4 6522   3.084   1.983  15.665
  435MPD2    C5 6523   3.008   2.030  15.562
  435MPD2     H 6524   2.889   2.053  15.917
  435MPD2    H1 6525   3.179   1.939  15.638
  435MPD2    H2 6526   2.819   2.109  15.501
  435MPD2    H3 6527   3.038   2.020  15.459
  435MPD2     N 6528   3.127   1.966  15.912
  435MPD2    H5 6529   3.076   1.972  16.000
  435MPD2    N1 6530   2.699   2.102  15.746
  435MPD2    H7 6531   2.685   2.120  15.844
  436TMC3    C1 6532   2.382   2.250  15.949
  436TMC3    C2 6533   2.495   2.222  15.876
  436TMC3    C3 6534   2.481   2.166  15.753
  436TMC3    C4 6535   2.259   2.225  15.893
  436TMC3    C5 6536   2.247   2.182  15.762
  436TMC3    C6 6537   2.361   2.147  15.689
  436TMC3     C 6538   2.410   2.297  16.084
  436TMC3     O 6539   2.523   2.333  16.107
  436TMC3     H 6540   2.594   2.243  15.916
  436TMC3    H1 6541   2.166   2.260  15.935
  436TMC3    H2 6542   2.354   2.113  15.586
  436TMC3    C7 6543   2.124   2.142  15.705
  436TMC3    C8 6544   2.592   2.131  15.665
  436TMC3    O1 6545   2.124   2.099  15.590
  436TMC3    O2 6546   2.584   2.128  15.545
  437TMC3    C1 6547   1.526   4.051  12.765
  437TMC3    C2 6548   1.402   4.113  12.795
  437TMC3    C3 6549   1.338   4.174  12.697
  437TMC3    C4 6550   1.583   4.066  12.638
  437TMC3    C5 6551   1.522   4.140  12.544
  437TMC3    C6 6552   1.397   4.194  12.572
  437TMC3     C 6553   1.630   4.071  12.863
  437TMC3     O 6554   1.728   4.128  12.814
  437TMC3     H 6555   1.359   4.103  12.894
  437TMC3    H1 6556   1.662   3.997  12.609
  437TMC3    H2 6557   1.357   4.256  12.492
  437TMC3    C7 6558   1.619   4.228  12.479
  437TMC3    C8 6559   1.221   4.263  12.720
  437TMC3    O1 6560   1.580   4.289  12.377
  437TMC3    O2 6561   1.183   4.326  12.624
  438MPD2     C 6562   3.950   0.262  17.254
  438MPD2    C1 6563   4.022   0.155  17.299
  438MPD2    C2 6564   4.000   0.103  17.427
  438MPD2    C3 6565   3.909   0.154  17.512
  438MPD2    C4 6566   3.835   0.258  17.463
  438MPD2    C5 6567   3.853   0.304  17.332
  438MPD2     H 6568   4.053   0.010  17.447
  438MPD2    H1 6569   3.751   0.297  17.521
  438MPD2    H2 6570   3.966   0.313  17.159
  438MPD2    H3 6571   3.784   0.378  17.293
  438MPD2     N 6572   3.884   0.101  17.640
  438MPD2    H5 6573   3.827   0.160  17.700
  438MPD2    N1 6574   4.112   0.090  17.216
  438MPD2    H7 6575   4.186   0.043  17.267
  439TMC3    C1 6576   4.221   0.030  17.009
  439TMC3    C2 6577   4.188   4.755  16.885
  439TMC3    C3 6578   4.266   4.642  16.850
  439TMC3    C4 6579   4.316   4.757  17.091
  439TMC3    C5 6580   4.379   4.644  17.053
  439TMC3    C6 6581   4.355   4.580  16.932
  439TMC3     C 6582   4.114   0.106  17.078
  439TMC3     O 6583   4.033   0.163  17.003
  439TMC3     H 6584   4.118   0.021  16.817
  439TMC3    H1 6585   4.356   0.019  17.181
  439TMC3    H2 6586   4.416   4.493  16.910
  439TMC3    C7 6587   4.460   4.570  17.143
  439TMC3    C8 6588   4.286   4.597  16.714
  439TMC3    O1 6589   4.533   4.638  17.215
  439TMC3    O2 6590   4.377   4.522  16.692
  440MPD2     C 6591   2.600   0.277  15.298
  440MPD2    C1 6592   2.680   0.387  15.319
  440MPD2    C2 6593   2.811   0.357  15.363
  440MPD2    C3 6594   2.856   0.226  15.373
  440MPD2    C4 6595   2.772   0.121  15.347
  440MPD2    C5 6596   2.644   0.149  15.316
  440MPD2     H 6597   2.888   0.432  15.381
  440MPD2    H1 6598   2.801   0.019  15.371
  440MPD2    H2 6599   2.496   0.290  15.267
  440MPD2    H3 6600   2.575   0.065  15.310
  440MPD2     N 6601   2.982   0.187  15.425
  440MPD2    H5 6602   3.008   0.089  15.422
  440MPD2    N1 6603   2.647   0.522  15.314
  440MPD2    H7 6604   2.724   0.581  15.340
  441TMC3    C1 6605   3.183   0.198  15.535
  441TMC3    C2 6606   3.286   0.275  15.566
  441TMC3    C3 6607   3.350   0.266  15.689
  441TMC3    C4 6608   3.133   0.109  15.625
  441TMC3    C5 6609   3.199   0.101  15.744
  441TMC3    C6 6610   3.310   0.173  15.776
  441TMC3     C 6611   3.081   0.272  15.465
  441TMC3     O 6612   3.086   0.393  15.483
  441TMC3     H 6613   3.308   0.349  15.490
  441TMC3    H1 6614   3.032   0.072  15.611
  441TMC3    H2 6615   3.357   0.175  15.873
  441TMC3    C7 6616   3.148   0.001  15.834
  441TMC3    C8 6617   3.394   0.392  15.747
  441TMC3    O1 6618   3.046   4.727  15.800
  441TMC3    O2 6619   3.463   0.398  15.850
  442MPD2     C 6620   1.015   0.919  16.894
  442MPD2    C1 6621   0.887   0.928  16.839
  442MPD2    C2 6622   0.846   0.817  16.767
  442MPD2    C3 6623   0.930   0.715  16.736
  442MPD2    C4 6624   1.058   0.707  16.793
  442MPD2    C5 6625   1.096   0.813  16.874
  442MPD2     H 6626   0.748   0.825  16.720
  442MPD2    H1 6627   1.133   0.630  16.780
  442MPD2    H2 6628   1.065   1.005  16.939
  442MPD2    H3 6629   1.190   0.819  16.927
  442MPD2     N 6630   0.907   0.607  16.644
  442MPD2    H5 6631   0.990   0.557  16.613
  442MPD2    N1 6632   0.804   1.043  16.855
  442MPD2    H7 6633   0.721   1.043  16.796
  443TMC3    C1 6634   0.735   1.257  16.913
  443TMC3    C2 6635   0.684   1.276  16.788
  443TMC3    C3 6636   0.570   1.347  16.760
  443TMC3    C4 6637   0.663   1.299  17.023
  443TMC3    C5 6638   0.548   1.366  16.994
  443TMC3    C6 6639   0.500   1.401  16.868
  443TMC3     C 6640   0.832   1.146  16.936
  443TMC3     O 6641   0.898   1.149  17.040
  443TMC3     H 6642   0.754   1.252  16.708
  443TMC3    H1 6643   0.698   1.265  17.120
  443TMC3    H2 6644   0.402   1.443  16.852
  443TMC3    C7 6645   0.443   1.344  17.089
  443TMC3    C8 6646   0.503   1.309  16.632
  443TMC3    O1 6647   0.443   1.229  17.142
  443TMC3    O2 6648   0.576   1.264  16.547
  444MPD2     C 6649   1.300   0.440  17.406
  444MPD2    C1 6650   1.196   0.367  17.352
  444MPD2    C2 6651   1.225   0.258  17.273
  444MPD2    C3 6652   1.351   0.240  17.211
  444MPD2    C4 6653   1.454   0.326  17.258
  444MPD2    C5 6654   1.427   0.418  17.357
  444MPD2     H 6655   1.142   0.199  17.237
  444MPD2    H1 6656   1.557   0.315  17.228
  444MPD2    H2 6657   1.288   0.515  17.483
  444MPD2    H3 6658   1.507   0.475  17.404
  444MPD2     N 6659   1.362   0.139  17.115
  444MPD2    H5 6660   1.277   0.085  17.105
  444MPD2    N1 6661   1.064   0.385  17.396
  444MPD2    H7 6662   0.996   0.316  17.366
  445TMC3    C1 6663   1.455   4.773  16.961
  445TMC3    C2 6664   1.331   4.733  16.914
  445TMC3    C3 6665   1.329   4.644  16.815
  445TMC3    C4 6666   1.569   4.713  16.916
  445TMC3    C5 6667   1.564   4.607  16.838
  445TMC3    C6 6668   1.443   4.579  16.777
  445TMC3     C 6669   1.472   0.104  17.048
  445TMC3     O 6670   1.585   0.152  17.048
  445TMC3     H 6671   1.236   4.768  16.954
  445TMC3    H1 6672   1.662   4.737  16.967
  445TMC3    H2 6673   1.439   4.516  16.689
  445TMC3    C7 6674   1.681   4.526  16.811
  445TMC3    C8 6675   1.201   4.610  16.750
  445TMC3    O1 6676   1.789   4.575  16.842
  445TMC3    O2 6677   1.107   4.685  16.767
  446MPD2     C 6678   0.290   1.488  11.918
  446MPD2    C1 6679   0.243   1.590  11.848
  446MPD2    C2 6680   0.341   1.676  11.791
  446MPD2    C3 6681   0.473   1.673  11.825
  446MPD2    C4 6682   0.514   1.564  11.906
  446MPD2    C5 6683   0.421   1.480  11.950
  446MPD2     H 6684   0.310   1.763  11.733
  446MPD2    H1 6685   0.618   1.546  11.931
  446MPD2    H2 6686   0.215   1.417  11.953
  446MPD2    H3 6687   0.450   1.396  12.011
  446MPD2     N 6688   0.565   1.765  11.770
  446MPD2    H5 6689   0.517   1.824  11.702
  446MPD2    N1 6690   0.103   1.606  11.807
  446MPD2    H7 6691   0.073   1.680  11.744
  447TMC3    C1 6692   0.782   1.869  11.725
  447TMC3    C2 6693   0.765   1.854  11.585
  447TMC3    C3 6694   0.878   1.823  11.504
  447TMC3    C4 6695   0.905   1.862  11.772
  447TMC3    C5 6696   1.015   1.841  11.694
  447TMC3    C6 6697   0.996   1.812  11.561
  447TMC3     C 6698   0.699   1.775  11.800
  447TMC3     O 6699   0.760   1.715  11.890
  447TMC3     H 6700   0.666   1.862  11.540
  447TMC3    H1 6701   0.916   1.872  11.880
  447TMC3    H2 6702   1.085   1.773  11.513
  447TMC3    C7 6703   1.129   1.780  11.762
  447TMC3    C8 6704   0.865   1.852  11.364
  447TMC3    O1 6705   1.167   1.678  11.698
  447TMC3    O2 6706   0.752   1.862  11.318
  448TMC3    C1 6707   3.940   1.737  17.161
  448TMC3    C2 6708   3.929   1.612  17.119
  448TMC3    C3 6709   3.944   1.513  17.219
  448TMC3    C4 6710   3.978   1.766  17.291
  448TMC3    C5 6711   3.995   1.662  17.379
  448TMC3    C6 6712   3.985   1.537  17.346
  448TMC3     C 6713   3.854   1.831  17.086
  448TMC3     O 6714   3.784   1.786  16.998
  448TMC3     H 6715   3.899   1.592  17.017
  448TMC3    H1 6716   4.000   1.867  17.322
  448TMC3    H2 6717   3.979   1.453  17.415
  448TMC3    C7 6718   4.062   1.700  17.505
  448TMC3    C8 6719   3.888   1.381  17.193
  448TMC3    O1 6720   4.106   1.813  17.507
  448TMC3    O2 6721   3.947   1.291  17.251
  449MPD2     C 6722   0.740   4.504  14.283
  449MPD2    C1 6723   0.621   4.555  14.232
  449MPD2    C2 6724   0.504   4.512  14.286
  449MPD2    C3 6725   0.509   4.418  14.385
  449MPD2    C4 6726   0.626   4.367  14.443
  449MPD2    C5 6727   0.742   4.409  14.385
  449MPD2     H 6728   0.404   4.536  14.251
  449MPD2    H1 6729   0.636   4.296  14.524
  449MPD2    H2 6730   0.833   4.536  14.239
  449MPD2    H3 6731   0.834   4.359  14.408
  449MPD2     N 6732   0.380   4.368  14.424
  449MPD2    H5 6733   0.306   4.403  14.364
  449MPD2    N1 6734   0.611   4.651  14.128
  449MPD2    H7 6735   0.521   4.674  14.089
  450TMC3    C1 6736   0.656   4.752  13.927
  450TMC3    C2 6737   0.674   4.690  13.812
  450TMC3    C3 6738   0.563   4.684  13.727
  450TMC3    C4 6739   0.536   0.035  13.963
  450TMC3    C5 6740   0.429   0.020  13.873
  450TMC3    C6 6741   0.441   4.731  13.758
  450TMC3     C 6742   0.713   4.675  14.038
  450TMC3     O 6743   0.827   4.628  14.025
  450TMC3     H 6744   0.770   4.639  13.805
  450TMC3    H1 6745   0.528   0.091  14.056
  450TMC3    H2 6746   0.358   4.712  13.691
  450TMC3    C7 6747   0.320   4.765  13.957
  450TMC3    C8 6748   0.554   4.554  13.651
  450TMC3    O1 6749   0.355   4.746  14.074
  450TMC3    O2 6750   0.444   4.503  13.635
  451MPD2     C 6751   2.144   3.471  19.702
  451MPD2    C1 6752   2.119   3.496  19.565
  451MPD2    C2 6753   2.194   3.432  19.468
  451MPD2    C3 6754   2.301   3.360  19.505
  451MPD2    C4 6755   2.334   3.351  19.643
  451MPD2    C5 6756   2.252   3.399  19.741
  451MPD2     H 6757   2.164   3.444  19.365
  451MPD2    H1 6758   2.418   3.296  19.684
  451MPD2    H2 6759   2.083   3.515  19.780
  451MPD2    H3 6760   2.272   3.398  19.847
  451MPD2     N 6761   2.377   3.289  19.409
  451MPD2    H5 6762   2.452   3.231  19.445
  451MPD2    N1 6763   1.999   3.579  19.539
  451MPD2    H7 6764   1.938   3.598  19.618
  452TMC3    C1 6765   2.451   3.184  19.213
  452TMC3    C2 6766   2.418   3.060  19.261
  452TMC3    C3 6767   2.430   2.954  19.175
  452TMC3    C4 6768   2.500   3.211  19.092
  452TMC3    C5 6769   2.516   3.109  19.007
  452TMC3    C6 6770   2.483   2.980  19.049
  452TMC3     C 6771   2.369   3.293  19.267
  452TMC3     O 6772   2.294   3.347  19.187
  452TMC3     H 6773   2.353   3.047  19.347
  452TMC3    H1 6774   2.517   3.312  19.060
  452TMC3    H2 6775   2.496   2.897  18.980
  452TMC3    C7 6776   2.441   3.143  18.893
  452TMC3    C8 6777   2.306   2.871  19.160
  452TMC3    O1 6778   2.482   3.242  18.830
  452TMC3    O2 6779   2.268   2.856  19.045
  453TMC3    C1 6780   2.626   0.890  12.303
  453TMC3    C2 6781   2.589   0.761  12.285
  453TMC3    C3 6782   2.552   0.716  12.161
  453TMC3    C4 6783   2.624   0.975  12.193
  453TMC3    C5 6784   2.591   0.925  12.073
  453TMC3    C6 6785   2.531   0.801  12.049
  453TMC3     C 6786   2.744   0.911  12.387
  453TMC3     O 6787   2.837   0.966  12.325
  453TMC3     H 6788   2.602   0.691  12.366
  453TMC3    H1 6789   2.640   1.082  12.206
  453TMC3    H2 6790   2.492   0.764  11.955
  453TMC3    C7 6791   2.642   0.996  11.958
  453TMC3    C8 6792   2.552   0.578  12.117
  453TMC3    O1 6793   2.579   1.020  11.853
  453TMC3    O2 6794   2.522   0.557  12.001
  454MPD2     C 6795   2.038   4.766  16.468
  454MPD2    C1 6796   1.966   0.054  16.377
  454MPD2    C2 6797   1.911   0.169  16.415
  454MPD2    C3 6798   1.918   0.224  16.541
  454MPD2    C4 6799   2.003   0.154  16.627
  454MPD2    C5 6800   2.053   0.028  16.593
  454MPD2     H 6801   1.842   0.219  16.348
  454MPD2    H1 6802   2.016   0.199  16.725
  454MPD2    H2 6803   2.072   4.664  16.450
  454MPD2    H3 6804   2.109   4.744  16.657
  454MPD2     N 6805   1.855   0.340  16.596
  454MPD2    H5 6806   1.863   0.358  16.695
  454MPD2    N1 6807   1.910   0.005  16.252
  454MPD2    H7 6808   1.839   0.070  16.220
  455TMC3    C1 6809   1.667   0.483  16.569
  455TMC3    C2 6810   1.666   0.513  16.706
  455TMC3    C3 6811   1.562   0.476  16.783
  455TMC3    C4 6812   1.569   0.394  16.527
  455TMC3    C5 6813   1.475   0.344  16.612
  455TMC3    C6 6814   1.464   0.389  16.741
  455TMC3     C 6815   1.796   0.434  16.516
  455TMC3     O 6816   1.813   0.457  16.396
  455TMC3     H 6817   1.740   0.579  16.750
  455TMC3    H1 6818   1.558   0.354  16.427
  455TMC3    H2 6819   1.397   0.340  16.810
  455TMC3    C7 6820   1.443   0.207  16.584
  455TMC3    C8 6821   1.549   0.532  16.916
  455TMC3    O1 6822   1.326   0.172  16.585
  455TMC3    O2 6823   1.646   0.578  16.963
  456MPD2     C 6824   4.041   0.195  16.336
  456MPD2    C1 6825   4.148   0.213  16.418
  456MPD2    C2 6826   4.130   0.292  16.529
  456MPD2    C3 6827   4.014   0.346  16.560
  456MPD2    C4 6828   3.906   0.324  16.485
  456MPD2    C5 6829   3.920   0.246  16.372
  456MPD2     H 6830   4.215   0.319  16.591
  456MPD2    H1 6831   3.805   0.352  16.514
  456MPD2    H2 6832   4.039   0.128  16.251
  456MPD2    H3 6833   3.834   0.212  16.315
  456MPD2     N 6834   4.006   0.411  16.690
  456MPD2    H5 6835   4.082   0.391  16.755
  456MPD2    N1 6836   4.258   0.135  16.391
  456MPD2    H7 6837   4.265   0.101  16.296
  457TMC3    C1 6838   3.909   0.523  16.879
  457TMC3    C2 6839   3.838   0.644  16.909
  457TMC3    C3 6840   3.876   0.719  17.016
  457TMC3    C4 6841   4.011   0.483  16.960
  457TMC3    C5 6842   4.036   0.552  17.068
  457TMC3    C6 6843   3.970   0.672  17.103
  457TMC3     C 6844   3.900   0.476  16.746
  457TMC3     O 6845   3.792   0.494  16.690
  457TMC3     H 6846   3.766   0.681  16.837
  457TMC3    H1 6847   4.066   0.393  16.935
  457TMC3    H2 6848   4.002   0.735  17.185
  457TMC3    C7 6849   4.145   0.502  17.152
  457TMC3    C8 6850   3.852   0.858  17.032
  457TMC3    O1 6851   4.225   0.429  17.106
  457TMC3    O2 6852   3.942   0.919  17.087
  458MPD2     C 6853   2.070   4.456  12.492
  458MPD2    C1 6854   2.058   4.389  12.608
  458MPD2    C2 6855   1.936   4.324  12.633
  458MPD2    C3 6856   1.839   4.320  12.527
  458MPD2    C4 6857   1.852   4.394  12.411
  458MPD2    C5 6858   1.972   4.467  12.395
  458MPD2     H 6859   1.910   4.277  12.727
  458MPD2    H1 6860   1.784   4.387  12.327
  458MPD2    H2 6861   2.161   4.513  12.477
  458MPD2    H3 6862   1.990   4.528  12.307
  458MPD2     N 6863   1.739   4.229  12.554
  458MPD2    H5 6864   1.735   4.164  12.631
  458MPD2    N1 6865   2.156   4.418  12.700
  458MPD2    H7 6866   2.245   4.443  12.659
  459TMC3    C1 6867   2.276   4.400  12.909
  459TMC3    C2 6868   2.362   4.497  12.862
  459TMC3    C3 6869   2.472   4.517  12.939
  459TMC3    C4 6870   2.279   4.347  13.031
  459TMC3    C5 6871   2.384   4.389  13.114
  459TMC3    C6 6872   2.486   4.465  13.068
  459TMC3     C 6873   2.158   4.361  12.825
  459TMC3     O 6874   2.073   4.295  12.880
  459TMC3     H 6875   2.354   4.527  12.758
  459TMC3    H1 6876   2.214   4.263  13.054
  459TMC3    H2 6877   2.570   4.491  13.131
  459TMC3    C7 6878   2.376   4.337  13.247
  459TMC3    C8 6879   2.564   4.627  12.901
  459TMC3    O1 6880   2.284   4.253  13.260
  459TMC3    O2 6881   2.672   4.635  12.952
  460MPD2     C 6882   1.140   1.855  11.123
  460MPD2    C1 6883   1.014   1.884  11.168
  460MPD2    C2 6884   0.929   1.956  11.092
  460MPD2    C3 6885   0.977   2.005  10.975
  460MPD2    C4 6886   1.106   1.994  10.937
  460MPD2    C5 6887   1.189   1.914  11.012
  460MPD2     H 6888   0.829   1.973  11.128
  460MPD2    H1 6889   1.145   2.038  10.846
  460MPD2    H2 6890   1.218   1.797  11.170
  460MPD2    H3 6891   1.293   1.900  10.985
  460MPD2     N 6892   0.881   2.071  10.892
  460MPD2    H5 6893   0.782   2.049  10.899
  460MPD2    N1 6894   0.990   1.838  11.301
  460MPD2    H7 6895   1.072   1.790  11.337
  461TMC3    C1 6896   0.809   2.193  10.709
  461TMC3    C2 6897   0.741   2.083  10.660
  461TMC3    C3 6898   0.630   2.115  10.582
  461TMC3    C4 6899   0.782   2.320  10.682
  461TMC3    C5 6900   0.679   2.342  10.601
  461TMC3    C6 6901   0.602   2.244  10.550
  461TMC3     C 6902   0.914   2.167  10.797
  461TMC3     O 6903   1.010   2.241  10.778
  461TMC3     H 6904   0.777   1.982  10.676
  461TMC3    H1 6905   0.837   2.394  10.740
  461TMC3    H2 6906   0.506   2.261  10.502
  461TMC3    C7 6907   0.645   2.471  10.547
  461TMC3    C8 6908   0.605   2.010  10.481
  461TMC3    O1 6909   0.540   2.470  10.480
  461TMC3    O2 6910   0.709   1.945  10.452
  462TMC3    C1 6911   1.167   3.504  18.295
  462TMC3    C2 6912   1.250   3.487  18.182
  462TMC3    C3 6913   1.278   3.359  18.144
  462TMC3    C4 6914   1.087   3.402  18.335
  462TMC3    C5 6915   1.124   3.269  18.296
  462TMC3    C6 6916   1.232   3.252  18.211
  462TMC3     C 6917   1.129   3.637  18.331
  462TMC3     O 6918   1.012   3.655  18.358
  462TMC3     H 6919   1.300   3.571  18.135
  462TMC3    H1 6920   1.018   3.416  18.417
  462TMC3    H2 6921   1.241   3.151  18.173
  462TMC3    C7 6922   1.045   3.155  18.335
  462TMC3    C8 6923   1.336   3.339  18.014
  462TMC3    O1 6924   1.095   3.042  18.329
  462TMC3    O2 6925   1.339   3.433  17.937
  463MPD2     C 6926   2.061   2.033  20.134
  463MPD2    C1 6927   2.041   2.069  20.001
  463MPD2    C2 6928   2.116   2.172  19.941
  463MPD2    C3 6929   2.201   2.246  20.024
  463MPD2    C4 6930   2.205   2.219  20.157
  463MPD2    C5 6931   2.139   2.111  20.214
  463MPD2     H 6932   2.094   2.190  19.837
  463MPD2    H1 6933   2.280   2.264  20.222
  463MPD2    H2 6934   2.025   1.940  20.176
  463MPD2    H3 6935   2.161   2.074  20.314
  463MPD2     N 6936   2.289   2.349  19.975
  463MPD2    H5 6937   2.346   2.395  20.046
  463MPD2    N1 6938   1.965   1.985  19.914
  463MPD2    H7 6939   1.945   2.034  19.828
  464TMC3    C1 6940   1.805   1.824  19.841
  464TMC3    C2 6941   1.783   1.888  19.723
  464TMC3    C3 6942   1.687   1.837  19.641
  464TMC3    C4 6943   1.749   1.703  19.874
  464TMC3    C5 6944   1.660   1.648  19.783
  464TMC3    C6 6945   1.634   1.714  19.661
  464TMC3     C 6946   1.872   1.890  19.952
  464TMC3     O 6947   1.845   1.856  20.071
  464TMC3     H 6948   1.812   1.991  19.705
  464TMC3    H1 6949   1.783   1.639  19.954
  464TMC3    H2 6950   1.561   1.673  19.593
  464TMC3    C7 6951   1.713   1.520  19.755
  464TMC3    C8 6952   1.718   1.846  19.500
  464TMC3    O1 6953   1.825   1.487  19.795
  464TMC3    O2 6954   1.626   1.833  19.423
  465MPD2     C 6955   3.550   0.855  17.355
  465MPD2    C1 6956   3.570   0.719  17.371
  465MPD2    C2 6957   3.558   0.645  17.254
  465MPD2    C3 6958   3.528   0.697  17.130
  465MPD2    C4 6959   3.497   0.825  17.124
  465MPD2    C5 6960   3.508   0.905  17.235
  465MPD2     H 6961   3.571   0.538  17.248
  465MPD2    H1 6962   3.462   0.874  17.034
  465MPD2    H2 6963   3.561   0.921  17.440
  465MPD2    H3 6964   3.496   1.012  17.232
  465MPD2     N 6965   3.504   0.612  17.022
  465MPD2    H5 6966   3.484   0.517  17.050
  465MPD2    N1 6967   3.582   0.653  17.498
  465MPD2    H7 6968   3.575   0.552  17.500
  466TMC3    C1 6969   3.265   0.390  16.785
  466TMC3    C2 6970   3.227   0.448  16.662
  466TMC3    C3 6971   3.309   0.548  16.608
  466TMC3    C4 6972   3.370   0.449  16.852
  466TMC3    C5 6973   3.435   0.558  16.804
  466TMC3    C6 6974   3.411   0.602  16.675
  466TMC3     C 6975   3.172   0.322  16.863
  466TMC3     O 6976   3.207   0.302  16.982
  466TMC3     H 6977   3.137   0.418  16.610
  466TMC3    H1 6978   3.392   0.400  16.946
  466TMC3    H2 6979   3.459   0.691  16.635
  466TMC3    C7 6980   3.499   0.653  16.891
  466TMC3    C8 6981   3.245   0.656  16.540
  466TMC3    O1 6982   3.539   0.755  16.839
  466TMC3    O2 6983   3.274   0.667  16.421
  467TMC3    C1 6984   4.110   3.716  14.309
  467TMC3    C2 6985   4.047   3.796  14.216
  467TMC3    C3 6986   3.912   3.768  14.194
  467TMC3    C4 6987   4.035   3.631  14.387
  467TMC3    C5 6988   3.898   3.629  14.364
  467TMC3    C6 6989   3.832   3.687  14.263
  467TMC3     C 6990   4.251   3.697  14.296
  467TMC3     O 6991   4.312   3.652  14.394
  467TMC3     H 6992   4.095   3.871  14.154
  467TMC3    H1 6993   4.063   3.573  14.474
  467TMC3    H2 6994   3.726   3.678  14.241
  467TMC3    C7 6995   3.831   3.503  14.416
  467TMC3    C8 6996   3.878   3.800  14.056
  467TMC3    O1 6997   3.906   3.412  14.446
  467TMC3    O2 6998   3.876   3.919  14.029
  468MPD2     C 6999   2.528   2.489  11.118
  468MPD2    C1 7000   2.651   2.426  11.130
  468MPD2    C2 7001   2.666   2.298  11.085
  468MPD2    C3 7002   2.554   2.230  11.040
  468MPD2    C4 7003   2.427   2.288  11.041
  468MPD2    C5 7004   2.422   2.422  11.066
  468MPD2     H 7005   2.765   2.254  11.092
  468MPD2    H1 7006   2.333   2.241  11.014
  468MPD2    H2 7007   2.519   2.593  11.146
  468MPD2    H3 7008   2.332   2.483  11.059
  468MPD2     N 7009   2.563   2.100  10.988
  468MPD2    H5 7010   2.475   2.056  10.963
  468MPD2    N1 7011   2.762   2.480  11.194
  468MPD2    H7 7012   2.848   2.427  11.195
  469TMC3    C1 7013   2.895   2.626  11.323
  469TMC3    C2 7014   3.006   2.544  11.299
  469TMC3    C3 7015   3.117   2.570  11.374
  469TMC3    C4 7016   2.897   2.728  11.417
  469TMC3    C5 7017   3.006   2.754  11.495
  469TMC3    C6 7018   3.114   2.668  11.476
  469TMC3     C 7019   2.767   2.605  11.253
  469TMC3     O 7020   2.680   2.691  11.265
  469TMC3     H 7021   3.009   2.467  11.223
  469TMC3    H1 7022   2.812   2.794  11.424
  469TMC3    H2 7023   3.208   2.700  11.520
  469TMC3    C7 7024   3.012   2.872  11.588
  469TMC3    C8 7025   3.218   2.465  11.368
  469TMC3    O1 7026   2.917   2.948  11.578
  469TMC3    O2 7027   3.183   2.374  11.297
  470TMC3    C1 7028   0.445   2.641  18.841
  470TMC3    C2 7029   0.534   2.711  18.768
  470TMC3    C3 7030   0.657   2.751  18.812
  470TMC3    C4 7031   0.464   2.628  18.983
  470TMC3    C5 7032   0.578   2.671  19.030
  470TMC3    C6 7033   0.675   2.733  18.953
  470TMC3     C 7034   0.334   2.582  18.781
  470TMC3     O 7035   0.344   2.544  18.667
  470TMC3     H 7036   0.526   2.719  18.660
  470TMC3    H1 7037   0.396   2.568  19.041
  470TMC3    H2 7038   0.757   2.787  18.998
  470TMC3    C7 7039   0.590   2.718  19.172
  470TMC3    C8 7040   0.677   2.891  18.792
  470TMC3    O1 7041   0.705   2.741  19.213
  470TMC3    O2 7042   0.584   2.972  18.815
  471MPD2     C 7043   0.846   4.224  17.123
  471MPD2    C1 7044   0.955   4.146  17.090
  471MPD2    C2 7045   1.065   4.139  17.182
  471MPD2    C3 7046   1.043   4.186  17.312
  471MPD2    C4 7047   0.928   4.250  17.345
  471MPD2    C5 7048   0.829   4.275  17.250
  471MPD2     H 7049   1.158   4.090  17.157
  471MPD2    H1 7050   0.919   4.295  17.443
  471MPD2    H2 7051   0.774   4.263  17.052
  471MPD2    H3 7052   0.736   4.328  17.265
  471MPD2     N 7053   1.140   4.157  17.413
  471MPD2    H5 7054   1.117   4.185  17.507
  471MPD2    N1 7055   0.969   4.084  16.959
  471MPD2    H7 7056   1.055   4.037  16.932
  472TMC3    C1 7057   0.903   4.009  16.745
  472TMC3    C2 7058   0.846   4.052  16.626
  472TMC3    C3 7059   0.877   3.984  16.506
  472TMC3    C4 7060   0.985   3.902  16.743
  472TMC3    C5 7061   1.000   3.824  16.628
  472TMC3    C6 7062   0.953   3.866  16.507
  472TMC3     C 7063   0.865   4.072  16.874
  472TMC3     O 7064   0.749   4.111  16.877
  472TMC3     H 7065   0.778   4.137  16.626
  472TMC3    H1 7066   1.025   3.870  16.839
  472TMC3    H2 7067   0.959   3.815  16.411
  472TMC3    C7 7068   0.988   3.681  16.661
  472TMC3    C8 7069   0.751   3.972  16.436
  472TMC3    O1 7070   1.009   3.653  16.779
  472TMC3    O2 7071   0.743   4.020  16.321
  473MPD2     C 7072   1.026   1.077  14.244
  473MPD2    C1 7073   0.932   1.179  14.220
  473MPD2    C2 7074   0.953   1.298  14.286
  473MPD2    C3 7075   1.053   1.319  14.379
  473MPD2    C4 7076   1.143   1.217  14.399
  473MPD2    C5 7077   1.131   1.098  14.323
  473MPD2     H 7078   0.888   1.382  14.265
  473MPD2    H1 7079   1.224   1.222  14.471
  473MPD2    H2 7080   1.015   0.980  14.197
  473MPD2    H3 7081   1.204   1.019  14.337
  473MPD2     N 7082   1.077   1.436  14.450
  473MPD2    H5 7083   1.142   1.431  14.528
  473MPD2    N1 7084   0.811   1.169  14.139
  473MPD2    H7 7085   0.743   1.244  14.147
  474TMC3    C1 7086   1.048   1.664  14.503
  474TMC3    C2 7087   0.956   1.753  14.545
  474TMC3    C3 7088   0.995   1.872  14.591
  474TMC3    C4 7089   1.189   1.699  14.495
  474TMC3    C5 7090   1.219   1.820  14.539
  474TMC3    C6 7091   1.128   1.915  14.592
  474TMC3     C 7092   0.999   1.544  14.433
  474TMC3     O 7093   0.885   1.560  14.394
  474TMC3     H 7094   0.850   1.731  14.536
  474TMC3    H1 7095   1.273   1.633  14.478
  474TMC3    H2 7096   1.165   2.004  14.642
  474TMC3    C7 7097   1.362   1.847  14.567
  474TMC3    C8 7098   0.890   1.959  14.637
  474TMC3    O1 7099   1.448   1.820  14.480
  474TMC3    O2 7100   0.782   1.907  14.670
  475MPD2     C 7101   4.114   4.360  11.103
  475MPD2    C1 7102   4.133   4.458  11.010
  475MPD2    C2 7103   4.060   4.577  11.023
  475MPD2    C3 7104   3.981   4.612  11.134
  475MPD2    C4 7105   3.971   4.514  11.233
  475MPD2    C5 7106   4.035   4.388  11.214
  475MPD2     H 7107   4.061   4.650  10.943
  475MPD2    H1 7108   3.915   4.521  11.325
  475MPD2    H2 7109   4.157   4.261  11.094
  475MPD2    H3 7110   4.031   4.317  11.296
  475MPD2     N 7111   3.926   4.740  11.143
  475MPD2    H5 7112   3.950   0.022  11.068
  475MPD2    N1 7113   4.227   4.424  10.909
  475MPD2    H7 7114   4.224   4.325  10.890
  476TMC3    C1 7115   4.312   4.647  10.853
  476TMC3    C2 7116   4.258   4.746  10.774
  476TMC3    C3 7117   4.220   0.084  10.829
  476TMC3    C4 7118   4.358   4.671  10.981
  476TMC3    C5 7119   4.331   0.013  11.035
  476TMC3    C6 7120   4.268   0.110  10.954
  476TMC3     C 7121   4.280   4.511  10.815
  476TMC3     O 7122   4.330   4.480  10.707
  476TMC3     H 7123   4.230   4.715  10.674
  476TMC3    H1 7124   4.400   4.589  11.038
  476TMC3    H2 7125   4.246   0.207  10.997
  476TMC3    C7 7126   4.289   0.002  11.172
  476TMC3    C8 7127   4.077   0.105  10.836
  476TMC3    O1 7128   4.305   4.669  11.219
  476TMC3    O2 7129   4.042   0.142  10.944
  477MPD2     C 7130   1.587   1.222  11.887
  477MPD2    C1 7131   1.539   1.261  12.007
  477MPD2    C2 7132   1.613   1.226  12.125
  477MPD2    C3 7133   1.733   1.158  12.113
  477MPD2    C4 7134   1.768   1.106  11.987
  477MPD2    C5 7135   1.698   1.142  11.873
  477MPD2     H 7136   1.584   1.265  12.222
  477MPD2    H1 7137   1.858   1.046  11.981
  477MPD2    H2 7138   1.537   1.251  11.795
  477MPD2    H3 7139   1.732   1.114  11.775
  477MPD2     N 7140   1.803   1.117  12.233
  477MPD2    H5 7141   1.762   1.133  12.325
  477MPD2    N1 7142   1.410   1.323  12.013
  477MPD2    H7 7143   1.360   1.340  11.926
  478TMC3    C1 7144   1.220   1.416  12.103
  478TMC3    C2 7145   1.182   1.526  12.178
  478TMC3    C3 7146   1.063   1.578  12.135
  478TMC3    C4 7147   1.142   1.359  12.003
  478TMC3    C5 7148   1.024   1.416  11.967
  478TMC3    C6 7149   0.984   1.533  12.033
  478TMC3     C 7150   1.347   1.356  12.131
  478TMC3     O 7151   1.389   1.352  12.248
  478TMC3     H 7152   1.242   1.559  12.261
  478TMC3    H1 7153   1.187   1.277  11.949
  478TMC3    H2 7154   0.892   1.582  12.001
  478TMC3    C7 7155   0.975   1.368  11.844
  478TMC3    C8 7156   1.011   1.684  12.221
  478TMC3    O1 7157   1.013   1.253  11.812
  478TMC3    O2 7158   1.092   1.708  12.312
  479MPD2     C 7159   0.446   3.223  15.491
  479MPD2    C1 7160   0.400   3.168  15.606
  479MPD2    C2 7161   0.479   3.161  15.712
  479MPD2    C3 7162   0.609   3.208  15.697
  479MPD2    C4 7163   0.659   3.272  15.579
  479MPD2    C5 7164   0.576   3.282  15.477
  479MPD2     H 7165   0.449   3.109  15.803
  479MPD2    H1 7166   0.751   3.328  15.565
  479MPD2    H2 7167   0.383   3.230  15.403
  479MPD2    H3 7168   0.607   3.323  15.381
  479MPD2     N 7169   0.710   3.201  15.791
  479MPD2    H5 7170   0.800   3.216  15.745
  479MPD2    N1 7171   0.262   3.116  15.613
  479MPD2    H7 7172   0.214   3.096  15.526
  480TMC3    C1 7173   0.472   3.172  16.201
  480TMC3    C2 7174   0.375   3.266  16.168
  480TMC3    C3 7175   0.406   3.346  16.059
  480TMC3    C4 7176   0.574   3.135  16.122
  480TMC3    C5 7177   0.587   3.206  16.005
  480TMC3    C6 7178   0.511   3.312  15.974
  480TMC3     C 7179   0.435   3.062  16.295
  480TMC3     O 7180   0.521   2.997  16.354
  480TMC3     H 7181   0.291   3.291  16.232
  480TMC3    H1 7182   0.635   3.049  16.147
  480TMC3    H2 7183   0.547   3.361  15.884
  480TMC3    C7 7184   0.705   3.167  15.924
  480TMC3    C8 7185   0.297   3.424  16.009
  480TMC3    O1 7186   0.804   3.150  15.995
  480TMC3    O2 7187   0.207   3.453  16.090
  481MPD2     C 7188   2.010   2.972  14.158
  481MPD2    C1 7189   1.911   2.905  14.230
  481MPD2    C2 7190   1.935   2.872  14.364
  481MPD2    C3 7191   2.060   2.896  14.419
  481MPD2    C4 7192   2.164   2.937  14.335
  481MPD2    C5 7193   2.136   2.991  14.214
  481MPD2     H 7194   1.853   2.835  14.424
  481MPD2    H1 7195   2.267   2.954  14.367
  481MPD2    H2 7196   1.986   3.019  14.064
  481MPD2    H3 7197   2.199   3.047  14.147
  481MPD2     N 7198   2.096   2.855  14.546
  481MPD2    H5 7199   2.195   2.864  14.567
  481MPD2    N1 7200   1.780   2.910  14.172
  481MPD2    H7 7201   1.774   2.962  14.085
  482TMC3    C1 7202   1.554   2.835  14.155
  482TMC3    C2 7203   1.486   2.720  14.152
  482TMC3    C3 7204   1.353   2.719  14.148
  482TMC3    C4 7205   1.491   2.957  14.146
  482TMC3    C5 7206   1.354   2.955  14.161
  482TMC3    C6 7207   1.287   2.834  14.146
  482TMC3     C 7208   1.678   2.831  14.222
  482TMC3     O 7209   1.678   2.733  14.299
  482TMC3     H 7210   1.531   2.622  14.163
  482TMC3    H1 7211   1.547   3.048  14.163
  482TMC3    H2 7212   1.180   2.840  14.161
  482TMC3    C7 7213   1.294   3.059  14.086
  482TMC3    C8 7214   1.307   2.619  14.048
  482TMC3    O1 7215   1.172   3.065  14.095
  482TMC3    O2 7216   1.391   2.538  14.013
  483TMC3    C1 7217   4.712   1.732  18.572
  483TMC3    C2 7218   4.749   1.864  18.599
  483TMC3    C3 7219   0.034   1.891  18.720
  483TMC3    C4 7220   4.724   1.632  18.666
  483TMC3    C5 7221   4.775   1.668  18.784
  483TMC3    C6 7222   0.038   1.790  18.814
  483TMC3     C 7223   4.647   1.710  18.451
  483TMC3     O 7224   4.666   1.788  18.357
  483TMC3     H 7225   4.741   1.944  18.527
  483TMC3    H1 7226   4.682   1.534  18.651
  483TMC3    H2 7227   0.091   1.803  18.907
  483TMC3    C7 7228   0.002   1.570  18.890
  483TMC3    C8 7229   0.126   1.996  18.718
  483TMC3    O1 7230   0.071   1.588  18.990
  483TMC3    O2 7231   0.144   2.056  18.611
  484MPD2     C 7232   2.478   0.123  12.674
  484MPD2    C1 7233   2.560   0.046  12.751
  484MPD2    C2 7234   2.697   0.082  12.758
  484MPD2    C3 7235   2.740   0.196  12.696
  484MPD2    C4 7236   2.656   0.278  12.626
  484MPD2    C5 7237   2.528   0.239  12.610
  484MPD2     H 7238   2.773   0.027  12.812
  484MPD2    H1 7239   2.691   0.362  12.566
  484MPD2    H2 7240   2.380   0.089  12.642
  484MPD2    H3 7241   2.443   0.289  12.564
  484MPD2     N 7242   2.875   0.241  12.700
  484MPD2    H5 7243   2.889   0.319  12.637
  484MPD2    N1 7244   2.509   4.713  12.808
  484MPD2    H7 7245   2.411   4.690  12.792
  485TMC3    C1 7246   3.097   0.276  12.757
  485TMC3    C2 7247   3.202   0.260  12.848
  485TMC3    C3 7248   3.320   0.325  12.828
  485TMC3    C4 7249   3.105   0.355  12.647
  485TMC3    C5 7250   3.226   0.421  12.625
  485TMC3    C6 7251   3.323   0.418  12.720
  485TMC3     C 7252   2.981   0.195  12.782
  485TMC3     O 7253   2.980   0.103  12.862
  485TMC3     H 7254   3.190   0.199  12.936
  485TMC3    H1 7255   3.029   0.366  12.570
  485TMC3    H2 7256   3.413   0.475  12.704
  485TMC3    C7 7257   3.283   0.375  12.501
  485TMC3    C8 7258   3.443   0.262  12.857
  485TMC3    O1 7259   3.293   0.250  12.495
  485TMC3    O2 7260   3.548   0.303  12.811
  486MPD2     C 7261   0.282   3.735  13.450
  486MPD2    C1 7262   0.181   3.659  13.386
  486MPD2    C2 7263   0.071   3.730  13.330
  486MPD2    C3 7264   0.066   3.872  13.338
  486MPD2    C4 7265   0.168   3.944  13.404
  486MPD2    C5 7266   0.270   3.867  13.452
  486MPD2     H 7267   4.780   3.667  13.281
  486MPD2    H1 7268   0.165   4.052  13.414
  486MPD2    H2 7269   0.360   3.682  13.503
  486MPD2    H3 7270   0.349   3.924  13.500
  486MPD2     N 7271   4.737   3.931  13.280
  486MPD2    H5 7272   4.673   3.861  13.245
  486MPD2    N1 7273   0.194   3.515  13.401
  486MPD2    H7 7274   0.273   3.486  13.457
  487TMC3    C1 7275   0.136   3.285  13.370
  487TMC3    C2 7276   0.084   3.195  13.279
  487TMC3    C3 7277   0.106   3.065  13.319
  487TMC3    C4 7278   0.191   3.256  13.495
  487TMC3    C5 7279   0.212   3.125  13.528
  487TMC3    C6 7280   0.178   3.034  13.431
  487TMC3     C 7281   0.114   3.425  13.334
  487TMC3     O 7282   0.030   3.447  13.242
  487TMC3     H 7283   0.027   3.227  13.192
  487TMC3    H1 7284   0.215   3.334  13.566
  487TMC3    H2 7285   0.181   2.929  13.461
  487TMC3    C7 7286   0.157   3.104  13.657
  487TMC3    C8 7287   4.771   2.975  13.310
  487TMC3    O1 7288   0.179   3.189  13.739
  487TMC3    O2 7289   4.774   2.872  13.379
  488MPD2     C 7290   0.237   0.322  16.674
  488MPD2    C1 7291   0.255   0.467  16.673
  488MPD2    C2 7292   0.223   0.539  16.792
  488MPD2    C3 7293   0.154   0.488  16.898
  488MPD2    C4 7294   0.130   0.349  16.901
  488MPD2    C5 7295   0.173   0.271  16.788
  488MPD2     H 7296   0.246   0.645  16.798
  488MPD2    H1 7297   0.077   0.290  16.975
  488MPD2    H2 7298   0.263   0.248  16.599
  488MPD2    H3 7299   0.160   0.164  16.800
  488MPD2     N 7300   0.108   0.578  17.000
  488MPD2    H5 7301   0.134   0.677  16.997
  488MPD2    N1 7302   0.306   0.536  16.560
  488MPD2    H7 7303   0.294   0.636  16.564
  489TMC3    C1 7304   0.011   0.664  17.194
  489TMC3    C2 7305   0.002   0.784  17.135
  489TMC3    C3 7306   4.752   0.901  17.200
  489TMC3    C4 7307   4.750   0.653  17.329
  489TMC3    C5 7308   4.721   0.773  17.397
  489TMC3    C6 7309   4.727   0.896  17.337
  489TMC3     C 7310   0.043   0.545  17.116
  489TMC3     O 7311   0.012   0.436  17.158
  489TMC3     H 7312   0.017   0.787  17.028
  489TMC3    H1 7313   4.739   0.556  17.375
  489TMC3    H2 7314   4.723   0.983  17.401
  489TMC3    C7 7315   4.722   0.775  17.546
  489TMC3    C8 7316   0.020   1.024  17.139
  489TMC3    O1 7317   4.679   0.873  17.603
  489TMC3    O2 7318   0.106   1.010  17.049
  490MPD2     C 7319   1.098   0.058  17.735
  490MPD2    C1 7320   1.112   4.773  17.853
  490MPD2    C2 7321   1.186   0.063  17.951
  490MPD2    C3 7322   1.242   0.188  17.927
  490MPD2    C4 7323   1.231   0.245  17.804
  490MPD2    C5 7324   1.160   0.180  17.707
  490MPD2     H 7325   1.195   0.021  18.051
  490MPD2    H1 7326   1.267   0.346  17.784
  490MPD2    H2 7327   1.033   0.020  17.657
  490MPD2    H3 7328   1.145   0.228  17.612
  490MPD2     N 7329   1.309   0.266  18.022
  490MPD2    H5 7330   1.344   0.357  17.993
  490MPD2    N1 7331   1.070   4.641  17.874
  490MPD2    H7 7332   1.098   4.593  17.959
  491TMC3    C1 7333   0.947   4.440  17.828
  491TMC3    C2 7334   0.938   4.398  17.960
  491TMC3    C3 7335   0.863   4.292  18.000
  491TMC3    C4 7336   0.867   4.365  17.731
  491TMC3    C5 7337   0.789   4.268  17.782
  491TMC3    C6 7338   0.776   4.233  17.910
  491TMC3     C 7339   0.999   4.567  17.786
  491TMC3     O 7340   0.978   4.588  17.666
  491TMC3     H 7341   0.994   4.455  18.034
  491TMC3    H1 7342   0.887   4.391  17.627
  491TMC3    H2 7343   0.707   4.158  17.947
  491TMC3    C7 7344   0.666   4.249  17.703
  491TMC3    C8 7345   0.842   4.277  18.147
  491TMC3    O1 7346   0.595   4.146  17.712
  491TMC3    O2 7347   0.852   4.373  18.225
  492MPD2     C 7348   1.361   0.095  11.994
  492MPD2    C1 7349   1.285   0.025  11.905
  492MPD2    C2 7350   1.190   4.707  11.947
  492MPD2    C3 7351   1.185   4.681  12.080
  492MPD2    C4 7352   1.272   4.741  12.169
  492MPD2    C5 7353   1.365   0.056  12.127
  492MPD2     H 7354   1.117   4.660  11.882
  492MPD2    H1 7355   1.279   4.703  12.270
  492MPD2    H2 7356   1.430   0.166  11.950
  492MPD2    H3 7357   1.427   0.111  12.198
  492MPD2     N 7358   1.093   4.588  12.145
  492MPD2    H5 7359   1.110   4.572  12.244
  492MPD2    N1 7360   1.290   0.075  11.773
  492MPD2    H7 7361   1.351   0.155  11.760
  493TMC3    C1 7362   1.246   0.091  11.547
  493TMC3    C2 7363   1.258   0.231  11.547
  493TMC3    C3 7364   1.248   0.302  11.428
  493TMC3    C4 7365   1.219   0.023  11.431
  493TMC3    C5 7366   1.192   0.102  11.327
  493TMC3    C6 7367   1.217   0.239  11.313
  493TMC3     C 7368   1.220   0.020  11.664
  493TMC3     O 7369   1.159   4.701  11.653
  493TMC3     H 7370   1.263   0.288  11.640
  493TMC3    H1 7371   1.212   4.698  11.419
  493TMC3    H2 7372   1.184   0.296  11.226
  493TMC3    C7 7373   1.063   0.057  11.268
  493TMC3    C8 7374   1.248   0.447  11.431
  493TMC3    O1 7375   1.022   0.116  11.168
  493TMC3    O2 7376   1.173   0.492  11.522
  494TMC3    C1 7377   1.515   1.617  18.402
  494TMC3    C2 7378   1.575   1.515  18.466
  494TMC3    C3 7379   1.672   1.442  18.395
  494TMC3    C4 7380   1.545   1.662  18.279
  494TMC3    C5 7381   1.645   1.600  18.215
  494TMC3    C6 7382   1.705   1.488  18.265
  494TMC3     C 7383   1.441   1.701  18.486
  494TMC3     O 7384   1.482   1.726  18.597
  494TMC3     H 7385   1.549   1.496  18.569
  494TMC3    H1 7386   1.506   1.756  18.243
  494TMC3    H2 7387   1.777   1.431  18.207
  494TMC3    C7 7388   1.697   1.653  18.091
  494TMC3    C8 7389   1.739   1.330  18.456
  494TMC3    O1 7390   1.772   1.578  18.028
  494TMC3    O2 7391   1.854   1.301  18.424
  495TMC3    C1 7392   0.513   3.470  15.084
  495TMC3    C2 7393   0.420   3.494  14.983
  495TMC3    C3 7394   0.302   3.552  15.017
  495TMC3    C4 7395   0.484   3.506  15.210
  495TMC3    C5 7396   0.374   3.580  15.233
  495TMC3    C6 7397   0.271   3.600  15.140
  495TMC3     C 7398   0.570   3.340  15.071
  495TMC3     O 7399   0.553   3.253  15.154
  495TMC3     H 7400   0.447   3.470  14.880
  495TMC3    H1 7401   0.551   3.500  15.295
  495TMC3    H2 7402   0.178   3.644  15.175
  495TMC3    C7 7403   0.349   3.589  15.384
  495TMC3    C8 7404   0.191   3.540  14.921
  495TMC3    O1 7405   0.446   3.610  15.449
  495TMC3    O2 7406   0.077   3.552  14.962
  496MPD2     C 7407   2.239   3.874  15.716
  496MPD2    C1 7408   2.282   3.750  15.746
  496MPD2    C2 7409   2.219   3.682  15.850
  496MPD2    C3 7410   2.116   3.734  15.929
  496MPD2    C4 7411   2.076   3.868  15.899
  496MPD2    C5 7412   2.140   3.931  15.795
  496MPD2     H 7413   2.265   3.591  15.885
  496MPD2    H1 7414   2.001   3.914  15.963
  496MPD2    H2 7415   2.274   3.941  15.638
  496MPD2    H3 7416   2.101   4.030  15.777
  496MPD2     N 7417   2.062   3.662  16.034
  496MPD2    H5 7418   2.027   3.724  16.105
  496MPD2    N1 7419   2.383   3.688  15.679
  496MPD2    H7 7420   2.433   3.732  15.601
  497TMC3    C1 7421   2.023   3.466  16.168
  497TMC3    C2 7422   1.955   3.347  16.137
  497TMC3    C3 7423   1.963   3.242  16.232
  497TMC3    C4 7424   2.091   3.489  16.282
  497TMC3    C5 7425   2.090   3.393  16.377
  497TMC3    C6 7426   2.028   3.268  16.353
  497TMC3     C 7427   2.083   3.524  16.049
  497TMC3     O 7428   2.096   3.442  15.955
  497TMC3     H 7429   1.914   3.331  16.038
  497TMC3    H1 7430   2.143   3.582  16.301
  497TMC3    H2 7431   2.047   3.194  16.429
  497TMC3    C7 7432   2.152   3.412  16.511
  497TMC3    C8 7433   1.997   3.115  16.171
  497TMC3    O1 7434   2.092   3.348  16.598
  497TMC3    O2 7435   2.091   3.051  16.225
  498MPD2     C 7436   2.927   4.596   9.852
  498MPD2    C1 7437   3.001   4.588   9.970
  498MPD2    C2 7438   2.957   4.502  10.070
  498MPD2    C3 7439   2.839   4.426  10.045
  498MPD2    C4 7440   2.779   4.429   9.924
  498MPD2    C5 7441   2.817   4.519   9.832
  498MPD2     H 7442   2.995   4.515  10.171
  498MPD2    H1 7443   2.689   4.375   9.894
  498MPD2    H2 7444   2.940   4.673   9.777
  498MPD2    H3 7445   2.771   4.520   9.734
  498MPD2     N 7446   2.804   4.327  10.139
  498MPD2    H5 7447   2.863   4.338  10.221
  498MPD2    N1 7448   3.110   4.676   9.997
  498MPD2    H7 7449   3.165   4.643  10.075
  499TMC3    C1 7450   3.278   0.067   9.963
  499TMC3    C2 7451   3.384   4.769  10.007
  499TMC3    C3 7452   3.503   0.052  10.005
  499TMC3    C4 7453   3.294   0.201   9.927
  499TMC3    C5 7454   3.416   0.255   9.939
  499TMC3    C6 7455   3.524   0.182   9.975
  499TMC3     C 7456   3.146   0.005   9.924
  499TMC3     O 7457   3.090   0.058   9.829
  499TMC3     H 7458   3.368   4.663  10.015
  499TMC3    H1 7459   3.204   0.246   9.886
  499TMC3    H2 7460   3.619   0.231   9.989
  499TMC3    C7 7461   3.439   0.395   9.915
  499TMC3    C8 7462   3.629   4.754  10.025
  499TMC3    O1 7463   3.547   0.441   9.920
  499TMC3    O2 7464   3.730   0.030  10.050
  500MPD2     C 7465   4.702   0.750  11.104
  500MPD2    C1 7466   4.730   0.837  11.005
  500MPD2    C2 7467   4.649   0.857  10.894
  500MPD2    C3 7468   4.529   0.782  10.884
  500MPD2    C4 7469   4.494   0.694  10.988
  500MPD2    C5 7470   4.580   0.681  11.092
  500MPD2     H 7471   4.679   0.906  10.803
  500MPD2    H1 7472   4.399   0.643  10.981
  500MPD2    H2 7473   4.752   0.746  11.200
  500MPD2    H3 7474   4.554   0.611  11.171
  500MPD2     N 7475   4.436   0.800  10.778
  500MPD2    H5 7476   4.356   0.738  10.792
  500MPD2    N1 7477   0.070   0.910  11.008
  500MPD2    H7 7478   0.099   0.952  10.920
  501TMC3    C1 7479   0.290   0.971  11.065
  501TMC3    C2 7480   0.323   0.987  10.931
  501TMC3    C3 7481   0.447   1.030  10.899
  501TMC3    C4 7482   0.382   1.007  11.164
  501TMC3    C5 7483   0.506   1.066  11.126
  501TMC3    C6 7484   0.540   1.063  10.998
  501TMC3     C 7485   0.163   0.914  11.108
  501TMC3     O 7486   0.156   0.874  11.227
  501TMC3     H 7487   0.253   0.969  10.850
  501TMC3    H1 7488   0.353   0.993  11.267
  501TMC3    H2 7489   0.638   1.097  10.966
  501TMC3    C7 7490   0.602   1.095  11.231
  501TMC3    C8 7491   0.486   0.997  10.770
  501TMC3    O1 7492   0.719   1.065  11.215
  501TMC3    O2 7493   0.469   0.884  10.736
  502TMC3    C1 7494   4.661   4.189  15.278
  502TMC3    C2 7495   4.616   4.288  15.208
  502TMC3    C3 7496   4.494   4.338  15.240
  502TMC3    C4 7497   4.580   4.114  15.363
  502TMC3    C5 7498   4.450   4.152  15.375
  502TMC3    C6 7499   4.404   4.263  15.310
  502TMC3     C 7500   0.014   4.223  15.329
  502TMC3     O 7501   0.087   4.290  15.257
  502TMC3     H 7502   4.680   4.347  15.144
  502TMC3    H1 7503   4.610   4.026  15.420
  502TMC3    H2 7504   4.304   4.301  15.332
  502TMC3    C7 7505   4.389   4.119  15.501
  502TMC3    C8 7506   4.487   4.487  15.247
  502TMC3    O1 7507   4.465   4.076  15.589
  502TMC3    O2 7508   4.570   4.542  15.179
  503MPD2     C 7509   2.206   0.533  17.176
  503MPD2    C1 7510   2.230   0.578  17.304
  503MPD2    C2 7511   2.268   0.488  17.407
  503MPD2    C3 7512   2.283   0.351  17.383
  503MPD2    C4 7513   2.246   0.310  17.256
  503MPD2    C5 7514   2.220   0.397  17.156
  503MPD2     H 7515   2.296   0.526  17.504
  503MPD2    H1 7516   2.249   0.203  17.239
  503MPD2    H2 7517   2.169   0.594  17.095
  503MPD2    H3 7518   2.206   0.351  17.059
  503MPD2     N 7519   2.310   0.268  17.493
  503MPD2    H5 7520   2.355   0.314  17.572
  503MPD2    N1 7521   2.196   0.711  17.339
  503MPD2    H7 7522   2.190   0.734  17.438
  504TMC3    C1 7523   2.421   0.085  17.592
  504TMC3    C2 7524   2.419   0.150  17.717
  504TMC3    C3 7525   2.516   0.107  17.807
  504TMC3    C4 7526   2.513   4.776  17.557
  504TMC3    C5 7527   2.607   4.751  17.647
  504TMC3    C6 7528   2.614   0.016  17.776
  504TMC3     C 7529   2.326   0.133  17.487
  504TMC3     O 7530   2.303   0.059  17.391
  504TMC3     H 7531   2.339   0.221  17.736
  504TMC3    H1 7532   2.513   4.731  17.459
  504TMC3    H2 7533   2.694   4.776  17.845
  504TMC3    C7 7534   2.711   4.661  17.594
  504TMC3    C8 7535   2.455   0.090  17.945
  504TMC3    O1 7536   2.728   4.673  17.473
  504TMC3    O2 7537   2.336   0.123  17.947
  505MPD2     C 7538   2.263   3.603  11.575
  505MPD2    C1 7539   2.314   3.621  11.452
  505MPD2    C2 7540   2.437   3.695  11.445
  505MPD2    C3 7541   2.492   3.750  11.551
  505MPD2    C4 7542   2.432   3.736  11.676
  505MPD2    C5 7543   2.327   3.646  11.685
  505MPD2     H 7544   2.480   3.707  11.347
  505MPD2    H1 7545   2.485   3.757  11.768
  505MPD2    H2 7546   2.174   3.545  11.592
  505MPD2    H3 7547   2.289   3.633  11.786
  505MPD2     N 7548   2.604   3.835  11.530
  505MPD2    H5 7549   2.656   3.860  11.614
  505MPD2    N1 7550   2.271   3.545  11.346
  505MPD2    H7 7551   2.224   3.466  11.391
  506TMC3    C1 7552   2.317   3.425  11.156
  506TMC3    C2 7553   2.337   3.419  11.022
  506TMC3    C3 7554   2.388   3.301  10.973
  506TMC3    C4 7555   2.355   3.323  11.245
  506TMC3    C5 7556   2.401   3.205  11.193
  506TMC3    C6 7557   2.423   3.196  11.051
  506TMC3     C 7558   2.315   3.552  11.216
  506TMC3     O 7559   2.356   3.655  11.161
  506TMC3     H 7560   2.323   3.502  10.954
  506TMC3    H1 7561   2.369   3.336  11.351
  506TMC3    H2 7562   2.448   3.110  10.989
  506TMC3    C7 7563   2.507   3.159  11.277
  506TMC3    C8 7564   2.416   3.298  10.828
  506TMC3    O1 7565   2.469   3.075  11.360
  506TMC3    O2 7566   2.426   3.183  10.780
  507TMC3    C1 7567   3.168   4.562  14.965
  507TMC3    C2 7568   3.120   4.513  14.843
  507TMC3    C3 7569   3.139   4.593  14.735
  507TMC3    C4 7570   3.245   4.673  14.976
  507TMC3    C5 7571   3.269   4.740  14.856
  507TMC3    C6 7572   3.221   4.694  14.734
  507TMC3     C 7573   3.079   4.538  15.072
  507TMC3     O 7574   3.122   4.545  15.186
  507TMC3     H 7575   3.064   4.421  14.834
  507TMC3    H1 7576   3.269   4.714  15.074
  507TMC3    H2 7577   3.236   4.756  14.646
  507TMC3    C7 7578   3.249   0.101  14.863
  507TMC3    C8 7579   3.007   4.631  14.690
  507TMC3    O1 7580   3.188   0.150  14.772
  507TMC3    O2 7581   2.915   4.588  14.759
  508MPD2     C 7582   3.989   2.105  15.755
  508MPD2    C1 7583   4.044   2.208  15.830
  508MPD2    C2 7584   4.118   2.311  15.776
  508MPD2    C3 7585   4.124   2.305  15.636
  508MPD2    C4 7586   4.075   2.199  15.561
  508MPD2    C5 7587   4.008   2.099  15.624
  508MPD2     H 7588   4.156   2.392  15.837
  508MPD2    H1 7589   4.096   2.191  15.455
  508MPD2    H2 7590   3.925   2.037  15.810
  508MPD2    H3 7591   3.977   2.009  15.571
  508MPD2     N 7592   4.187   2.418  15.575
  508MPD2    H5 7593   4.241   2.486  15.629
  508MPD2    N1 7594   4.024   2.201  15.971
  508MPD2    H7 7595   3.939   2.160  16.009
  509TMC3    C1 7596   4.115   2.798  15.466
  509TMC3    C2 7597   4.215   2.836  15.552
  509TMC3    C3 7598   4.323   2.749  15.576
  509TMC3    C4 7599   4.121   2.675  15.402
  509TMC3    C5 7600   4.221   2.588  15.436
  509TMC3    C6 7601   4.318   2.622  15.527
  509TMC3     C 7602   3.983   2.851  15.507
  509TMC3     O 7603   3.889   2.771  15.495
  509TMC3     H 7604   4.207   2.926  15.611
  509TMC3    H1 7605   4.036   2.641  15.345
  509TMC3    H2 7606   4.401   2.554  15.544
  509TMC3    C7 7607   4.166   2.457  15.448
  509TMC3    C8 7608   4.393   2.763  15.702
  509TMC3    O1 7609   4.083   2.413  15.370
  509TMC3    O2 7610   4.411   2.658  15.761
  510MPD2     C 7611   1.896   4.006  15.019
  510MPD2    C1 7612   1.947   3.884  15.065
  510MPD2    C2 7613   2.066   3.843  15.007
  510MPD2    C3 7614   2.139   3.913  14.911
  510MPD2    C4 7615   2.086   4.035  14.869
  510MPD2    C5 7616   1.965   4.077  14.920
  510MPD2     H 7617   2.112   3.750  15.036
  510MPD2    H1 7618   2.121   4.085  14.780
  510MPD2    H2 7619   1.796   4.034  15.051
  510MPD2    H3 7620   1.921   4.168  14.882
  510MPD2     N 7621   2.251   3.858  14.856
  510MPD2    H5 7622   2.282   3.770  14.898
  510MPD2    N1 7623   1.869   3.807  15.154
  510MPD2    H7 7624   1.775   3.838  15.176
  511TMC3    C1 7625   1.812   3.628  15.297
  511TMC3    C2 7626   1.716   3.714  15.342
  511TMC3    C3 7627   1.600   3.658  15.396
  511TMC3    C4 7628   1.783   3.496  15.280
  511TMC3    C5 7629   1.659   3.447  15.308
  511TMC3    C6 7630   1.562   3.522  15.371
  511TMC3     C 7631   1.901   3.673  15.193
  511TMC3     O 7632   1.996   3.601  15.166
  511TMC3     H 7633   1.744   3.818  15.358
  511TMC3    H1 7634   1.860   3.433  15.236
  511TMC3    H2 7635   1.461   3.482  15.377
  511TMC3    C7 7636   1.625   3.334  15.225
  511TMC3    C8 7637   1.513   3.730  15.480
  511TMC3    O1 7638   1.687   3.323  15.120
  511TMC3    O2 7639   1.554   3.840  15.510
  512TMC3    C1 7640   0.536   3.601  13.873
  512TMC3    C2 7641   0.619   3.538  13.964
  512TMC3    C3 7642   0.664   3.415  13.925
  512TMC3    C4 7643   0.503   3.553  13.754
  512TMC3    C5 7644   0.551   3.432  13.714
  512TMC3    C6 7645   0.625   3.355  13.801
  512TMC3     C 7646   0.520   3.745  13.891
  512TMC3     O 7647   0.605   3.809  13.956
  512TMC3     H 7648   0.647   3.590  14.055
  512TMC3    H1 7649   0.455   3.617  13.681
  512TMC3    H2 7650   0.663   3.257  13.779
  512TMC3    C7 7651   0.532   3.396  13.571
  512TMC3    C8 7652   0.789   3.370  13.972
  512TMC3    O1 7653   0.473   3.478  13.504
  512TMC3    O2 7654   0.820   3.255  13.964
  513MPD2     C 7655   2.332   2.784  13.487
  513MPD2    C1 7656   2.464   2.752  13.473
  513MPD2    C2 7657   2.558   2.812  13.560
  513MPD2    C3 7658   2.524   2.918  13.637
  513MPD2    C4 7659   2.393   2.957  13.641
  513MPD2    C5 7660   2.301   2.889  13.575
  513MPD2     H 7661   2.665   2.792  13.553
  513MPD2    H1 7662   2.356   3.041  13.699
  513MPD2    H2 7663   2.248   2.749  13.428
  513MPD2    H3 7664   2.199   2.921  13.592
  513MPD2     N 7665   2.628   2.987  13.709
  513MPD2    H5 7666   2.718   2.953  13.678
  513MPD2    N1 7667   2.500   2.656  13.380
  513MPD2    H7 7668   2.437   2.635  13.304
  514TMC3    C1 7669   2.725   2.711  13.312
  514TMC3    C2 7670   2.690   2.841  13.275
  514TMC3    C3 7671   2.785   2.918  13.221
  514TMC3    C4 7672   2.848   2.661  13.285
  514TMC3    C5 7673   2.932   2.745  13.216
  514TMC3    C6 7674   2.904   2.871  13.179
  514TMC3     C 7675   2.629   2.607  13.349
  514TMC3     O 7676   2.655   2.500  13.303
  514TMC3     H 7677   2.588   2.875  13.285
  514TMC3    H1 7678   2.877   2.557  13.294
  514TMC3    H2 7679   2.975   2.918  13.112
  514TMC3    C7 7680   3.047   2.679  13.162
  514TMC3    C8 7681   2.725   3.030  13.140
  514TMC3    O1 7682   3.027   2.580  13.089
  514TMC3    O2 7683   2.627   3.088  13.188
  515MPD2     C 7684   0.815   0.144  15.226
  515MPD2    C1 7685   0.894   0.160  15.119
  515MPD2    C2 7686   0.979   0.272  15.107
  515MPD2    C3 7687   0.978   0.368  15.208
  515MPD2    C4 7688   0.884   0.348  15.314
  515MPD2    C5 7689   0.806   0.239  15.320
  515MPD2     H 7690   1.036   0.280  15.016
  515MPD2    H1 7691   0.867   0.420  15.393
  515MPD2    H2 7692   0.749   0.060  15.243
  515MPD2    H3 7693   0.740   0.238  15.406
  515MPD2     N 7694   1.072   0.476  15.219
  515MPD2    H5 7695   1.060   0.543  15.295
  515MPD2    N1 7696   0.903   0.063  15.010
  515MPD2    H7 7697   0.958   0.089  14.929
  516TMC3    C1 7698   0.826   4.647  14.901
  516TMC3    C2 7699   0.753   4.713  14.801
  516TMC3    C3 7700   0.666   4.644  14.726
  516TMC3    C4 7701   0.797   4.520  14.929
  516TMC3    C5 7702   0.694   4.459  14.861
  516TMC3    C6 7703   0.623   4.520  14.760
  516TMC3     C 7704   0.849   4.725  15.018
  516TMC3     O 7705   0.812   4.666  15.118
  516TMC3     H 7706   0.779   0.034  14.783
  516TMC3    H1 7707   0.869   4.471  14.993
  516TMC3    H2 7708   0.540   4.477  14.706
  516TMC3    C7 7709   0.658   4.334  14.929
  516TMC3    C8 7710   0.582   4.728  14.636
  516TMC3    O1 7711   0.734   4.298  15.022
  516TMC3    O2 7712   0.459   4.710  14.637
  517MPD2     C 7713   0.358   1.968  17.895
  517MPD2    C1 7714   0.481   1.940  17.954
  517MPD2    C2 7715   0.539   2.029  18.041
  517MPD2    C3 7716   0.471   2.140  18.079
  517MPD2    C4 7717   0.359   2.182  18.015
  517MPD2    C5 7718   0.296   2.087  17.934
  517MPD2     H 7719   0.635   2.006  18.087
  517MPD2    H1 7720   0.320   2.280  18.041
  517MPD2    H2 7721   0.320   1.902  17.817
  517MPD2    H3 7722   0.194   2.117  17.913
  517MPD2     N 7723   0.509   2.219  18.196
  517MPD2    H5 7724   0.443   2.291  18.225
  517MPD2    N1 7725   0.557   1.827  17.927
  517MPD2    H7 7726   0.653   1.817  17.960
  518TMC3    C1 7727   0.620   1.632  17.818
  518TMC3    C2 7728   0.591   1.503  17.778
  518TMC3    C3 7729   0.691   1.423  17.730
  518TMC3    C4 7730   0.744   1.692  17.815
  518TMC3    C5 7731   0.843   1.604  17.759
  518TMC3    C6 7732   0.813   1.475  17.719
  518TMC3     C 7733   0.508   1.717  17.861
  518TMC3     O 7734   0.392   1.690  17.838
  518TMC3     H 7735   0.490   1.467  17.791
  518TMC3    H1 7736   0.755   1.800  17.813
  518TMC3    H2 7737   0.889   1.412  17.675
  518TMC3    C7 7738   0.980   1.649  17.772
  518TMC3    C8 7739   0.669   1.278  17.719
  518TMC3    O1 7740   0.992   1.743  17.846
  518TMC3    O2 7741   0.772   1.220  17.685
  519MPD2     C 7742   1.906   0.154  14.748
  519MPD2    C1 7743   1.883   0.138  14.612
  519MPD2    C2 7744   1.963   0.040  14.555
  519MPD2    C3 7745   2.053   4.743  14.629
  519MPD2    C4 7746   2.069   4.760  14.766
  519MPD2    C5 7747   1.990   0.075  14.823
  519MPD2     H 7748   1.949   0.021  14.450
  519MPD2    H1 7749   2.154   4.714  14.816
  519MPD2    H2 7750   1.862   0.238  14.802
  519MPD2    H3 7751   2.010   0.097  14.927
  519MPD2     N 7752   2.143   4.647  14.565
  519MPD2    H5 7753   2.215   4.614  14.628
  519MPD2    N1 7754   1.805   0.227  14.548
  519MPD2    H7 7755   1.742   0.283  14.604
  520TMC3    C1 7756   2.254   4.531  14.385
  520TMC3    C2 7757   2.239   4.502  14.256
  520TMC3    C3 7758   2.353   4.527  14.175
  520TMC3    C4 7759   2.378   4.550  14.441
  520TMC3    C5 7760   2.490   4.564  14.367
  520TMC3    C6 7761   2.478   4.558  14.229
  520TMC3     C 7762   2.140   4.606  14.434
  520TMC3     O 7763   2.050   4.634  14.359
  520TMC3     H 7764   2.135   4.480  14.233
  520TMC3    H1 7765   2.380   4.575  14.546
  520TMC3    H2 7766   2.563   4.563  14.162
  520TMC3    C7 7767   2.612   4.510  14.423
  520TMC3    C8 7768   2.334   4.536  14.030
  520TMC3    O1 7769   2.602   4.448  14.529
  520TMC3    O2 7770   2.437   4.577  13.970
  521MPD2     C 7771   2.952   3.033  17.495
  521MPD2    C1 7772   2.923   2.949  17.387
  521MPD2    C2 7773   3.005   2.945  17.277
  521MPD2    C3 7774   3.117   3.024  17.275
  521MPD2    C4 7775   3.159   3.092  17.394
  521MPD2    C5 7776   3.070   3.106  17.493
  521MPD2     H 7777   2.984   2.882  17.191
  521MPD2    H1 7778   3.251   3.149  17.402
  521MPD2    H2 7779   2.894   3.037  17.586
  521MPD2    H3 7780   3.086   3.171  17.579
  521MPD2     N 7781   3.209   2.999  17.174
  521MPD2    H5 7782   3.175   2.940  17.098
  521MPD2    N1 7783   2.805   2.867  17.412
  521MPD2    H7 7784   2.757   2.869  17.502
  522TMC3    C1 7785   3.384   3.032  17.022
  522TMC3    C2 7786   3.514   2.988  17.035
  522TMC3    C3 7787   3.553   2.874  16.967
  522TMC3    C4 7788   3.297   2.966  16.936
  522TMC3    C5 7789   3.339   2.852  16.867
  522TMC3    C6 7790   3.469   2.814  16.881
  522TMC3     C 7791   3.324   3.068  17.148
  522TMC3     O 7792   3.381   3.158  17.210
  522TMC3     H 7793   3.579   3.040  17.104
  522TMC3    H1 7794   3.190   2.981  16.930
  522TMC3    H2 7795   3.504   2.724  16.832
  522TMC3    C7 7796   3.247   2.743  16.835
  522TMC3    C8 7797   3.691   2.836  16.968
  522TMC3    O1 7798   3.278   2.635  16.883
  522TMC3    O2 7799   3.751   2.870  17.067
  523MPD2     C 7800   0.810   2.789  10.622
  523MPD2    C1 7801   0.715   2.714  10.562
  523MPD2    C2 7802   0.625   2.762  10.469
  523MPD2    C3 7803   0.645   2.889  10.421
  523MPD2    C4 7804   0.742   2.967  10.473
  523MPD2    C5 7805   0.823   2.919  10.575
  523MPD2     H 7806   0.547   2.701  10.423
  523MPD2    H1 7807   0.763   3.067  10.438
  523MPD2    H2 7808   0.884   2.735  10.680
  523MPD2    H3 7809   0.897   2.983  10.620
  523MPD2     N 7810   0.563   2.946  10.327
  523MPD2    H5 7811   0.569   3.047  10.319
  523MPD2    N1 7812   0.718   2.574  10.591
  523MPD2    H7 7813   0.796   2.540  10.646
  524TMC3    C1 7814   0.371   2.970  10.191
  524TMC3    C2 7815   0.368   2.935  10.060
  524TMC3    C3 7816   0.328   3.033   9.969
  524TMC3    C4 7817   0.383   3.104  10.221
  524TMC3    C5 7818   0.367   3.200  10.123
  524TMC3    C6 7819   0.324   3.164  10.000
  524TMC3     C 7820   0.461   2.880  10.259
  524TMC3     O 7821   0.437   2.764  10.246
  524TMC3     H 7822   0.330   2.837  10.035
  524TMC3    H1 7823   0.417   3.131  10.320
  524TMC3    H2 7824   0.321   3.243   9.926
  524TMC3    C7 7825   0.425   3.328  10.154
  524TMC3    C8 7826   0.302   3.000   9.825
  524TMC3    O1 7827   0.509   3.331  10.241
  524TMC3    O2 7828   0.330   2.883   9.793
  525MPD2     C 7829   3.404   4.195  14.923
  525MPD2    C1 7830   3.526   4.196  14.987
  525MPD2    C2 7831   3.613   4.301  14.948
  525MPD2    C3 7832   3.578   4.386  14.847
  525MPD2    C4 7833   3.450   4.384  14.787
  525MPD2    C5 7834   3.365   4.287  14.832
  525MPD2     H 7835   3.704   4.308  15.006
  525MPD2    H1 7836   3.437   4.453  14.704
  525MPD2    H2 7837   3.336   4.114  14.945
  525MPD2    H3 7838   3.268   4.283  14.783
  525MPD2     N 7839   3.653   4.501  14.822
  525MPD2    H5 7840   3.614   4.571  14.761
  525MPD2    N1 7841   3.569   4.108  15.092
  525MPD2    H7 7842   3.652   4.142  15.140
  526TMC3    C1 7843   3.551   3.978  15.273
  526TMC3    C2 7844   3.462   3.952  15.380
  526TMC3    C3 7845   3.518   3.929  15.505
  526TMC3    C4 7846   3.688   3.983  15.291
  526TMC3    C5 7847   3.742   3.954  15.410
  526TMC3    C6 7848   3.661   3.928  15.518
  526TMC3     C 7849   3.492   4.007  15.145
  526TMC3     O 7850   3.380   3.972  15.115
  526TMC3     H 7851   3.356   3.954  15.357
  526TMC3    H1 7852   3.743   4.001  15.199
  526TMC3    H2 7853   3.694   3.896  15.616
  526TMC3    C7 7854   3.877   3.910  15.419
  526TMC3    C8 7855   3.448   3.946  15.628
  526TMC3    O1 7856   3.928   3.904  15.529
  526TMC3    O2 7857   3.514   3.929  15.731
  527MPD2     C 7858   1.426   2.169  19.607
  527MPD2    C1 7859   1.389   2.260  19.511
  527MPD2    C2 7860   1.490   2.318  19.428
  527MPD2    C3 7861   1.627   2.289  19.457
  527MPD2    C4 7862   1.656   2.196  19.559
  527MPD2    C5 7863   1.559   2.134  19.630
  527MPD2     H 7864   1.460   2.376  19.342
  527MPD2    H1 7865   1.757   2.159  19.570
  527MPD2    H2 7866   1.355   2.103  19.655
  527MPD2    H3 7867   1.577   2.060  19.706
  527MPD2     N 7868   1.717   2.328  19.360
  527MPD2    H5 7869   1.690   2.388  19.283
  527MPD2    N1 7870   1.256   2.278  19.477
  527MPD2    H7 7871   1.244   2.313  19.382
  528TMC3    C1 7872   1.033   2.312  19.474
  528TMC3    C2 7873   1.057   2.446  19.469
  528TMC3    C3 7874   0.989   2.521  19.384
  528TMC3    C4 7875   0.935   2.256  19.402
  528TMC3    C5 7876   0.870   2.331  19.312
  528TMC3    C6 7877   0.896   2.466  19.303
  528TMC3     C 7878   1.134   2.242  19.544
  528TMC3     O 7879   1.114   2.161  19.633
  528TMC3     H 7880   1.133   2.482  19.536
  528TMC3    H1 7881   0.940   2.148  19.391
  528TMC3    H2 7882   0.854   2.527  19.224
  528TMC3    C7 7883   0.816   2.270  19.188
  528TMC3    C8 7884   1.062   2.638  19.348
  528TMC3    O1 7885   0.887   2.294  19.094
  528TMC3    O2 7886   1.175   2.647  19.383
  529MPD2     C 7887   3.874   1.313  19.095
  529MPD2    C1 7888   3.949   1.215  19.034
  529MPD2    C2 7889   3.942   1.205  18.894
  529MPD2    C3 7890   3.866   1.287  18.827
  529MPD2    C4 7891   3.788   1.385  18.883
  529MPD2    C5 7892   3.795   1.396  19.020
  529MPD2     H 7893   4.001   1.129  18.843
  529MPD2    H1 7894   3.734   1.454  18.820
  529MPD2    H2 7895   3.878   1.343  19.199
  529MPD2    H3 7896   3.727   1.459  19.076
  529MPD2     N 7897   3.855   1.285  18.685
  529MPD2    H5 7898   3.805   1.363  18.643
  529MPD2    N1 7899   4.034   1.136  19.108
  529MPD2    H7 7900   4.072   1.054  19.062
  530TMC3    C1 7901   4.176   1.069  19.296
  530TMC3    C2 7902   4.276   1.133  19.367
  530TMC3    C3 7903   4.365   1.061  19.438
  530TMC3    C4 7904   4.172   0.930  19.284
  530TMC3    C5 7905   4.270   0.850  19.354
  530TMC3    C6 7906   4.369   0.919  19.422
  530TMC3     C 7907   4.075   1.150  19.241
  530TMC3     O 7908   4.059   1.254  19.309
  530TMC3     H 7909   4.283   1.241  19.372
  530TMC3    H1 7910   4.084   0.892  19.233
  530TMC3    H2 7911   4.443   0.861  19.475
  530TMC3    C7 7912   4.306   0.727  19.288
  530TMC3    C8 7913   4.434   1.128  19.545
  530TMC3    O1 7914   4.424   0.719  19.260
  530TMC3    O2 7915   4.428   1.251  19.553
  531MPD2     C 7916   3.324   3.031  13.445
  531MPD2    C1 7917   3.199   2.974  13.468
  531MPD2    C2 7918   3.145   2.879  13.380
  531MPD2    C3 7919   3.213   2.841  13.267
  531MPD2    C4 7920   3.342   2.894  13.249
  531MPD2    C5 7921   3.388   2.986  13.339
  531MPD2     H 7922   3.058   2.829  13.422
  531MPD2    H1 7923   3.405   2.879  13.162
  531MPD2    H2 7924   3.368   3.108  13.508
  531MPD2    H3 7925   3.486   3.023  13.311
  531MPD2     N 7926   3.173   2.737  13.176
  531MPD2    H5 7927   3.243   2.697  13.113
  531MPD2    N1 7928   3.130   3.017  13.580
  531MPD2    H7 7929   3.176   3.060  13.659
  532TMC3    C1 7930   2.940   3.074  13.711
  532TMC3    C2 7931   2.812   3.123  13.699
  532TMC3    C3 7932   2.741   3.153  13.805
  532TMC3    C4 7933   3.001   3.054  13.824
  532TMC3    C5 7934   2.933   3.091  13.941
  532TMC3    C6 7935   2.805   3.135  13.924
  532TMC3     C 7936   2.992   3.014  13.587
  532TMC3     O 7937   2.918   2.976  13.500
  532TMC3     H 7938   2.778   3.128  13.596
  532TMC3    H1 7939   3.107   3.030  13.821
  532TMC3    H2 7940   2.746   3.152  14.013
  532TMC3    C7 7941   3.003   3.112  14.068
  532TMC3    C8 7942   2.616   3.093  13.789
  532TMC3    O1 7943   2.972   3.215  14.124
  532TMC3    O2 7944   2.520   3.144  13.849
  533TMC3    C1 7945   3.783   4.687  14.861
  533TMC3    C2 7946   3.904   4.738  14.865
  533TMC3    C3 7947   3.922   0.068  14.938
  533TMC3    C4 7948   3.680   4.742  14.928
  533TMC3    C5 7949   3.702   0.071  15.010
  533TMC3    C6 7950   3.823   0.125  15.010
  533TMC3     C 7951   3.777   4.543  14.872
  533TMC3     O 7952   3.859   4.484  14.944
  533TMC3     H 7953   3.990   4.675  14.844
  533TMC3    H1 7954   3.581   4.697  14.921
  533TMC3    H2 7955   3.855   0.208  15.073
  533TMC3    C7 7956   3.613   0.095  15.120
  533TMC3    C8 7957   4.055   0.131  14.940
  533TMC3    O1 7958   3.503   0.038  15.110
  533TMC3    O2 7959   4.085   0.205  15.033
  534MPD2     C 7960   1.770   1.259  19.621
  534MPD2    C1 7961   1.644   1.302  19.660
  534MPD2    C2 7962   1.537   1.220  19.653
  534MPD2    C3 7963   1.561   1.083  19.621
  534MPD2    C4 7964   1.692   1.047  19.590
  534MPD2    C5 7965   1.792   1.137  19.588
  534MPD2     H 7966   1.438   1.256  19.678
  534MPD2    H1 7967   1.715   0.944  19.565
  534MPD2    H2 7968   1.847   1.327  19.585
  534MPD2    H3 7969   1.890   1.107  19.553
  534MPD2     N 7970   1.457   0.988  19.599
  534MPD2    H5 7971   1.483   0.893  19.575
  534MPD2    N1 7972   1.617   1.436  19.698
  534MPD2    H7 7973   1.524   1.477  19.696
  535TMC3    C1 7974   1.235   0.897  19.576
  535TMC3    C2 7975   1.106   0.891  19.614
  535TMC3    C3 7976   1.019   0.846  19.521
  535TMC3    C4 7977   1.284   0.834  19.466
  535TMC3    C5 7978   1.194   0.776  19.379
  535TMC3    C6 7979   1.058   0.790  19.397
  535TMC3     C 7980   1.321   1.001  19.633
  535TMC3     O 7981   1.264   1.090  19.690
  535TMC3     H 7982   1.078   0.945  19.704
  535TMC3    H1 7983   1.384   0.839  19.425
  535TMC3    H2 7984   0.991   0.767  19.314
  535TMC3    C7 7985   1.239   0.747  19.244
  535TMC3    C8 7986   0.874   0.840  19.547
  535TMC3    O1 7987   1.332   0.669  19.231
  535TMC3    O2 7988   0.806   0.753  19.490
  536MPD2     C 7989   0.580   4.295  16.632
  536MPD2    C1 7990   0.476   4.212  16.649
  536MPD2    C2 7991   0.359   4.238  16.575
  536MPD2    C3 7992   0.355   4.344  16.481
  536MPD2    C4 7993   0.468   4.418  16.464
  536MPD2    C5 7994   0.574   4.397  16.543
  536MPD2     H 7995   0.283   4.161  16.565
  536MPD2    H1 7996   0.468   4.498  16.391
  536MPD2    H2 7997   0.665   4.291  16.700
  536MPD2    H3 7998   0.662   4.460  16.540
  536MPD2     N 7999   0.239   4.369  16.405
  536MPD2    H5 8000   0.250   4.421  16.318
  536MPD2    N1 8001   0.485   4.107  16.747
  536MPD2    H7 8002   0.571   4.098  16.799
  537TMC3    C1 8003   0.414   3.942  16.901
  537TMC3    C2 8004   0.444   4.014  17.011
  537TMC3    C3 8005   0.416   3.961  17.135
  537TMC3    C4 8006   0.353   3.820  16.906
  537TMC3    C5 8007   0.328   3.766  17.031
  537TMC3    C6 8008   0.366   3.835  17.147
  537TMC3     C 8009   0.387   4.006  16.776
  537TMC3     O 8010   0.298   3.969  16.705
  537TMC3     H 8011   0.482   4.116  17.007
  537TMC3    H1 8012   0.340   3.759  16.817
  537TMC3    H2 8013   0.337   3.803  17.247
  537TMC3    C7 8014   0.256   3.641  17.026
  537TMC3    C8 8015   0.435   4.035  17.253
  537TMC3    O1 8016   0.204   3.614  16.916
  537TMC3    O2 8017   0.455   3.975  17.357
  538TMC3    C1 8018   1.224   2.092  11.335
  538TMC3    C2 8019   1.348   2.051  11.303
  538TMC3    C3 8020   1.421   2.117  11.206
  538TMC3    C4 8021   1.163   2.180  11.246
  538TMC3    C5 8022   1.228   2.227  11.135
  538TMC3    C6 8023   1.363   2.199  11.114
  538TMC3     C 8024   1.178   2.116  11.471
  538TMC3     O 8025   1.089   2.200  11.488
  538TMC3     H 8026   1.403   1.975  11.357
  538TMC3    H1 8027   1.068   2.227  11.272
  538TMC3    H2 8028   1.422   2.233  11.030
  538TMC3    C7 8029   1.161   2.350  11.075
  538TMC3    C8 8030   1.547   2.069  11.181
  538TMC3    O1 8031   1.043   2.373  11.108
  538TMC3    O2 8032   1.555   1.945  11.171
  539MPD2     C 8033   0.873   1.902  12.341
  539MPD2    C1 8034   0.860   1.873  12.209
  539MPD2    C2 8035   0.823   1.973  12.123
  539MPD2    C3 8036   0.802   2.101  12.172
  539MPD2    C4 8037   0.819   2.124  12.307
  539MPD2    C5 8038   0.846   2.026  12.389
  539MPD2     H 8039   0.817   1.953  12.016
  539MPD2    H1 8040   0.813   2.224  12.347
  539MPD2    H2 8041   0.901   1.825  12.411
  539MPD2    H3 8042   0.852   2.049  12.494
  539MPD2     N 8043   0.794   2.215  12.088
  539MPD2    H5 8044   0.799   2.302  12.138
  539MPD2    N1 8045   0.916   1.753  12.157
  539MPD2    H7 8046   0.893   1.726  12.062
  540TMC3    C1 8047   0.781   2.349  11.894
  540TMC3    C2 8048   0.786   2.350  11.755
  540TMC3    C3 8049   0.785   2.476  11.703
  540TMC3    C4 8050   0.795   2.456  11.977
  540TMC3    C5 8051   0.795   2.577  11.912
  540TMC3    C6 8052   0.797   2.596  11.774
  540TMC3     C 8053   0.777   2.217  11.954
  540TMC3     O 8054   0.764   2.119  11.882
  540TMC3     H 8055   0.786   2.258  11.697
  540TMC3    H1 8056   0.765   2.451  12.081
  540TMC3    H2 8057   0.790   2.690  11.721
  540TMC3    C7 8058   0.702   2.675  11.978
  540TMC3    C8 8059   0.776   2.491  11.560
  540TMC3    O1 8060   0.614   2.614  12.041
  540TMC3    O2 8061   0.825   2.585  11.500
  541MPD2     C 8062   4.681   3.426  13.736
  541MPD2    C1 8063   4.544   3.397  13.741
  541MPD2    C2 8064   4.450   3.427  13.634
  541MPD2    C3 8065   4.508   3.477  13.518
  541MPD2    C4 8066   4.644   3.523  13.525
  541MPD2    C5 8067   4.728   3.498  13.634
  541MPD2     H 8068   4.350   3.387  13.630
  541MPD2    H1 8069   4.671   3.573  13.433
  541MPD2    H2 8070   4.743   3.392  13.819
  541MPD2    H3 8071   0.053   3.516  13.631
  541MPD2     N 8072   4.444   3.502  13.402
  541MPD2    H5 8073   4.509   3.524  13.328
  541MPD2    N1 8074   4.503   3.318  13.858
  541MPD2    H7 8075   4.573   3.277  13.919
  542TMC3    C1 8076   4.283   3.500  13.230
  542TMC3    C2 8077   4.311   3.447  13.106
  542TMC3    C3 8078   4.266   3.510  12.988
  542TMC3    C4 8079   4.216   3.619  13.241
  542TMC3    C5 8080   4.163   3.677  13.126
  542TMC3    C6 8081   4.186   3.623  13.002
  542TMC3     C 8082   4.326   3.443  13.360
  542TMC3     O 8083   4.254   3.363  13.421
  542TMC3     H 8084   4.360   3.351  13.103
  542TMC3    H1 8085   4.200   3.661  13.340
  542TMC3    H2 8086   4.141   3.659  12.910
  542TMC3    C7 8087   4.087   3.796  13.140
  542TMC3    C8 8088   4.312   3.474  12.856
  542TMC3    O1 8089   4.041   3.820  13.251
  542TMC3    O2 8090   4.265   3.521  12.756
  543TMC3    C1 8091   3.873   4.721  17.810
  543TMC3    C2 8092   3.883   4.586  17.831
  543TMC3    C3 8093   3.830   4.543  17.943
  543TMC3    C4 8094   3.824   0.027  17.895
  543TMC3    C5 8095   3.779   4.756  18.013
  543TMC3    C6 8096   3.775   4.621  18.039
  543TMC3     C 8097   3.937   4.768  17.692
  543TMC3     O 8098   4.022   4.693  17.647
  543TMC3     H 8099   3.914   4.511  17.759
  543TMC3    H1 8100   3.819   0.132  17.868
  543TMC3    H2 8101   3.739   4.585  18.134
  543TMC3    C7 8102   3.701   0.054  18.109
  543TMC3    C8 8103   3.813   4.397  17.954
  543TMC3    O1 8104   3.636   0.001  18.199
  543TMC3    O2 8105   3.880   4.329  17.877
  544MPD2     C 8106   3.506   3.995  18.028
  544MPD2    C1 8107   3.614   4.010  17.948
  544MPD2    C2 8108   3.691   4.125  17.950
  544MPD2    C3 8109   3.650   4.234  18.027
  544MPD2    C4 8110   3.536   4.217  18.111
  544MPD2    C5 8111   3.467   4.096  18.113
  544MPD2     H 8112   3.783   4.129  17.892
  544MPD2    H1 8113   3.503   4.301  18.171
  544MPD2    H2 8114   3.449   3.903  18.032
  544MPD2    H3 8115   3.383   4.082  18.179
  544MPD2     N 8116   3.714   4.363  18.035
  544MPD2    H5 8117   3.663   4.438  18.080
  544MPD2    N1 8118   3.633   3.908  17.845
  544MPD2    H7 8119   3.567   3.830  17.850
  545TMC3    C1 8120   3.718   3.792  17.656
  545TMC3    C2 8121   3.784   3.807  17.533
  545TMC3    C3 8122   3.756   3.722  17.431
  545TMC3    C4 8123   3.638   3.683  17.680
  545TMC3    C5 8124   3.622   3.593  17.577
  545TMC3    C6 8125   3.679   3.615  17.454
  545TMC3     C 8126   3.730   3.906  17.746
  545TMC3     O 8127   3.814   3.989  17.718
  545TMC3     H 8128   3.849   3.892  17.513
  545TMC3    H1 8129   3.602   3.658  17.779
  545TMC3    H2 8130   3.664   3.551  17.368
  545TMC3    C7 8131   3.599   3.460  17.617
  545TMC3    C8 8132   3.812   3.734  17.301
  545TMC3    O1 8133   3.507   3.444  17.691
  545TMC3    O2 8134   3.847   3.631  17.244
  546MPD2     C 8135   0.676   4.577  18.026
  546MPD2    C1 8136   0.605   4.619  17.915
  546MPD2    C2 8137   0.634   4.743  17.862
  546MPD2    C3 8138   0.731   0.033  17.911
  546MPD2    C4 8139   0.796   0.001  18.029
  546MPD2    C5 8140   0.769   4.657  18.086
  546MPD2     H 8141   0.593   4.773  17.766
  546MPD2    H1 8142   0.883   0.058  18.058
  546MPD2    H2 8143   0.658   4.483  18.077
  546MPD2    H3 8144   0.820   4.617  18.173
  546MPD2     N 8145   0.772   0.151  17.843
  546MPD2    H5 8146   0.816   0.220  17.903
  546MPD2    N1 8147   0.503   4.530  17.877
  546MPD2    H7 8148   0.496   4.439  17.921
  547TMC3    C1 8149   0.306   4.468  17.753
  547TMC3    C2 8150   0.244   4.465  17.630
  547TMC3    C3 8151   0.157   4.362  17.603
  547TMC3    C4 8152   0.286   4.377  17.852
  547TMC3    C5 8153   0.201   4.274  17.818
  547TMC3    C6 8154   0.131   4.270  17.699
  547TMC3     C 8155   0.417   4.565  17.773
  547TMC3     O 8156   0.414   4.660  17.693
  547TMC3     H 8157   0.273   4.536  17.553
  547TMC3    H1 8158   0.318   4.397  17.954
  547TMC3    H2 8159   0.044   4.206  17.693
  547TMC3    C7 8160   0.168   4.176  17.919
  547TMC3    C8 8161   0.069   4.386  17.488
  547TMC3    O1 8162   0.163   4.215  18.034
  547TMC3    O2 8163   0.056   4.497  17.437
  548MPD2     C 8164   4.682   0.647  12.912
  548MPD2    C1 8165   4.669   0.528  12.989
  548MPD2    C2 8166   4.762   0.429  12.974
  548MPD2    C3 8167   0.071   0.428  12.875
  548MPD2    C4 8168   0.088   0.542  12.805
  548MPD2    C5 8169   0.007   0.654  12.833
  548MPD2     H 8170   4.762   0.338  13.033
  548MPD2    H1 8171   0.162   0.560  12.728
  548MPD2    H2 8172   4.618   0.733  12.927
  548MPD2    H3 8173   0.013   0.745  12.775
  548MPD2     N 8174   0.144   0.319  12.850
  548MPD2    H5 8175   0.155   0.258  12.931
  548MPD2    N1 8176   4.559   0.513  13.074
  548MPD2    H7 8177   4.494   0.590  13.090
  549TMC3    C1 8178   4.377   0.415  13.182
  549TMC3    C2 8179   4.295   0.523  13.150
  549TMC3    C3 8180   4.164   0.528  13.195
  549TMC3    C4 8181   4.321   0.305  13.246
  549TMC3    C5 8182   4.191   0.308  13.274
  549TMC3    C6 8183   4.113   0.418  13.254
  549TMC3     C 8184   4.516   0.404  13.138
  549TMC3     O 8185   4.576   0.301  13.148
  549TMC3     H 8186   4.331   0.609  13.094
  549TMC3    H1 8187   4.390   0.222  13.262
  549TMC3    H2 8188   4.006   0.420  13.274
  549TMC3    C7 8189   4.120   0.187  13.308
  549TMC3    C8 8190   4.080   0.609  13.117
  549TMC3    O1 8191   4.005   0.197  13.353
  549TMC3    O2 8192   3.967   0.566  13.094
  550TMC3    C1 8193   3.651   3.626  12.733
  550TMC3    C2 8194   3.571   3.617  12.842
  550TMC3    C3 8195   3.459   3.705  12.850
  550TMC3    C4 8196   3.622   3.725  12.641
  550TMC3    C5 8197   3.512   3.805  12.654
  550TMC3    C6 8198   3.425   3.797  12.755
  550TMC3     C 8199   3.693   3.500  12.673
  550TMC3     O 8200   3.741   3.408  12.739
  550TMC3     H 8201   3.577   3.529  12.905
  550TMC3    H1 8202   3.686   3.744  12.556
  550TMC3    H2 8203   3.341   3.864  12.761
  550TMC3    C7 8204   3.442   3.793  12.528
  550TMC3    C8 8205   3.366   3.691  12.963
  550TMC3    O1 8206   3.490   3.701  12.457
  550TMC3    O2 8207   3.255   3.742  12.946
  551TMC3    C1 8208   1.155   0.888  13.685
  551TMC3    C2 8209   1.266   0.854  13.602
  551TMC3    C3 8210   1.390   0.903  13.636
  551TMC3    C4 8211   1.169   0.958  13.798
  551TMC3    C5 8212   1.301   0.984  13.836
  551TMC3    C6 8213   1.408   0.977  13.751
  551TMC3     C 8214   1.027   0.876  13.627
  551TMC3     O 8215   1.002   0.778  13.556
  551TMC3     H 8216   1.261   0.805  13.506
  551TMC3    H1 8217   1.092   0.971  13.872
  551TMC3    H2 8218   1.500   1.024  13.783
  551TMC3    C7 8219   1.314   1.058  13.957
  551TMC3    C8 8220   1.473   0.923  13.520
  551TMC3    O1 8221   1.379   1.001  14.043
  551TMC3    O2 8222   1.507   0.827  13.453
  552MPD2     C 8223   3.033   2.941  14.402
  552MPD2    C1 8224   2.992   2.817  14.458
  552MPD2    C2 8225   3.070   2.755  14.556
  552MPD2    C3 8226   3.185   2.822  14.603
  552MPD2    C4 8227   3.228   2.941  14.537
  552MPD2    C5 8228   3.143   2.998  14.444
  552MPD2     H 8229   3.057   2.650  14.580
  552MPD2    H1 8230   3.318   2.995  14.565
  552MPD2    H2 8231   2.974   2.987  14.324
  552MPD2    H3 8232   3.172   3.092  14.398
  552MPD2     N 8233   3.276   2.773  14.697
  552MPD2    H5 8234   3.359   2.829  14.714
  552MPD2    N1 8235   2.870   2.753  14.418
  552MPD2    H7 8236   2.869   2.652  14.432
  553TMC3    C1 8237   2.703   2.711  14.257
  553TMC3    C2 8238   2.673   2.756  14.135
  553TMC3    C3 8239   2.666   2.670  14.027
  553TMC3    C4 8240   2.719   2.578  14.286
  553TMC3    C5 8241   2.704   2.492  14.176
  553TMC3    C6 8242   2.669   2.536  14.050
  553TMC3     C 8243   2.781   2.809  14.336
  553TMC3     O 8244   2.753   2.927  14.327
  553TMC3     H 8245   2.690   2.862  14.120
  553TMC3    H1 8246   2.753   2.542  14.382
  553TMC3    H2 8247   2.640   2.464  13.974
  553TMC3    C7 8248   2.769   2.358  14.176
  553TMC3    C8 8249   2.776   2.714  13.936
  553TMC3    O1 8250   2.700   2.266  14.145
  553TMC3    O2 8251   2.847   2.807  13.968
  554TMC3    C1 8252   4.619   2.314  11.882
  554TMC3    C2 8253   4.533   2.265  11.778
  554TMC3    C3 8254   4.601   2.224  11.671
  554TMC3    C4 8255   4.751   2.342  11.865
  554TMC3    C5 8256   0.032   2.295  11.751
  554TMC3    C6 8257   4.742   2.229  11.658
  554TMC3     C 8258   4.579   2.297  12.021
  554TMC3     O 8259   4.459   2.278  12.039
  554TMC3     H 8260   4.431   2.237  11.799
  554TMC3    H1 8261   0.024   2.403  11.935
  554TMC3    H2 8262   0.015   2.193  11.572
  554TMC3    C7 8263   0.155   2.354  11.697
  554TMC3    C8 8264   4.530   2.215  11.547
  554TMC3    O1 8265   0.214   2.294  11.612
  554TMC3    O2 8266   4.592   2.170  11.453
  555TMC3    C1 8267   3.864   1.506  15.279
  555TMC3    C2 8268   3.824   1.609  15.363
  555TMC3    C3 8269   3.881   1.602  15.492
  555TMC3    C4 8270   3.944   1.404  15.320
  555TMC3    C5 8271   3.987   1.404  15.445
  555TMC3    C6 8272   3.967   1.508  15.532
  555TMC3     C 8273   3.859   1.513  15.138
  555TMC3     O 8274   3.949   1.464  15.074
  555TMC3     H 8275   3.769   1.695  15.328
  555TMC3    H1 8276   3.976   1.334  15.244
  555TMC3    H2 8277   4.003   1.491  15.633
  555TMC3    C7 8278   4.032   1.285  15.506
  555TMC3    C8 8279   3.861   1.716  15.578
  555TMC3    O1 8280   3.961   1.188  15.488
  555TMC3    O2 8281   3.756   1.777  15.565
  556MPD2     C 8282   2.055   3.238  11.188
  556MPD2    C1 8283   2.083   3.113  11.248
  556MPD2    C2 8284   2.096   3.000  11.166
  556MPD2    C3 8285   2.087   3.015  11.027
  556MPD2    C4 8286   2.060   3.140  10.972
  556MPD2    C5 8287   2.044   3.252  11.052
  556MPD2     H 8288   2.115   2.901  11.207
  556MPD2    H1 8289   2.044   3.153  10.866
  556MPD2    H2 8290   2.051   3.320  11.259
  556MPD2    H3 8291   2.026   3.346  11.002
  556MPD2     N 8292   2.114   2.898  10.949
  556MPD2    H5 8293   2.140   2.816  11.002
  556MPD2    N1 8294   2.100   3.099  11.386
  556MPD2    H7 8295   2.102   3.003  11.420
  557TMC3    C1 8296   2.123   2.760  10.763
  557TMC3    C2 8297   2.084   2.749  10.635
  557TMC3    C3 8298   2.043   2.626  10.593
  557TMC3    C4 8299   2.116   2.655  10.849
  557TMC3    C5 8300   2.063   2.537  10.801
  557TMC3    C6 8301   2.027   2.519  10.674
  557TMC3     C 8302   2.110   2.894  10.816
  557TMC3     O 8303   2.084   2.980  10.734
  557TMC3     H 8304   2.096   2.830  10.564
  557TMC3    H1 8305   2.157   2.654  10.949
  557TMC3    H2 8306   1.981   2.430  10.633
  557TMC3    C7 8307   2.007   2.452  10.900
  557TMC3    C8 8308   2.001   2.609  10.454
  557TMC3    O1 8309   1.987   2.500  11.011
  557TMC3    O2 8310   1.980   2.716  10.397
  558TMC3    C1 8311   4.314   0.895  10.598
  558TMC3    C2 8312   4.191   0.857  10.652
  558TMC3    C3 8313   4.079   0.884  10.579
  558TMC3    C4 8314   4.322   0.947  10.474
  558TMC3    C5 8315   4.210   0.973  10.406
  558TMC3    C6 8316   4.082   0.942  10.456
  558TMC3     C 8317   4.440   0.879  10.667
  558TMC3     O 8318   4.533   0.953  10.636
  558TMC3     H 8319   4.186   0.815  10.752
  558TMC3    H1 8320   4.415   0.993  10.440
  558TMC3    H2 8321   3.998   0.975  10.395
  558TMC3    C7 8322   4.217   1.062  10.288
  558TMC3    C8 8323   3.944   0.868  10.629
  558TMC3    O1 8324   4.323   1.121  10.278
  558TMC3    O2 8325   3.852   0.876  10.554
  559MPD2     C 8326   4.223   1.927  11.164
  559MPD2    C1 8327   4.144   1.837  11.231
  559MPD2    C2 8328   4.203   1.752  11.328
  559MPD2    C3 8329   4.336   1.767  11.361
  559MPD2    C4 8330   4.415   1.867  11.293
  559MPD2    C5 8331   4.357   1.934  11.185
  559MPD2     H 8332   4.141   1.683  11.386
  559MPD2    H1 8333   4.515   1.889  11.327
  559MPD2    H2 8334   4.183   1.987  11.083
  559MPD2    H3 8335   4.415   2.016  11.144
  559MPD2     N 8336   4.379   1.705  11.472
  559MPD2    H5 8337   4.303   1.661  11.523
  559MPD2    N1 8338   4.007   1.833  11.197
  559MPD2    H7 8339   3.974   1.898  11.126
  560TMC3    C1 8340   4.526   1.598  11.612
  560TMC3    C2 8341   4.422   1.527  11.657
  560TMC3    C3 8342   4.436   1.449  11.768
  560TMC3    C4 8343   4.646   1.603  11.672
  560TMC3    C5 8344   4.656   1.537  11.790
  560TMC3    C6 8345   4.557   1.462  11.835
  560TMC3     C 8346   4.510   1.686  11.500
  560TMC3     O 8347   4.617   1.713  11.445
  560TMC3     H 8348   4.328   1.511  11.605
  560TMC3    H1 8349   4.734   1.653  11.635
  560TMC3    H2 8350   4.562   1.420  11.935
  560TMC3    C7 8351   4.782   1.531  11.858
  560TMC3    C8 8352   4.368   1.325  11.762
  560TMC3    O1 8353   0.003   1.462  11.957
  560TMC3    O2 8354   4.252   1.327  11.718
  561TMC3    C1 8355   2.421   0.831  11.346
  561TMC3    C2 8356   2.357   0.741  11.431
  561TMC3    C3 8357   2.307   0.797  11.550
  561TMC3    C4 8358   2.432   0.964  11.367
  561TMC3    C5 8359   2.362   1.012  11.477
  561TMC3    C6 8360   2.304   0.935  11.573
  561TMC3     C 8361   2.501   0.779  11.237
  561TMC3     O 8362   2.477   0.666  11.202
  561TMC3     H 8363   2.365   0.635  11.410
  561TMC3    H1 8364   2.478   1.034  11.298
  561TMC3    H2 8365   2.262   0.982  11.661
  561TMC3    C7 8366   2.383   1.148  11.527
  561TMC3    C8 8367   2.279   0.703  11.647
  561TMC3    O1 8368   2.359   1.168  11.645
  561TMC3    O2 8369   2.302   0.587  11.630
  562TMC3    C1 8370   3.861   2.142  16.823
  562TMC3    C2 8371   3.785   2.253  16.842
  562TMC3    C3 8372   3.651   2.248  16.819
  562TMC3    C4 8373   3.804   2.024  16.789
  562TMC3    C5 8374   3.669   2.021  16.765
  562TMC3    C6 8375   3.592   2.129  16.773
  562TMC3     C 8376   4.002   2.147  16.840
  562TMC3     O 8377   4.068   2.058  16.788
  562TMC3     H 8378   3.836   2.348  16.839
  562TMC3    H1 8379   3.864   1.933  16.785
  562TMC3    H2 8380   3.485   2.125  16.757
  562TMC3    C7 8381   3.602   1.906  16.724
  562TMC3    C8 8382   3.594   2.364  16.763
  562TMC3    O1 8383   3.493   1.928  16.677
  562TMC3    O2 8384   3.613   2.467  16.824
  563MPD2     C 8385   1.135   3.206  15.832
  563MPD2    C1 8386   1.186   3.203  15.959
  563MPD2    C2 8387   1.306   3.135  15.977
  563MPD2    C3 8388   1.385   3.075  15.884
  563MPD2    C4 8389   1.334   3.074  15.752
  563MPD2    C5 8390   1.204   3.130  15.741
  563MPD2     H 8391   1.337   3.122  16.080
  563MPD2    H1 8392   1.372   3.007  15.675
  563MPD2    H2 8393   1.032   3.234  15.817
  563MPD2    H3 8394   1.160   3.107  15.644
  563MPD2     N 8395   1.484   2.983  15.939
  563MPD2    H5 8396   1.502   2.990  16.039
  563MPD2    N1 8397   1.124   3.258  16.068
  563MPD2    H7 8398   1.030   3.296  16.059
  564TMC3    C1 8399   1.099   3.247  16.308
  564TMC3    C2 8400   0.981   3.180  16.292
  564TMC3    C3 8401   0.934   3.095  16.393
  564TMC3    C4 8402   1.168   3.224  16.426
  564TMC3    C5 8403   1.133   3.124  16.512
  564TMC3    C6 8404   1.013   3.066  16.501
  564TMC3     C 8405   1.189   3.271  16.193
  564TMC3     O 8406   1.305   3.281  16.222
  564TMC3     H 8407   0.911   3.218  16.218
  564TMC3    H1 8408   1.260   3.274  16.454
  564TMC3    H2 8409   0.995   2.981  16.565
  564TMC3    C7 8410   1.243   3.029  16.527
  564TMC3    C8 8411   0.912   2.961  16.336
  564TMC3    O1 8412   1.358   3.073  16.535
  564TMC3    O2 8413   0.872   2.866  16.401
  565TMC3    C1 8414   1.819   4.642  10.636
  565TMC3    C2 8415   1.798   4.581  10.754
  565TMC3    C3 8416   1.743   4.457  10.748
  565TMC3    C4 8417   1.804   4.584  10.513
  565TMC3    C5 8418   1.760   4.452  10.518
  565TMC3    C6 8419   1.721   4.397  10.633
  565TMC3     C 8420   1.859   0.006  10.632
  565TMC3     O 8421   1.890   0.058  10.530
  565TMC3     H 8422   1.807   4.627  10.852
  565TMC3    H1 8423   1.824   4.644  10.425
  565TMC3    H2 8424   1.701   4.291  10.634
  565TMC3    C7 8425   1.693   4.418  10.391
  565TMC3    C8 8426   1.746   4.389  10.870
  565TMC3    O1 8427   1.732   4.480  10.297
  565TMC3    O2 8428   1.823   4.429  10.954
  566MPD2     C 8429   3.674   1.297  14.897
  566MPD2    C1 8430   3.686   1.195  14.809
  566MPD2    C2 8431   3.579   1.129  14.751
  566MPD2    C3 8432   3.452   1.173  14.779
  566MPD2    C4 8433   3.437   1.270  14.877
  566MPD2    C5 8434   3.545   1.335  14.930
  566MPD2     H 8435   3.600   1.054  14.676
  566MPD2    H1 8436   3.336   1.302  14.901
  566MPD2    H2 8437   3.756   1.366  14.912
  566MPD2    H3 8438   3.537   1.427  14.987
  566MPD2     N 8439   3.338   1.111  14.725
  566MPD2    H5 8440   3.246   1.152  14.738
  566MPD2    N1 8441   3.811   1.178  14.747
  566MPD2    H7 8442   3.881   1.246  14.773
  567TMC3    C1 8443   3.978   1.110  14.607
  567TMC3    C2 8444   4.008   1.225  14.549
  567TMC3    C3 8445   4.129   1.269  14.532
  567TMC3    C4 8446   4.084   1.027  14.653
  567TMC3    C5 8447   4.211   1.080  14.642
  567TMC3    C6 8448   4.234   1.200  14.580
  567TMC3     C 8449   3.850   1.078  14.665
  567TMC3     O 8450   3.802   0.970  14.636
  567TMC3     H 8451   3.926   1.288  14.516
  567TMC3    H1 8452   4.076   0.925  14.688
  567TMC3    H2 8453   4.336   1.235  14.589
  567TMC3    C7 8454   4.275   1.059  14.768
  567TMC3    C8 8455   4.153   1.379  14.433
  567TMC3    O1 8456   4.396   1.066  14.787
  567TMC3    O2 8457   4.245   1.363  14.359
  568MPD2     C 8458   0.867   1.507  16.545
  568MPD2    C1 8459   0.908   1.590  16.639
  568MPD2    C2 8460   0.906   1.726  16.615
  568MPD2    C3 8461   0.867   1.773  16.493
  568MPD2    C4 8462   0.825   1.684  16.400
  568MPD2    C5 8463   0.832   1.550  16.421
  568MPD2     H 8464   0.949   1.784  16.696
  568MPD2    H1 8465   0.801   1.723  16.302
  568MPD2    H2 8466   0.873   1.399  16.559
  568MPD2    H3 8467   0.818   1.470  16.349
  568MPD2     N 8468   0.869   1.916  16.480
  568MPD2    H5 8469   0.902   1.964  16.563
  568MPD2    N1 8470   0.953   1.532  16.763
  568MPD2    H7 8471   0.986   1.436  16.756
  569TMC3    C1 8472   0.893   2.127  16.392
  569TMC3    C2 8473   0.927   2.169  16.519
  569TMC3    C3 8474   1.015   2.274  16.535
  569TMC3    C4 8475   0.956   2.181  16.282
  569TMC3    C5 8476   1.047   2.281  16.303
  569TMC3    C6 8477   1.083   2.323  16.428
  569TMC3     C 8478   0.853   1.991  16.369
  569TMC3     O 8479   0.854   1.936  16.259
  569TMC3     H 8480   0.871   2.128  16.603
  569TMC3    H1 8481   0.940   2.138  16.184
  569TMC3    H2 8482   1.136   2.416  16.443
  569TMC3    C7 8483   1.068   2.351  16.184
  569TMC3    C8 8484   0.998   2.365  16.641
  569TMC3    O1 8485   1.103   2.303  16.079
  569TMC3    O2 8486   0.882   2.368  16.683
  570TMC3    C1 8487   0.403   0.575  16.348
  570TMC3    C2 8488   0.523   0.546  16.284
  570TMC3    C3 8489   0.576   0.644  16.202
  570TMC3    C4 8490   0.328   0.688  16.321
  570TMC3    C5 8491   0.395   0.788  16.246
  570TMC3    C6 8492   0.514   0.763  16.191
  570TMC3     C 8493   0.359   0.474  16.445
  570TMC3     O 8494   0.390   0.354  16.429
  570TMC3     H 8495   0.582   0.456  16.303
  570TMC3    H1 8496   0.237   0.715  16.373
  570TMC3    H2 8497   0.553   0.850  16.141
  570TMC3    C7 8498   0.389   0.913  16.311
  570TMC3    C8 8499   0.720   0.644  16.149
  570TMC3    O1 8500   0.499   0.947  16.359
  570TMC3    O2 8501   0.772   0.756  16.147
  571MPD2     C 8502   2.940   2.519  17.585
  571MPD2    C1 8503   2.885   2.593  17.684
  571MPD2    C2 8504   2.955   2.695  17.749
  571MPD2    C3 8505   3.072   2.742  17.688
  571MPD2    C4 8506   3.122   2.677  17.577
  571MPD2    C5 8507   3.058   2.565  17.533
  571MPD2     H 8508   2.909   2.741  17.836
  571MPD2    H1 8509   3.212   2.714  17.528
  571MPD2    H2 8510   2.898   2.425  17.552
  571MPD2    H3 8511   3.109   2.509  17.455
  571MPD2     N 8512   3.138   2.858  17.731
  571MPD2    H5 8513   3.227   2.864  17.684
  571MPD2    N1 8514   2.758   2.541  17.730
  571MPD2    H7 8515   2.710   2.473  17.672
  572TMC3    C1 8516   3.185   3.057  17.842
  572TMC3    C2 8517   3.295   3.009  17.918
  572TMC3    C3 8518   3.329   3.071  18.029
  572TMC3    C4 8519   3.123   3.166  17.898
  572TMC3    C5 8520   3.172   3.238  18.005
  572TMC3    C6 8521   3.277   3.190  18.076
  572TMC3     C 8522   3.092   2.946  17.830
  572TMC3     O 8523   2.991   2.955  17.895
  572TMC3     H 8524   3.330   2.909  17.898
  572TMC3    H1 8525   3.029   3.197  17.854
  572TMC3    H2 8526   3.328   3.245  18.155
  572TMC3    C7 8527   3.120   3.368  18.030
  572TMC3    C8 8528   3.410   2.996  18.117
  572TMC3    O1 8529   3.010   3.395  17.989
  572TMC3    O2 8530   3.490   2.919  18.064
  573MPD2     C 8531   4.008   2.890  18.473
  573MPD2    C1 8532   4.135   2.924  18.442
  573MPD2    C2 8533   4.186   2.903  18.316
  573MPD2    C3 8534   4.099   2.849  18.217
  573MPD2    C4 8535   3.982   2.806  18.248
  573MPD2    C5 8536   3.938   2.828  18.376
  573MPD2     H 8537   4.292   2.916  18.297
  573MPD2    H1 8538   3.925   2.742  18.182
  573MPD2    H2 8539   3.969   2.899  18.574
  573MPD2    H3 8540   3.842   2.791  18.409
  573MPD2     N 8541   4.141   2.840  18.079
  573MPD2    H5 8542   4.088   2.777  18.020
  573MPD2    N1 8543   4.209   2.974  18.549
  573MPD2    H7 8544   4.168   2.967  18.641
  574TMC3    C1 8545   4.264   2.838  17.876
  574TMC3    C2 8546   4.156   2.790  17.809
  574TMC3    C3 8547   4.131   2.815  17.675
  574TMC3    C4 8548   4.365   2.903  17.802
  574TMC3    C5 8549   4.336   2.919  17.662
  574TMC3    C6 8550   4.214   2.893  17.604
  574TMC3     C 8551   4.264   2.863  18.017
  574TMC3     O 8552   4.349   2.940  18.062
  574TMC3     H 8553   4.089   2.725  17.864
  574TMC3    H1 8554   4.452   2.942  17.854
  574TMC3    H2 8555   4.204   2.897  17.496
  574TMC3    C7 8556   4.427   3.007  17.586
  574TMC3    C8 8557   3.990   2.843  17.643
  574TMC3    O1 8558   4.430   2.993  17.465
  574TMC3    O2 8559   3.916   2.751  17.676
  575TMC3    C1 8560   2.147   4.041  11.584
  575TMC3    C2 8561   2.112   3.922  11.623
  575TMC3    C3 8562   2.003   3.869  11.579
  575TMC3    C4 8563   2.085   4.112  11.487
  575TMC3    C5 8564   1.971   4.054  11.436
  575TMC3    C6 8565   1.924   3.936  11.485
  575TMC3     C 8566   2.221   4.114  11.690
  575TMC3     O 8567   2.322   4.060  11.739
  575TMC3     H 8568   2.161   3.883  11.712
  575TMC3    H1 8569   2.121   4.211  11.464
  575TMC3    H2 8570   1.838   3.881  11.449
  575TMC3    C7 8571   1.908   4.111  11.322
  575TMC3    C8 8572   1.957   3.741  11.629
  575TMC3    O1 8573   1.929   4.231  11.294
  575TMC3    O2 8574   1.974   3.714  11.745
  576MPD2     C 8575   1.624   0.793  12.866
  576MPD2    C1 8576   1.652   0.917  12.806
  576MPD2    C2 8577   1.586   1.032  12.852
  576MPD2    C3 8578   1.501   1.013  12.954
  576MPD2    C4 8579   1.478   0.890  13.014
  576MPD2    C5 8580   1.545   0.777  12.973
  576MPD2     H 8581   1.597   1.129  12.805
  576MPD2    H1 8582   1.422   0.889  13.107
  576MPD2    H2 8583   1.665   0.700  12.828
  576MPD2    H3 8584   1.533   0.681  13.022
  576MPD2     N 8585   1.439   1.136  12.999
  576MPD2    H5 8586   1.489   1.219  12.970
  576MPD2    N1 8587   1.731   0.935  12.686
  576MPD2    H7 8588   1.738   1.029  12.650
  577TMC3    C1 8589   1.903   0.875  12.539
  577TMC3    C2 8590   2.025   0.819  12.537
  577TMC3    C3 8591   2.121   0.874  12.453
  577TMC3    C4 8592   1.870   0.979  12.458
  577TMC3    C5 8593   1.967   1.034  12.381
  577TMC3    C6 8594   2.095   0.989  12.386
  577TMC3     C 8595   1.804   0.830  12.634
  577TMC3     O 8596   1.827   0.716  12.673
  577TMC3     H 8597   2.054   0.744  12.609
  577TMC3    H1 8598   1.766   1.005  12.443
  577TMC3    H2 8599   2.174   1.048  12.342
  577TMC3    C7 8600   1.931   1.060  12.243
  577TMC3    C8 8601   2.188   0.773  12.370
  577TMC3    O1 8602   2.014   1.042  12.159
  577TMC3    O2 8603   2.162   0.660  12.408
  578MPD2     C 8604   4.301   1.215  18.874
  578MPD2    C1 8605   4.337   1.089  18.851
  578MPD2    C2 8606   4.423   1.021  18.935
  578MPD2    C3 8607   4.474   1.089  19.040
  578MPD2    C4 8608   4.436   1.218  19.062
  578MPD2    C5 8609   4.343   1.283  18.991
  578MPD2     H 8610   4.452   0.918  18.920
  578MPD2    H1 8611   4.483   1.273  19.143
  578MPD2    H2 8612   4.249   1.272  18.798
  578MPD2    H3 8613   4.312   1.386  19.003
  578MPD2     N 8614   4.570   1.017  19.115
  578MPD2    H5 8615   4.587   0.920  19.092
  578MPD2    N1 8616   4.289   1.036  18.722
  578MPD2    H7 8617   4.239   1.099  18.660
  579TMC3    C1 8618   4.739   0.984  19.292
  579TMC3    C2 8619   0.055   1.048  19.357
  579TMC3    C3 8620   0.146   0.959  19.417
  579TMC3    C4 8621   4.720   0.848  19.273
  579TMC3    C5 8622   0.025   0.768  19.345
  579TMC3    C6 8623   0.127   0.817  19.420
  579TMC3     C 8624   4.647   1.072  19.219
  579TMC3     O 8625   4.644   1.185  19.265
  579TMC3     H 8626   0.055   1.155  19.372
  579TMC3    H1 8627   4.627   0.815  19.228
  579TMC3    H2 8628   0.200   0.750  19.466
  579TMC3    C7 8629   0.010   0.628  19.340
  579TMC3    C8 8630   0.254   1.019  19.495
  579TMC3    O1 8631   0.052   0.573  19.441
  579TMC3    O2 8632   0.255   1.139  19.492
  580TMC3    C1 8633   4.245   0.093  12.577
  580TMC3    C2 8634   4.369   0.096  12.524
  580TMC3    C3 8635   4.409   0.002  12.432
  580TMC3    C4 8636   4.168   4.764  12.557
  580TMC3    C5 8637   4.217   4.665  12.476
  580TMC3    C6 8638   4.331   4.676  12.405
  580TMC3     C 8639   4.176   0.223  12.593
  580TMC3     O 8640   4.250   0.323  12.573
  580TMC3     H 8641   4.438   0.176  12.547
  580TMC3    H1 8642   4.075   4.742  12.608
  580TMC3    H2 8643   4.349   4.602  12.328
  580TMC3    C7 8644   4.203   4.523  12.529
  580TMC3    C8 8645   4.495   0.043  12.322
  580TMC3    O1 8646   4.157   4.514  12.645
  580TMC3    O2 8647   4.458   0.018  12.208
  581MPD2     C 8648   2.265   4.306  14.776
  581MPD2    C1 8649   2.267   4.326  14.911
  581MPD2    C2 8650   2.160   4.398  14.967
  581MPD2    C3 8651   2.050   4.443  14.887
  581MPD2    C4 8652   2.057   4.421  14.748
  581MPD2    C5 8653   2.169   4.358  14.695
  581MPD2     H 8654   2.150   4.410  15.074
  581MPD2    H1 8655   1.973   4.446  14.685
  581MPD2    H2 8656   2.346   4.251  14.730
  581MPD2    H3 8657   2.165   4.322  14.593
  581MPD2     N 8658   1.927   4.471  14.954
  581MPD2    H5 8659   1.933   4.486  15.054
  581MPD2    N1 8660   2.377   4.267  14.984
  581MPD2    H7 8661   2.449   4.216  14.933
  582TMC3    C1 8662   2.472   4.181  15.167
  582TMC3    C2 8663   2.516   4.198  15.293
  582TMC3    C3 8664   2.549   4.091  15.365
  582TMC3    C4 8665   2.439   4.053  15.122
  582TMC3    C5 8666   2.455   3.949  15.210
  582TMC3    C6 8667   2.532   3.957  15.325
  582TMC3     C 8668   2.390   4.282  15.119
  582TMC3     O 8669   2.344   4.362  15.202
  582TMC3     H 8670   2.525   4.300  15.331
  582TMC3    H1 8671   2.363   4.042  15.046
  582TMC3    H2 8672   2.542   3.870  15.389
  582TMC3    C7 8673   2.334   3.888  15.252
  582TMC3    C8 8674   2.557   4.116  15.512
  582TMC3    O1 8675   2.341   3.772  15.299
  582TMC3    O2 8676   2.498   4.214  15.547
  583MPD2     C 8677   2.352   1.144  16.971
  583MPD2    C1 8678   2.317   1.256  16.896
  583MPD2    C2 8679   2.252   1.357  16.957
  583MPD2    C3 8680   2.215   1.350  17.090
  583MPD2    C4 8681   2.245   1.238  17.166
  583MPD2    C5 8682   2.311   1.130  17.105
  583MPD2     H 8683   2.234   1.453  16.911
  583MPD2    H1 8684   2.226   1.224  17.271
  583MPD2    H2 8685   2.404   1.060  16.926
  583MPD2    H3 8686   2.331   1.047  17.172
  583MPD2     N 8687   2.121   1.451  17.137
  583MPD2    H5 8688   2.100   1.526  17.072
  583MPD2    N1 8689   2.365   1.270  16.763
  583MPD2    H7 8690   2.336   1.354  16.714
  584TMC3    C1 8691   2.023   1.595  17.290
  584TMC3    C2 8692   2.003   1.692  17.190
  584TMC3    C3 8693   1.927   1.801  17.224
  584TMC3    C4 8694   1.980   1.620  17.421
  584TMC3    C5 8695   1.910   1.733  17.451
  584TMC3    C6 8696   1.877   1.830  17.354
  584TMC3     C 8697   2.093   1.468  17.270
  584TMC3     O 8698   2.124   1.408  17.370
  584TMC3     H 8699   2.069   1.695  17.104
  584TMC3    H1 8700   2.005   1.550  17.500
  584TMC3    H2 8701   1.820   1.918  17.380
  584TMC3    C7 8702   1.857   1.745  17.583
  584TMC3    C8 8703   1.941   1.908  17.135
  584TMC3    O1 8704   1.851   1.643  17.651
  584TMC3    O2 8705   1.928   1.872  17.018
  585MPD2     C 8706   1.654   0.331  18.979
  585MPD2    C1 8707   1.736   0.399  18.889
  585MPD2    C2 8708   1.713   0.383  18.756
  585MPD2    C3 8709   1.613   0.303  18.708
  585MPD2    C4 8710   1.518   0.257  18.795
  585MPD2    C5 8711   1.547   0.263  18.930
  585MPD2     H 8712   1.790   0.418  18.687
  585MPD2    H1 8713   1.445   0.186  18.757
  585MPD2    H2 8714   1.671   0.333  19.086
  585MPD2    H3 8715   1.489   0.212  19.007
  585MPD2     N 8716   1.580   0.273  18.568
  585MPD2    H5 8717   1.501   0.213  18.547
  585MPD2    N1 8718   1.845   0.472  18.946
  585MPD2    H7 8719   1.862   0.457  19.045
  586TMC3    C1 8720   1.609   0.262  18.344
  586TMC3    C2 8721   1.704   0.290  18.251
  586TMC3    C3 8722   1.666   0.348  18.135
  586TMC3    C4 8723   1.475   0.272  18.329
  586TMC3    C5 8724   1.438   0.318  18.211
  586TMC3    C6 8725   1.528   0.369  18.120
  586TMC3     C 8726   1.666   0.295  18.470
  586TMC3     O 8727   1.773   0.356  18.480
  586TMC3     H 8728   1.809   0.273  18.271
  586TMC3    H1 8729   1.396   0.242  18.397
  586TMC3    H2 8730   1.503   0.421  18.028
  586TMC3    C7 8731   1.333   0.232  18.154
  586TMC3    C8 8732   1.701   0.256  18.032
  586TMC3    O1 8733   1.300   0.134  18.220
  586TMC3    O2 8734   1.745   0.144  18.059
  587TMC3    C1 8735   3.905   3.761  16.415
  587TMC3    C2 8736   3.888   3.890  16.458
  587TMC3    C3 8737   4.006   3.949  16.495
  587TMC3    C4 8738   4.027   3.694  16.421
  587TMC3    C5 8739   4.137   3.752  16.471
  587TMC3    C6 8740   4.127   3.880  16.509
  587TMC3     C 8741   3.788   3.696  16.364
  587TMC3     O 8742   3.800   3.608  16.279
  587TMC3     H 8743   3.793   3.941  16.451
  587TMC3    H1 8744   4.046   3.598  16.374
  587TMC3    H2 8745   4.207   3.938  16.554
  587TMC3    C7 8746   4.228   3.668  16.548
  587TMC3    C8 8747   4.000   4.083  16.555
  587TMC3    O1 8748   4.176   3.559  16.580
  587TMC3    O2 8749   4.096   4.153  16.546
  588TMC3    C1 8750   1.011   1.794  10.193
  588TMC3    C2 8751   1.018   1.665  10.219
  588TMC3    C3 8752   1.139   1.615  10.258
  588TMC3    C4 8753   1.123   1.876  10.196
  588TMC3    C5 8754   1.250   1.821  10.222
  588TMC3    C6 8755   1.261   1.689  10.260
  588TMC3     C 8756   0.889   1.846  10.122
  588TMC3     O 8757   0.814   1.763  10.073
  588TMC3     H 8758   0.930   1.601  10.223
  588TMC3    H1 8759   1.104   1.983  10.190
  588TMC3    H2 8760   1.361   1.651  10.281
  588TMC3    C7 8761   1.358   1.905  10.189
  588TMC3    C8 8762   1.142   1.476  10.289
  588TMC3    O1 8763   1.465   1.879  10.246
  588TMC3    O2 8764   1.037   1.416  10.267
  589TMC3    C1 8765   0.485   3.629  19.124
  589TMC3    C2 8766   0.579   3.660  19.227
  589TMC3    C3 8767   0.712   3.624  19.204
  589TMC3    C4 8768   0.520   3.565  19.011
  589TMC3    C5 8769   0.650   3.522  18.993
  589TMC3    C6 8770   0.753   3.562  19.088
  589TMC3     C 8771   0.344   3.621  19.169
  589TMC3     O 8772   0.253   3.601  19.084
  589TMC3     H 8773   0.557   3.727  19.309
  589TMC3    H1 8774   0.443   3.522  18.948
  589TMC3    H2 8775   0.850   3.522  19.063
  589TMC3    C7 8776   0.666   3.411  18.903
  589TMC3    C8 8777   0.786   3.611  19.325
  589TMC3    O1 8778   0.572   3.332  18.889
  589TMC3    O2 8779   0.723   3.594  19.431
  590MPD2     C 8780   4.361   1.916  16.732
  590MPD2    C1 8781   4.376   2.008  16.629
  590MPD2    C2 8782   4.497   2.068  16.604
  590MPD2    C3 8783   4.608   2.024  16.673
  590MPD2    C4 8784   4.599   1.921  16.775
  590MPD2    C5 8785   4.477   1.865  16.802
  590MPD2     H 8786   4.494   2.149  16.533
  590MPD2    H1 8787   4.684   1.878  16.827
  590MPD2    H2 8788   4.268   1.869  16.764
  590MPD2    H3 8789   4.476   1.787  16.878
  590MPD2     N 8790   4.727   2.096  16.654
  590MPD2    H5 8791   4.711   2.178  16.596
  590MPD2    N1 8792   4.256   2.044  16.556
  590MPD2    H7 8793   4.172   2.012  16.603
  591TMC3    C1 8794   0.161   2.163  16.643
  591TMC3    C2 8795   0.253   2.121  16.549
  591TMC3    C3 8796   0.322   2.221  16.484
  591TMC3    C4 8797   0.128   2.293  16.664
  591TMC3    C5 8798   0.200   2.393  16.601
  591TMC3    C6 8799   0.293   2.356  16.507
  591TMC3     C 8800   0.075   2.061  16.690
  591TMC3     O 8801   0.119   1.959  16.733
  591TMC3     H 8802   0.266   2.019  16.516
  591TMC3    H1 8803   0.059   2.315  16.745
  591TMC3    H2 8804   0.341   2.431  16.446
  591TMC3    C7 8805   0.148   2.532  16.607
  591TMC3    C8 8806   0.403   2.183  16.366
  591TMC3    O1 8807   0.036   2.536  16.657
  591TMC3    O2 8808   0.425   2.060  16.360
  592MPD2     C 8809   0.359   4.377  11.911
  592MPD2    C1 8810   0.410   4.372  12.037
  592MPD2    C2 8811   0.370   4.262  12.126
  592MPD2    C3 8812   0.271   4.175  12.087
  592MPD2    C4 8813   0.222   4.185  11.956
  592MPD2    C5 8814   0.279   4.275  11.869
  592MPD2     H 8815   0.414   4.244  12.224
  592MPD2    H1 8816   0.143   4.119  11.923
  592MPD2    H2 8817   0.403   4.445  11.839
  592MPD2    H3 8818   0.243   4.283  11.767
  592MPD2     N 8819   0.223   4.092  12.187
  592MPD2    H5 8820   0.268   4.101  12.278
  592MPD2    N1 8821   0.507   4.476  12.078
  592MPD2    H7 8822   0.518   4.554  12.013
  593TMC3    C1 8823   0.625   4.614  12.239
  593TMC3    C2 8824   0.610   4.664  12.368
  593TMC3    C3 8825   0.680   4.776  12.403
  593TMC3    C4 8826   0.706   4.669  12.146
  593TMC3    C5 8827   0.781   4.782  12.185
  593TMC3    C6 8828   0.761   0.056  12.312
  593TMC3     C 8829   0.551   4.496  12.209
  593TMC3     O 8830   0.534   4.428  12.309
  593TMC3     H 8831   0.541   4.617  12.437
  593TMC3    H1 8832   0.708   4.643  12.041
  593TMC3    H2 8833   0.819   0.140  12.349
  593TMC3    C7 8834   0.863   0.079  12.089
  593TMC3    C8 8835   0.654   0.058  12.530
  593TMC3    O1 8836   0.931   0.168  12.136
  593TMC3    O2 8837   0.537   0.073  12.561
  594MPD2     C 8838   3.768   2.920  14.499
  594MPD2    C1 8839   3.784   2.912  14.635
  594MPD2    C2 8840   3.889   2.981  14.696
  594MPD2    C3 8841   3.967   3.066  14.618
  594MPD2    C4 8842   3.956   3.062  14.477
  594MPD2    C5 8843   3.854   2.986  14.423
  594MPD2     H 8844   3.906   2.976  14.803
  594MPD2    H1 8845   4.013   3.127  14.411
  594MPD2    H2 8846   3.709   2.847  14.445
  594MPD2    H3 8847   3.853   2.981  14.315
  594MPD2     N 8848   4.062   3.146  14.685
  594MPD2    H5 8849   4.048   3.151  14.785
  594MPD2    N1 8850   3.713   2.810  14.704
  594MPD2    H7 8851   3.652   2.764  14.637
  595TMC3    C1 8852   4.359   3.530  14.657
  595TMC3    C2 8853   4.315   3.406  14.620
  595TMC3    C3 8854   4.203   3.343  14.679
  595TMC3    C4 8855   4.283   3.600  14.746
  595TMC3    C5 8856   4.189   3.529  14.810
  595TMC3    C6 8857   4.140   3.405  14.782
  595TMC3     C 8858   4.497   3.536  14.680
  595TMC3     O 8859   4.538   3.606  14.771
  595TMC3     H 8860   4.371   3.347  14.548
  595TMC3    H1 8861   4.321   3.695  14.781
  595TMC3    H2 8862   4.052   3.372  14.837
  595TMC3    C7 8863   4.157   3.581  14.943
  595TMC3    C8 8864   4.158   3.222  14.617
  595TMC3    O1 8865   4.050   3.545  14.983
  595TMC3    O2 8866   4.211   3.198  14.514
  596MPD2     C 8867   2.961   1.253  17.199
  596MPD2    C1 8868   2.969   1.367  17.124
  596MPD2    C2 8869   3.035   1.357  17.000
  596MPD2    C3 8870   3.078   1.235  16.944
  596MPD2    C4 8871   3.083   1.130  17.031
  596MPD2    C5 8872   3.020   1.142  17.153
  596MPD2     H 8873   3.029   1.454  16.950
  596MPD2    H1 8874   3.136   1.039  17.008
  596MPD2    H2 8875   2.923   1.259  17.301
  596MPD2    H3 8876   3.011   1.053  17.215
  596MPD2     N 8877   3.137   1.219  16.823
  596MPD2    H5 8878   3.181   1.130  16.803
  596MPD2    N1 8879   2.907   1.490  17.156
  596MPD2    H7 8880   2.914   1.567  17.090
  597TMC3    C1 8881   2.790   1.651  17.259
  597TMC3    C2 8882   2.854   1.746  17.179
  597TMC3    C3 8883   2.803   1.873  17.176
  597TMC3    C4 8884   2.679   1.673  17.333
  597TMC3    C5 8885   2.625   1.800  17.321
  597TMC3    C6 8886   2.685   1.900  17.237
  597TMC3     C 8887   2.844   1.514  17.274
  597TMC3     O 8888   2.821   1.439  17.371
  597TMC3     H 8889   2.946   1.720  17.127
  597TMC3    H1 8890   2.644   1.603  17.408
  597TMC3    H2 8891   2.659   2.004  17.251
  597TMC3    C7 8892   2.533   1.846  17.421
  597TMC3    C8 8893   2.881   1.981  17.132
  597TMC3    O1 8894   2.499   1.763  17.506
  597TMC3    O2 8895   2.878   2.080  17.203
  598TMC3    C1 8896   1.090   2.605  15.539
  598TMC3    C2 8897   0.977   2.532  15.509
  598TMC3    C3 8898   0.916   2.549  15.391
  598TMC3    C4 8899   1.137   2.692  15.447
  598TMC3    C5 8900   1.079   2.700  15.327
  598TMC3    C6 8901   0.967   2.631  15.294
  598TMC3     C 8902   1.179   2.537  15.631
  598TMC3     O 8903   1.139   2.455  15.712
  598TMC3     H 8904   0.941   2.459  15.581
  598TMC3    H1 8905   1.227   2.749  15.468
  598TMC3    H2 8906   0.920   2.630  15.197
  598TMC3    C7 8907   1.119   2.799  15.229
  598TMC3    C8 8908   0.799   2.474  15.361
  598TMC3    O1 8909   1.067   2.789  15.121
  598TMC3    O2 8910   0.792   2.419  15.252
  599MPD2     C 8911   1.527   0.377  16.140
  599MPD2    C1 8912   1.461   0.255  16.145
  599MPD2    C2 8913   1.335   0.242  16.198
  599MPD2    C3 8914   1.281   0.348  16.271
  599MPD2    C4 8915   1.353   0.467  16.271
  599MPD2    C5 8916   1.462   0.486  16.195
  599MPD2     H 8917   1.290   0.145  16.215
  599MPD2    H1 8918   1.319   0.554  16.325
  599MPD2    H2 8919   1.623   0.382  16.091
  599MPD2    H3 8920   1.511   0.582  16.196
  599MPD2     N 8921   1.161   0.356  16.343
  599MPD2    H5 8922   1.143   0.442  16.394
  599MPD2    N1 8923   1.526   0.146  16.085
  599MPD2    H7 8924   1.624   0.171  16.071
  600TMC3    C1 8925   0.951   0.291  16.418
  600TMC3    C2 8926   0.863   0.188  16.442
  600TMC3    C3 8927   0.739   0.222  16.489
  600TMC3    C4 8928   0.917   0.423  16.455
  600TMC3    C5 8929   0.797   0.452  16.502
  600TMC3    C6 8930   0.698   0.350  16.516
  600TMC3     C 8931   1.070   0.252  16.349
  600TMC3     O 8932   1.074   0.142  16.299
  600TMC3     H 8933   0.889   0.086  16.415
  600TMC3    H1 8934   0.983   0.501  16.418
  600TMC3    H2 8935   0.606   0.372  16.569
  600TMC3    C7 8936   0.783   0.572  16.582
  600TMC3    C8 8937   0.668   0.114  16.542
  600TMC3    O1 8938   0.670   0.617  16.608
  600TMC3    O2 8939   0.728   0.012  16.562
  601MPD2     C 8940   3.170   3.855  18.193
  601MPD2    C1 8941   3.063   3.789  18.134
  601MPD2    C2 8942   3.071   3.656  18.106
  601MPD2    C3 8943   3.184   3.588  18.139
  601MPD2    C4 8944   3.290   3.652  18.205
  601MPD2    C5 8945   3.275   3.783  18.236
  601MPD2     H 8946   2.991   3.612  18.047
  601MPD2    H1 8947   3.378   3.602  18.244
  601MPD2    H2 8948   3.175   3.961  18.212
  601MPD2    H3 8949   3.360   3.836  18.279
  601MPD2     N 8950   3.208   3.450  18.106
  601MPD2    H5 8951   3.298   3.414  18.134
  601MPD2    N1 8952   2.939   3.849  18.109
  601MPD2    H7 8953   2.882   3.804  18.038
  602TMC3    C1 8954   2.775   4.014  18.080
  602TMC3    C2 8955   2.752   4.147  18.058
  602TMC3    C3 8956   2.642   4.178  17.986
  602TMC3    C4 8957   2.682   3.920  18.034
  602TMC3    C5 8958   2.564   3.954  17.971
  602TMC3    C6 8959   2.544   4.086  17.945
  602TMC3     C 8960   2.911   3.986  18.128
  602TMC3     O 8961   2.978   4.081  18.165
  602TMC3     H 8962   2.820   4.224  18.094
  602TMC3    H1 8963   2.703   3.814  18.044
  602TMC3    H2 8964   2.444   4.120  17.920
  602TMC3    C7 8965   2.496   3.858  17.894
  602TMC3    C8 8966   2.623   4.316  17.959
  602TMC3    O1 8967   2.539   3.742  17.892
  602TMC3    O2 8968   2.646   4.384  18.058
  603TMC3    C1 8969   1.510   3.653  11.463
  603TMC3    C2 8970   1.542   3.609  11.588
  603TMC3    C3 8971   1.582   3.701  11.683
  603TMC3    C4 8972   1.503   3.783  11.431
  603TMC3    C5 8973   1.545   3.872  11.527
  603TMC3    C6 8974   1.574   3.838  11.654
  603TMC3     C 8975   1.433   3.567  11.368
  603TMC3     O 8976   1.352   3.626  11.295
  603TMC3     H 8977   1.543   3.504  11.613
  603TMC3    H1 8978   1.499   3.808  11.326
  603TMC3    H2 8979   1.639   3.904  11.710
  603TMC3    C7 8980   1.571   4.009  11.485
  603TMC3    C8 8981   1.607   3.654  11.821
  603TMC3    O1 8982   1.655   4.072  11.553
  603TMC3    O2 8983   1.595   3.538  11.848
  604MPD2     C 8984   2.279   2.483  16.536
  604MPD2    C1 8985   2.182   2.397  16.502
  604MPD2    C2 8986   2.188   2.333  16.380
  604MPD2    C3 8987   2.292   2.356  16.289
  604MPD2    C4 8988   2.388   2.450  16.327
  604MPD2    C5 8989   2.380   2.514  16.448
  604MPD2     H 8990   2.108   2.269  16.345
  604MPD2    H1 8991   2.466   2.483  16.259
  604MPD2    H2 8992   2.265   2.523  16.635
  604MPD2    H3 8993   2.445   2.597  16.475
  604MPD2     N 8994   2.298   2.290  16.164
  604MPD2    H5 8995   2.211   2.254  16.127
  604MPD2    N1 8996   2.073   2.388  16.601
  604MPD2    H7 8997   2.088   2.453  16.677
  605TMC3    C1 8998   1.864   2.345  16.690
  605TMC3    C2 8999   1.925   2.383  16.802
  605TMC3    C3 9000   1.892   2.491  16.877
  605TMC3    C4 9001   1.763   2.423  16.638
  605TMC3    C5 9002   1.719   2.533  16.712
  605TMC3    C6 9003   1.786   2.569  16.829
  605TMC3     C 9004   1.964   2.307  16.591
  605TMC3     O 9005   1.941   2.224  16.504
  605TMC3     H 9006   2.004   2.328  16.851
  605TMC3    H1 9007   1.725   2.403  16.539
  605TMC3    H2 9008   1.759   2.659  16.882
  605TMC3    C7 9009   1.604   2.613  16.667
  605TMC3    C8 9010   2.015   2.573  16.891
  605TMC3    O1 9011   1.545   2.684  16.746
  605TMC3    O2 9012   2.112   2.539  16.824
  606TMC3    C1 9013   3.155   1.394  17.578
  606TMC3    C2 9014   3.155   1.408  17.720
  606TMC3    C3 9015   3.126   1.301  17.791
  606TMC3    C4 9016   3.124   1.269  17.520
  606TMC3    C5 9017   3.105   1.165  17.600
  606TMC3    C6 9018   3.104   1.179  17.738
  606TMC3     C 9019   3.154   1.512  17.496
  606TMC3     O 9020   3.160   1.617  17.556
  606TMC3     H 9021   3.171   1.509  17.755
  606TMC3    H1 9022   3.106   1.253  17.414
  606TMC3    H2 9023   3.093   1.089  17.797
  606TMC3    C7 9024   3.143   1.036  17.546
  606TMC3    C8 9025   3.188   1.309  17.924
  606TMC3    O1 9026   3.204   1.038  17.436
  606TMC3    O2 9027   3.270   1.397  17.933
  607MPD2     C 9028   0.515   3.912  12.105
  607MPD2    C1 9029   0.557   3.971  12.225
  607MPD2    C2 9030   0.511   3.919  12.343
  607MPD2    C3 9031   0.426   3.816  12.345
  607MPD2    C4 9032   0.378   3.757  12.225
  607MPD2    C5 9033   0.421   3.812  12.106
  607MPD2     H 9034   0.526   3.964  12.440
  607MPD2    H1 9035   0.322   3.665  12.235
  607MPD2    H2 9036   0.562   3.944  12.013
  607MPD2    H3 9037   0.391   3.768  12.012
  607MPD2     N 9038   0.383   3.766  12.468
  607MPD2    H5 9039   0.418   3.814  12.550
  607MPD2    N1 9040   0.651   4.077  12.232
  607MPD2    H7 9041   0.676   4.101  12.328
  608TMC3    C1 9042   0.821   4.224  12.177
  608TMC3    C2 9043   0.845   4.227  12.314
  608TMC3    C3 9044   0.896   4.341  12.369
  608TMC3    C4 9045   0.851   4.334  12.097
  608TMC3    C5 9046   0.917   4.432  12.162
  608TMC3    C6 9047   0.928   4.449  12.297
  608TMC3     C 9048   0.707   4.144  12.129
  608TMC3     O 9049   0.679   4.147  12.011
  608TMC3     H 9050   0.848   4.138  12.375
  608TMC3    H1 9051   0.835   4.316  11.991
  608TMC3    H2 9052   0.960   4.538  12.350
  608TMC3    C7 9053   1.004   4.507  12.074
  608TMC3    C8 9054   0.837   4.374  12.504
  608TMC3    O1 9055   0.966   4.517  11.957
  608TMC3    O2 9056   0.832   4.497  12.530
  609TMC3    C1 9057   3.802   3.403   9.357
  609TMC3    C2 9058   3.722   3.379   9.250
  609TMC3    C3 9059   3.774   3.325   9.141
  609TMC3    C4 9060   3.942   3.379   9.341
  609TMC3    C5 9061   3.987   3.322   9.229
  609TMC3    C6 9062   3.903   3.289   9.123
  609TMC3     C 9063   3.744   3.441   9.480
  609TMC3     O 9064   3.622   3.412   9.494
  609TMC3     H 9065   3.617   3.401   9.259
  609TMC3    H1 9066   4.006   3.400   9.427
  609TMC3    H2 9067   3.941   3.235   9.037
  609TMC3    C7 9068   4.118   3.263   9.233
  609TMC3    C8 9069   3.677   3.255   9.056
  609TMC3    O1 9070   4.187   3.310   9.323
  609TMC3    O2 9071   3.557   3.241   9.088
  610TMC3    C1 9072   0.899   3.876  12.934
  610TMC3    C2 9073   0.932   3.944  12.824
  610TMC3    C3 9074   1.022   3.891  12.739
  610TMC3    C4 9075   0.956   3.755  12.956
  610TMC3    C5 9076   1.056   3.704  12.881
  610TMC3    C6 9077   1.094   3.773  12.772
  610TMC3     C 9078   0.785   3.910  13.017
  610TMC3     O 9079   0.736   3.815  13.076
  610TMC3     H 9080   0.883   4.035  12.791
  610TMC3    H1 9081   0.943   3.703  13.051
  610TMC3    H2 9082   1.178   3.739  12.712
  610TMC3    C7 9083   1.145   3.611  12.936
  610TMC3    C8 9084   1.033   3.956  12.607
  610TMC3    O1 9085   1.263   3.623  12.904
  610TMC3    O2 9086   0.947   4.042  12.579
  611MPD2     C 9087   0.372   4.251  11.325
  611MPD2    C1 9088   0.369   4.235  11.192
  611MPD2    C2 9089   0.487   4.253  11.118
  611MPD2    C3 9090   0.606   4.281  11.182
  611MPD2    C4 9091   0.604   4.295  11.316
  611MPD2    C5 9092   0.490   4.282  11.388
  611MPD2     H 9093   0.483   4.226  11.013
  611MPD2    H1 9094   0.687   4.324  11.380
  611MPD2    H2 9095   0.287   4.257  11.392
  611MPD2    H3 9096   0.499   4.290  11.496
  611MPD2     N 9097   0.724   4.315  11.118
  611MPD2    H5 9098   0.807   4.331  11.174
  611MPD2    N1 9099   0.245   4.193  11.135
  611MPD2    H7 9100   0.166   4.169  11.194
  612TMC3    C1 9101   0.864   4.398  10.947
  612TMC3    C2 9102   0.966   4.412  11.035
  612TMC3    C3 9103   1.074   4.489  11.003
  612TMC3    C4 9104   0.873   4.456  10.818
  612TMC3    C5 9105   0.971   4.546  10.796
  612TMC3    C6 9106   1.073   4.572  10.889
  612TMC3     C 9107   0.731   4.350  10.986
  612TMC3     O 9108   0.643   4.362  10.899
  612TMC3     H 9109   0.967   4.374  11.137
  612TMC3    H1 9110   0.788   4.456  10.751
  612TMC3    H2 9111   1.150   4.644  10.861
  612TMC3    C7 9112   0.982   4.593  10.658
  612TMC3    C8 9113   1.198   4.499  11.089
  612TMC3    O1 9114   0.916   4.531  10.573
  612TMC3    O2 9115   1.252   4.607  11.097
  613MPD2     C 9116   4.695   1.405  16.773
  613MPD2    C1 9117   4.580   1.445  16.725
  613MPD2    C2 9118   4.456   1.378  16.757
  613MPD2    C3 9119   4.467   1.264  16.833
  613MPD2    C4 9120   4.592   1.222  16.877
  613MPD2    C5 9121   4.706   1.295  16.849
  613MPD2     H 9122   4.360   1.404  16.713
  613MPD2    H1 9123   4.597   1.130  16.935
  613MPD2    H2 9124   0.004   1.460  16.750
  613MPD2    H3 9125   0.020   1.269  16.890
  613MPD2     N 9126   4.356   1.184  16.862
  613MPD2    H5 9127   4.378   1.087  16.880
  613MPD2    N1 9128   4.575   1.546  16.626
  613MPD2    H7 9129   4.661   1.572  16.579
  614TMC3    C1 9130   4.478   1.653  16.442
  614TMC3    C2 9131   4.537   1.554  16.370
  614TMC3    C3 9132   4.470   1.511  16.253
  614TMC3    C4 9133   4.378   1.726  16.396
  614TMC3    C5 9134   4.330   1.697  16.271
  614TMC3    C6 9135   4.377   1.592  16.195
  614TMC3     C 9136   4.465   1.614  16.584
  614TMC3     O 9137   4.349   1.617  16.637
  614TMC3     H 9138   4.610   1.488  16.416
  614TMC3    H1 9139   4.316   1.785  16.463
  614TMC3    H2 9140   4.314   1.552  16.116
  614TMC3    C7 9141   4.209   1.764  16.229
  614TMC3    C8 9142   4.433   1.369  16.257
  614TMC3    O1 9143   4.141   1.830  16.313
  614TMC3    O2 9144   4.482   1.304  16.350
  615MPD2     C 9145   4.048   2.682  15.986
  615MPD2    C1 9146   3.923   2.702  16.048
  615MPD2    C2 9147   3.808   2.699  15.958
  615MPD2    C3 9148   3.816   2.659  15.827
  615MPD2    C4 9149   3.939   2.628  15.779
  615MPD2    C5 9150   4.051   2.653  15.855
  615MPD2     H 9151   3.711   2.735  15.993
  615MPD2    H1 9152   3.954   2.599  15.676
  615MPD2    H2 9153   4.140   2.675  16.044
  615MPD2    H3 9154   4.151   2.641  15.817
  615MPD2     N 9155   3.705   2.651  15.733
  615MPD2    H5 9156   3.715   2.644  15.632
  615MPD2    N1 9157   3.907   2.735  16.180
  615MPD2    H7 9158   3.811   2.732  16.213
  616TMC3    C1 9159   3.965   2.817  16.392
  616TMC3    C2 9160   4.069   2.870  16.477
  616TMC3    C3 9161   4.047   2.962  16.576
  616TMC3    C4 9162   3.837   2.852  16.417
  616TMC3    C5 9163   3.814   2.940  16.513
  616TMC3    C6 9164   3.918   3.004  16.588
  616TMC3     C 9165   4.009   2.765  16.267
  616TMC3     O 9166   4.133   2.750  16.250
  616TMC3     H 9167   4.174   2.852  16.458
  616TMC3    H1 9168   3.754   2.806  16.365
  616TMC3    H2 9169   3.877   3.078  16.656
  616TMC3    C7 9170   3.676   2.977  16.549
  616TMC3    C8 9171   4.121   3.082  16.562
  616TMC3    O1 9172   3.662   3.025  16.663
  616TMC3    O2 9173   4.062   3.185  16.563
  617MPD2     C 9174   1.903   1.218  14.139
  617MPD2    C1 9175   1.961   1.092  14.155
  617MPD2    C2 9176   1.858   0.993  14.161
  617MPD2    C3 9177   1.718   1.011  14.162
  617MPD2    C4 9178   1.680   1.139  14.128
  617MPD2    C5 9179   1.772   1.236  14.122
  617MPD2     H 9180   1.892   0.890  14.172
  617MPD2    H1 9181   1.577   1.171  14.139
  617MPD2    H2 9182   1.963   1.304  14.111
  617MPD2    H3 9183   1.736   1.338  14.116
  617MPD2     N 9184   1.624   0.912  14.184
  617MPD2    H5 9185   1.526   0.933  14.169
  617MPD2    N1 9186   2.099   1.076  14.144
  617MPD2    H7 9187   2.155   1.160  14.135
  618TMC3    C1 9188   2.299   0.944  14.149
  618TMC3    C2 9189   2.354   0.817  14.167
  618TMC3    C3 9190   2.470   0.812  14.240
  618TMC3    C4 9191   2.363   1.058  14.190
  618TMC3    C5 9192   2.481   1.042  14.268
  618TMC3    C6 9193   2.532   0.918  14.298
  618TMC3     C 9194   2.157   0.945  14.134
  618TMC3     O 9195   2.107   0.831  14.146
  618TMC3     H 9196   2.301   0.729  14.135
  618TMC3    H1 9197   2.321   1.157  14.177
  618TMC3    H2 9198   2.619   0.905  14.362
  618TMC3    C7 9199   2.547   1.157  14.324
  618TMC3    C8 9200   2.534   0.684  14.234
  618TMC3    O1 9201   2.474   1.250  14.361
  618TMC3    O2 9202   2.460   0.586  14.220
  619MPD2     C 9203   3.323   2.153  14.181
  619MPD2    C1 9204   3.273   2.238  14.077
  619MPD2    C2 9205   3.152   2.210  14.021
  619MPD2    C3 9206   3.074   2.101  14.051
  619MPD2    C4 9207   3.117   2.023  14.161
  619MPD2    C5 9208   3.244   2.043  14.218
  619MPD2     H 9209   3.127   2.283  13.945
  619MPD2    H1 9210   3.056   1.938  14.188
  619MPD2    H2 9211   3.420   2.165  14.228
  619MPD2    H3 9212   3.268   1.980  14.303
  619MPD2     N 9213   2.957   2.065  13.988
  619MPD2    H5 9214   2.909   1.989  14.035
  619MPD2    N1 9215   3.343   2.350  14.036
  619MPD2    H7 9216   3.298   2.407  13.965
  620TMC3    C1 9217   3.486   2.528  14.034
  620TMC3    C2 9218   3.415   2.569  13.921
  620TMC3    C3 9219   3.415   2.701  13.884
  620TMC3    C4 9220   3.562   2.610  14.109
  620TMC3    C5 9221   3.548   2.744  14.083
  620TMC3    C6 9222   3.490   2.789  13.962
  620TMC3     C 9223   3.458   2.403  14.093
  620TMC3     O 9224   3.539   2.370  14.178
  620TMC3     H 9225   3.373   2.489  13.860
  620TMC3    H1 9226   3.609   2.578  14.202
  620TMC3    H2 9227   3.490   2.895  13.942
  620TMC3    C7 9228   3.628   2.834  14.168
  620TMC3    C8 9229   3.292   2.745  13.837
  620TMC3    O1 9230   3.722   2.772  14.211
  620TMC3    O2 9231   3.233   2.837  13.886
  621MPD2     C 9232   3.527   2.262  10.622
  621MPD2    C1 9233   3.480   2.237  10.498
  621MPD2    C2 9234   3.453   2.345  10.421
  621MPD2    C3 9235   3.476   2.479  10.466
  621MPD2    C4 9236   3.517   2.494  10.598
  621MPD2    C5 9237   3.548   2.387  10.676
  621MPD2     H 9238   3.425   2.343  10.316
  621MPD2    H1 9239   3.522   2.596  10.635
  621MPD2    H2 9240   3.558   2.184  10.691
  621MPD2    H3 9241   3.588   2.403  10.775
  621MPD2     N 9242   3.449   2.583  10.381
  621MPD2    H5 9243   3.422   2.560  10.286
  621MPD2    N1 9244   3.452   2.105  10.460
  621MPD2    H7 9245   3.409   2.100  10.368
  622TMC3    C1 9246   3.402   1.869  10.473
  622TMC3    C2 9247   3.304   1.816  10.550
  622TMC3    C3 9248   3.215   1.737  10.479
  622TMC3    C4 9249   3.433   1.842  10.344
  622TMC3    C5 9250   3.347   1.755  10.290
  622TMC3    C6 9251   3.250   1.691  10.355
  622TMC3     C 9252   3.464   1.987  10.534
  622TMC3     O 9253   3.496   1.977  10.653
  622TMC3     H 9254   3.279   1.875  10.638
  622TMC3    H1 9255   3.519   1.887  10.294
  622TMC3    H2 9256   3.179   1.625  10.306
  622TMC3    C7 9257   3.359   1.722  10.145
  622TMC3    C8 9258   3.077   1.760  10.498
  622TMC3    O1 9259   3.309   1.613  10.109
  622TMC3    O2 9260   3.010   1.680  10.437
  623MPD2     C 9261   2.089   2.529  15.760
  623MPD2    C1 9262   2.022   2.532  15.881
  623MPD2    C2 9263   2.089   2.569  15.994
  623MPD2    C3 9264   2.230   2.591  15.988
  623MPD2    C4 9265   2.295   2.590  15.866
  623MPD2    C5 9266   2.223   2.553  15.757
  623MPD2     H 9267   2.033   2.596  16.082
  623MPD2    H1 9268   2.399   2.622  15.856
  623MPD2    H2 9269   2.039   2.512  15.666
  623MPD2    H3 9270   2.279   2.556  15.664
  623MPD2     N 9271   2.285   2.667  16.101
  623MPD2    H5 9272   2.226   2.670  16.184
  623MPD2    N1 9273   1.883   2.531  15.878
  623MPD2    H7 9274   1.834   2.552  15.792
  624TMC3    C1 9275   2.594   2.857  16.400
  624TMC3    C2 9276   2.494   2.889  16.481
  624TMC3    C3 9277   2.369   2.893  16.429
  624TMC3    C4 9278   2.572   2.799  16.273
  624TMC3    C5 9279   2.438   2.795  16.233
  624TMC3    C6 9280   2.335   2.840  16.311
  624TMC3     C 9281   2.717   2.827  16.465
  624TMC3     O 9282   2.818   2.876  16.417
  624TMC3     H 9283   2.510   2.922  16.583
  624TMC3    H1 9284   2.649   2.760  16.208
  624TMC3    H2 9285   2.232   2.853  16.278
  624TMC3    C7 9286   2.405   2.727  16.105
  624TMC3    C8 9287   2.267   2.874  16.530
  624TMC3    O1 9288   2.494   2.732  16.018
  624TMC3    O2 9289   2.186   2.786  16.513
  625MPD2     C 9290   3.085   4.155  18.851
  625MPD2    C1 9291   3.152   4.273  18.875
  625MPD2    C2 9292   3.273   4.256  18.921
  625MPD2    C3 9293   3.344   4.135  18.931
  625MPD2    C4 9294   3.272   4.023  18.901
  625MPD2    C5 9295   3.136   4.029  18.868
  625MPD2     H 9296   3.331   4.345  18.944
  625MPD2    H1 9297   3.331   3.932  18.899
  625MPD2    H2 9298   2.983   4.159  18.812
  625MPD2    H3 9299   3.082   3.938  18.845
  625MPD2     N 9300   3.477   4.142  18.978
  625MPD2    H5 9301   3.517   4.230  19.010
  625MPD2    N1 9302   3.101   4.402  18.848
  625MPD2    H7 9303   3.149   4.489  18.869
  626TMC3    C1 9304   2.972   4.578  18.764
  626TMC3    C2 9305   2.891   4.604  18.653
  626TMC3    C3 9306   2.868   4.737  18.628
  626TMC3    C4 9307   3.026   4.665  18.855
  626TMC3    C5 9308   2.997   0.013  18.822
  626TMC3    C6 9309   2.925   0.053  18.712
  626TMC3     C 9310   2.983   4.434  18.796
  626TMC3     O 9311   2.886   4.359  18.774
  626TMC3     H 9312   2.858   4.530  18.582
  626TMC3    H1 9313   3.085   4.637  18.941
  626TMC3    H2 9314   2.901   0.157  18.697
  626TMC3    C7 9315   2.954   0.098  18.930
  626TMC3    C8 9316   2.794   4.778  18.514
  626TMC3    O1 9317   3.013   0.202  18.950
  626TMC3    O2 9318   2.840   0.087  18.446
  627MPD2     C 9319   1.145   4.522  14.713
  627MPD2    C1 9320   1.197   4.448  14.820
  627MPD2    C2 9321   1.133   4.328  14.852
  627MPD2    C3 9322   1.022   4.288  14.791
  627MPD2    C4 9323   0.969   4.363  14.679
  627MPD2    C5 9324   1.034   4.479  14.655
  627MPD2     H 9325   1.179   4.272  14.933
  627MPD2    H1 9326   0.879   4.344  14.622
  627MPD2    H2 9327   1.190   4.607  14.663
  627MPD2    H3 9328   1.004   4.547  14.576
  627MPD2     N 9329   0.953   4.173  14.839
  627MPD2    H5 9330   0.989   4.133  14.924
  627MPD2    N1 9331   1.310   4.487  14.887
  627MPD2    H7 9332   1.345   4.419  14.955
  628TMC3    C1 9333   1.481   4.621  14.957
  628TMC3    C2 9334   1.577   4.513  14.948
  628TMC3    C3 9335   1.706   4.541  14.986
  628TMC3    C4 9336   1.518   4.743  14.996
  628TMC3    C5 9337   1.646   4.765  15.029
  628TMC3    C6 9338   1.740   4.667  15.034
  628TMC3     C 9339   1.363   4.611  14.879
  628TMC3     O 9340   1.344   4.714  14.814
  628TMC3     H 9341   1.557   4.417  14.902
  628TMC3    H1 9342   1.442   0.038  14.997
  628TMC3    H2 9343   1.839   4.704  15.013
  628TMC3    C7 9344   1.698   0.121  15.046
  628TMC3    C8 9345   1.804   4.500  14.888
  628TMC3    O1 9346   1.807   0.135  15.107
  628TMC3    O2 9347   1.764   4.472  14.775
  629MPD2     C 9348   4.551   3.346  16.453
  629MPD2    C1 9349   4.587   3.238  16.530
  629MPD2    C2 9350   4.496   3.142  16.571
  629MPD2    C3 9351   4.359   3.155  16.532
  629MPD2    C4 9352   4.328   3.274  16.466
  629MPD2    C5 9353   4.414   3.366  16.426
  629MPD2     H 9354   4.521   3.053  16.627
  629MPD2    H1 9355   4.223   3.288  16.442
  629MPD2    H2 9356   4.631   3.412  16.422
  629MPD2    H3 9357   4.387   3.462  16.383
  629MPD2     N 9358   4.262   3.056  16.565
  629MPD2    H5 9359   4.294   2.962  16.588
  629MPD2    N1 9360   4.723   3.235  16.569
  629MPD2    H7 9361   4.782   3.279  16.500
  630TMC3    C1 9362   0.128   3.218  16.720
  630TMC3    C2 9363   0.193   3.322  16.659
  630TMC3    C3 9364   0.320   3.353  16.699
  630TMC3    C4 9365   0.191   3.138  16.816
  630TMC3    C5 9366   0.310   3.180  16.859
  630TMC3    C6 9367   0.385   3.282  16.792
  630TMC3     C 9368   4.774   3.175  16.680
  630TMC3     O 9369   4.723   3.097  16.762
  630TMC3     H 9370   0.139   3.394  16.599
  630TMC3    H1 9371   0.128   3.065  16.866
  630TMC3    H2 9372   0.486   3.298  16.828
  630TMC3    C7 9373   0.350   3.138  16.996
  630TMC3    C8 9374   0.384   3.465  16.646
  630TMC3    O1 9375   0.319   3.029  17.039
  630TMC3    O2 9376   0.470   3.513  16.721
  631MPD2     C 9377   2.668   2.947  15.681
  631MPD2    C1 9378   2.769   3.035  15.663
  631MPD2    C2 9379   2.899   2.993  15.633
  631MPD2    C3 9380   2.929   2.857  15.628
  631MPD2    C4 9381   2.827   2.768  15.666
  631MPD2    C5 9382   2.703   2.817  15.698
  631MPD2     H 9383   2.975   3.063  15.599
  631MPD2    H1 9384   2.835   2.661  15.681
  631MPD2    H2 9385   2.563   2.974  15.689
  631MPD2    H3 9386   2.631   2.752  15.745
  631MPD2     N 9387   3.061   2.821  15.595
  631MPD2    H5 9388   3.117   2.896  15.556
  631MPD2    N1 9389   2.739   3.171  15.654
  631MPD2    H7 9390   2.641   3.185  15.634
  632TMC3    C1 9391   2.770   3.405  15.648
  632TMC3    C2 9392   2.634   3.422  15.670
  632TMC3    C3 9393   2.570   3.540  15.640
  632TMC3    C4 9394   2.845   3.507  15.602
  632TMC3    C5 9395   2.789   3.629  15.575
  632TMC3    C6 9396   2.651   3.644  15.589
  632TMC3     C 9397   2.825   3.276  15.674
  632TMC3     O 9398   2.940   3.286  15.717
  632TMC3     H 9399   2.578   3.337  15.708
  632TMC3    H1 9400   2.946   3.477  15.580
  632TMC3    H2 9401   2.598   3.735  15.565
  632TMC3    C7 9402   2.862   3.719  15.486
  632TMC3    C8 9403   2.447   3.563  15.708
  632TMC3    O1 9404   2.796   3.815  15.440
  632TMC3    O2 9405   2.413   3.478  15.785
  633MPD2     C 9406   2.465   0.987  17.535
  633MPD2    C1 9407   2.527   0.929  17.425
  633MPD2    C2 9408   2.555   0.794  17.425
  633MPD2    C3 9409   2.519   0.717  17.525
  633MPD2    C4 9410   2.464   0.771  17.637
  633MPD2    C5 9411   2.440   0.905  17.639
  633MPD2     H 9412   2.579   0.749  17.329
  633MPD2    H1 9413   2.455   0.720  17.732
  633MPD2    H2 9414   2.447   1.094  17.546
  633MPD2    H3 9415   2.401   0.945  17.732
  633MPD2     N 9416   2.558   0.581  17.538
  633MPD2    H5 9417   2.535   0.545  17.630
  633MPD2    N1 9418   2.559   0.993  17.302
  633MPD2    H7 9419   2.587   0.929  17.229
  634TMC3    C1 9420   2.640   1.175  17.164
  634TMC3    C2 9421   2.707   1.086  17.084
  634TMC3    C3 9422   2.741   1.124  16.960
  634TMC3    C4 9423   2.619   1.304  17.122
  634TMC3    C5 9424   2.668   1.340  16.999
  634TMC3    C6 9425   2.722   1.250  16.911
  634TMC3     C 9426   2.566   1.131  17.282
  634TMC3     O 9427   2.521   1.215  17.362
  634TMC3     H 9428   2.722   0.984  17.117
  634TMC3    H1 9429   2.581   1.376  17.194
  634TMC3    H2 9430   2.751   1.279  16.811
  634TMC3    C7 9431   2.632   1.464  16.942
  634TMC3    C8 9432   2.817   1.020  16.887
  634TMC3    O1 9433   2.684   1.495  16.839
  634TMC3    O2 9434   2.844   0.913  16.942
  635TMC3    C1 9435   2.582   2.488  17.887
  635TMC3    C2 9436   2.581   2.365  17.826
  635TMC3    C3 9437   2.496   2.274  17.882
  635TMC3    C4 9438   2.502   2.522  17.995
  635TMC3    C5 9439   2.419   2.427  18.040
  635TMC3    C6 9440   2.419   2.302  17.991
  635TMC3     C 9441   2.686   2.580  17.844
  635TMC3     O 9442   2.700   2.684  17.904
  635TMC3     H 9443   2.654   2.332  17.754
  635TMC3    H1 9444   2.509   2.620  18.040
  635TMC3    H2 9445   2.347   2.233  18.034
  635TMC3    C7 9446   2.317   2.466  18.130
  635TMC3    C8 9447   2.508   2.132  17.839
  635TMC3    O1 9448   2.227   2.388  18.151
  635TMC3    O2 9449   2.573   2.108  17.732
  636MPD2     C 9450   3.522   1.634  16.637
  636MPD2    C1 9451   3.652   1.664  16.687
  636MPD2    C2 9452   3.745   1.561  16.700
  636MPD2    C3 9453   3.725   1.436  16.656
  636MPD2    C4 9454   3.604   1.404  16.602
  636MPD2    C5 9455   3.506   1.502  16.597
  636MPD2     H 9456   3.840   1.569  16.751
  636MPD2    H1 9457   3.586   1.303  16.568
  636MPD2    H2 9458   3.434   1.696  16.626
  636MPD2    H3 9459   3.408   1.474  16.561
  636MPD2     N 9460   3.825   1.340  16.680
  636MPD2    H5 9461   3.914   1.376  16.713
  636MPD2    N1 9462   3.682   1.790  16.738
  636MPD2    H7 9463   3.780   1.805  16.759
  637TMC3    C1 9464   3.932   1.132  16.703
  637TMC3    C2 9465   4.013   1.184  16.800
  637TMC3    C3 9466   4.138   1.128  16.808
  637TMC3    C4 9467   3.968   1.025  16.626
  637TMC3    C5 9468   4.103   0.984  16.625
  637TMC3    C6 9469   4.182   1.026  16.731
  637TMC3     C 9470   3.818   1.205  16.663
  637TMC3     O 9471   3.730   1.143  16.608
  637TMC3     H 9472   3.973   1.268  16.855
  637TMC3    H1 9473   3.906   1.002  16.541
  637TMC3    H2 9474   4.280   0.982  16.732
  637TMC3    C7 9475   4.173   0.998  16.500
  637TMC3    C8 9476   4.229   1.231  16.850
  637TMC3    O1 9477   4.293   1.023  16.501
  637TMC3    O2 9478   4.182   1.344  16.863
  638MPD2     C 9479   3.697   0.264  15.438
  638MPD2    C1 9480   3.636   0.167  15.358
  638MPD2    C2 9481   3.559   0.068  15.411
  638MPD2    C3 9482   3.562   0.044  15.549
  638MPD2    C4 9483   3.624   0.142  15.632
  638MPD2    C5 9484   3.691   0.249  15.579
  638MPD2     H 9485   3.529   4.773  15.341
  638MPD2    H1 9486   3.634   0.125  15.739
  638MPD2    H2 9487   3.755   0.348  15.402
  638MPD2    H3 9488   3.742   0.320  15.644
  638MPD2     N 9489   3.509   4.713  15.599
  638MPD2    H5 9490   3.482   4.643  15.530
  638MPD2    N1 9491   3.665   0.172  15.218
  638MPD2    H7 9492   3.730   0.241  15.182
  639TMC3    C1 9493   3.470   4.528  15.748
  639TMC3    C2 9494   3.397   4.478  15.640
  639TMC3    C3 9495   3.436   4.360  15.587
  639TMC3    C4 9496   3.570   4.457  15.797
  639TMC3    C5 9497   3.611   4.338  15.729
  639TMC3    C6 9498   3.546   4.290  15.624
  639TMC3     C 9499   3.507   4.667  15.734
  639TMC3     O 9500   3.540   4.719  15.839
  639TMC3     H 9501   3.315   4.535  15.599
  639TMC3    H1 9502   3.631   4.492  15.880
  639TMC3    H2 9503   3.577   4.198  15.578
  639TMC3    C7 9504   3.723   4.268  15.782
  639TMC3    C8 9505   3.366   4.300  15.471
  639TMC3    O1 9506   3.738   4.280  15.902
  639TMC3    O2 9507   3.444   4.244  15.396
  640MPD2     C 9508   4.328   4.147  10.488
  640MPD2    C1 9509   4.271   4.148  10.357
  640MPD2    C2 9510   4.132   4.158  10.355
  640MPD2    C3 9511   4.055   4.168  10.474
  640MPD2    C4 9512   4.115   4.176  10.596
  640MPD2    C5 9513   4.252   4.161  10.597
  640MPD2     H 9514   4.079   4.139  10.262
  640MPD2    H1 9515   4.054   4.182  10.686
  640MPD2    H2 9516   4.436   4.141  10.496
  640MPD2    H3 9517   4.288   4.165  10.699
  640MPD2     N 9518   3.914   4.181  10.476
  640MPD2    H5 9519   3.865   4.196  10.563
  640MPD2    N1 9520   4.355   4.112  10.246
  640MPD2    H7 9521   4.456   4.108  10.258
  641TMC3    C1 9522   4.407   4.071  10.021
  641TMC3    C2 9523   4.475   3.953  10.046
  641TMC3    C3 9524   4.561   3.905   9.950
  641TMC3    C4 9525   4.406   4.122   9.895
  641TMC3    C5 9526   4.479   4.059   9.796
  641TMC3    C6 9527   4.560   3.955   9.825
  641TMC3     C 9528   4.312   4.116  10.114
  641TMC3     O 9529   4.208   4.160  10.065
  641TMC3     H 9530   4.452   3.910  10.143
  641TMC3    H1 9531   4.340   4.205   9.874
  641TMC3    H2 9532   4.614   3.911   9.742
  641TMC3    C7 9533   4.465   4.113   9.662
  641TMC3    C8 9534   4.585   3.764   9.951
  641TMC3    O1 9535   4.387   4.205   9.651
  641TMC3    O2 9536   4.593   3.715   9.835
  642TMC3    C1 9537   0.268   0.157  12.751
  642TMC3    C2 9538   0.369   0.153  12.840
  642TMC3    C3 9539   0.391   0.036  12.914
  642TMC3    C4 9540   0.188   0.048  12.734
  642TMC3    C5 9541   0.206   4.720  12.811
  642TMC3    C6 9542   0.312   4.711  12.898
  642TMC3     C 9543   0.203   0.286  12.731
  642TMC3     O 9544   0.205   0.348  12.626
  642TMC3     H 9545   0.435   0.239  12.847
  642TMC3    H1 9546   0.101   0.048  12.669
  642TMC3    H2 9547   0.327   4.625  12.963
  642TMC3    C7 9548   0.133   4.600  12.769
  642TMC3    C8 9549   0.526   0.011  12.968
  642TMC3    O1 9550   0.091   4.591  12.655
  642TMC3    O2 9551   0.563   4.678  12.975
  643TMC3    C1 9552   4.753   4.180  18.366
  643TMC3    C2 9553   4.668   4.201  18.264
  643TMC3    C3 9554   4.625   4.095  18.192
  643TMC3    C4 9555   0.028   4.063  18.395
  643TMC3    C5 9556   4.756   3.955  18.319
  643TMC3    C6 9557   4.661   3.962  18.224
  643TMC3     C 9558   0.027   4.302  18.426
  643TMC3     O 9559   0.015   4.402  18.362
  643TMC3     H 9560   4.616   4.294  18.241
  643TMC3    H1 9561   0.098   4.040  18.474
  643TMC3    H2 9562   4.633   3.875  18.166
  643TMC3    C7 9563   0.035   3.828  18.354
  643TMC3    C8 9564   4.578   4.105  18.058
  643TMC3    O1 9565   0.024   3.814  18.471
  643TMC3    O2 9566   4.518   4.015  17.997
  644MPD2     C 9567   4.518   4.524  10.195
  644MPD2    C1 9568   4.514   4.466  10.071
  644MPD2    C2 9569   4.397   4.486   9.989
  644MPD2    C3 9570   4.301   4.571  10.036
  644MPD2    C4 9571   4.296   4.624  10.161
  644MPD2    C5 9572   4.409   4.600  10.242
  644MPD2     H 9573   4.398   4.432   9.896
  644MPD2    H1 9574   4.214   4.682  10.204
  644MPD2    H2 9575   4.597   4.513  10.268
  644MPD2    H3 9576   4.405   4.636  10.344
  644MPD2     N 9577   4.205   4.615   9.935
  644MPD2    H5 9578   4.203   4.559   9.850
  644MPD2    N1 9579   4.628   4.402  10.021
  644MPD2    H7 9580   4.699   4.383  10.090
  645TMC3    C1 9581   4.016   4.706   9.839
  645TMC3    C2 9582   3.942   0.039   9.816
  645TMC3    C3 9583   3.837   0.041   9.726
  645TMC3    C4 9584   3.981   4.593   9.773
  645TMC3    C5 9585   3.878   4.596   9.680
  645TMC3    C6 9586   3.795   4.708   9.662
  645TMC3     C 9587   4.108   4.708   9.950
  645TMC3     O 9588   4.088   0.004  10.040
  645TMC3     H 9589   3.979   0.125   9.872
  645TMC3    H1 9590   4.017   4.497   9.808
  645TMC3    H2 9591   3.710   4.708   9.595
  645TMC3    C7 9592   3.851   4.482   9.594
  645TMC3    C8 9593   3.784   0.168   9.689
  645TMC3    O1 9594   3.748   4.482   9.529
  645TMC3    O2 9595   3.853   0.265   9.717
  646MPD2     C 9596   3.729   3.469  14.927
  646MPD2    C1 9597   3.705   3.549  15.040
  646MPD2    C2 9598   3.601   3.639  15.026
  646MPD2    C3 9599   3.529   3.654  14.911
  646MPD2    C4 9600   3.557   3.571  14.803
  646MPD2    C5 9601   3.660   3.483  14.810
  646MPD2     H 9602   3.586   3.709  15.108
  646MPD2    H1 9603   3.511   3.582  14.706
  646MPD2    H2 9604   3.814   3.403  14.938
  646MPD2    H3 9605   3.679   3.415  14.728
  646MPD2     N 9606   3.431   3.759  14.911
  646MPD2    H5 9607   3.430   3.817  14.994
  646MPD2    N1 9608   3.786   3.519  15.152
  646MPD2    H7 9609   3.867   3.457  15.150
  647TMC3    C1 9610   3.863   3.553  15.370
  647TMC3    C2 9611   3.824   3.582  15.501
  647TMC3    C3 9612   3.920   3.570  15.596
  647TMC3    C4 9613   3.992   3.520  15.334
  647TMC3    C5 9614   4.089   3.529  15.431
  647TMC3    C6 9615   4.052   3.555  15.560
  647TMC3     C 9616   3.765   3.582  15.267
  647TMC3     O 9617   3.683   3.667  15.305
  647TMC3     H 9618   3.720   3.604  15.520
  647TMC3    H1 9619   4.018   3.533  15.229
  647TMC3    H2 9620   4.132   3.563  15.632
  647TMC3    C7 9621   4.216   3.471  15.416
  647TMC3    C8 9622   3.889   3.465  15.688
  647TMC3    O1 9623   4.288   3.451  15.511
  647TMC3    O2 9624   3.990   3.420  15.742
  648TMC3    C1 9625   3.206   1.277  16.604
  648TMC3    C2 9626   3.295   1.174  16.601
  648TMC3    C3 9627   3.346   1.126  16.484
  648TMC3    C4 9628   3.168   1.343  16.481
  648TMC3    C5 9629   3.212   1.286  16.366
  648TMC3    C6 9630   3.303   1.185  16.363
  648TMC3     C 9631   3.131   1.312  16.718
  648TMC3     O 9632   3.058   1.411  16.714
  648TMC3     H 9633   3.334   1.135  16.695
  648TMC3    H1 9634   3.099   1.426  16.486
  648TMC3    H2 9635   3.337   1.145  16.268
  648TMC3    C7 9636   3.188   1.362  16.240
  648TMC3    C8 9637   3.415   1.001  16.500
  648TMC3    O1 9638   3.278   1.369  16.159
  648TMC3    O2 9639   3.403   0.947  16.607
  649TMC3    C1 9640   1.959   2.589  12.925
  649TMC3    C2 9641   2.092   2.590  12.913
  649TMC3    C3 9642   2.162   2.557  13.023
  649TMC3    C4 9643   1.889   2.547  13.031
  649TMC3    C5 9644   1.964   2.511  13.140
  649TMC3    C6 9645   2.102   2.526  13.144
  649TMC3     C 9646   1.871   2.605  12.806
  649TMC3     O 9647   1.769   2.668  12.823
  649TMC3     H 9648   2.127   2.642  12.825
  649TMC3    H1 9649   1.780   2.544  13.031
  649TMC3    H2 9650   2.158   2.489  13.229
  649TMC3    C7 9651   1.893   2.436  13.239
  649TMC3    C8 9652   2.298   2.595  13.027
  649TMC3    O1 9653   1.773   2.454  13.247
  649TMC3    O2 9654   2.353   2.599  13.137
  650TMC3    C1 9655   4.595   4.094  13.199
  650TMC3    C2 9656   4.539   4.215  13.241
  650TMC3    C3 9657   4.422   4.243  13.185
  650TMC3    C4 9658   4.543   4.018  13.100
  650TMC3    C5 9659   4.432   4.064  13.038
  650TMC3    C6 9660   4.363   4.169  13.085
  650TMC3     C 9661   4.717   4.066  13.275
  650TMC3     O 9662   0.004   4.162  13.314
  650TMC3     H 9663   4.564   4.278  13.325
  650TMC3    H1 9664   4.597   3.938  13.052
  650TMC3    H2 9665   4.274   4.206  13.037
  650TMC3    C7 9666   4.414   4.027  12.891
  650TMC3    C8 9667   4.370   4.371  13.227
  650TMC3    O1 9668   4.446   3.916  12.854
  650TMC3    O2 9669   4.443   4.452  13.287
  651MPD2     C 9670   3.084   1.519  10.763
  651MPD2    C1 9671   3.046   1.597  10.863
  651MPD2    C2 9672   3.140   1.650  10.953
  651MPD2    C3 9673   3.274   1.608  10.942
  651MPD2    C4 9674   3.317   1.527  10.838
  651MPD2    C5 9675   3.218   1.486  10.755
  651MPD2     H 9676   3.103   1.698  11.043
  651MPD2    H1 9677   3.421   1.498  10.826
  651MPD2    H2 9678   3.015   1.471  10.696
  651MPD2    H3 9679   3.252   1.424  10.672
  651MPD2     N 9680   3.360   1.650  11.041
  651MPD2    H5 9681   3.312   1.712  11.107
  651MPD2    N1 9682   2.919   1.659  10.867
  651MPD2    H7 9683   2.903   1.741  10.924
  652TMC3    C1 9684   3.784   1.773  11.191
  652TMC3    C2 9685   3.695   1.670  11.166
  652TMC3    C3 9686   3.565   1.709  11.144
  652TMC3    C4 9687   3.764   1.904  11.179
  652TMC3    C5 9688   3.629   1.932  11.154
  652TMC3    C6 9689   3.536   1.839  11.129
  652TMC3     C 9690   3.921   1.731  11.226
  652TMC3     O 9691   3.945   1.617  11.269
  652TMC3     H 9692   3.731   1.568  11.171
  652TMC3    H1 9693   3.835   1.983  11.205
  652TMC3    H2 9694   3.432   1.868  11.113
  652TMC3    C7 9695   3.585   2.073  11.143
  652TMC3    C8 9696   3.493   1.611  11.059
  652TMC3    O1 9697   3.464   2.089  11.160
  652TMC3    O2 9698   3.555   1.520  11.014
  653MPD2     C 9699   2.084   1.349  18.078
  653MPD2    C1 9700   2.077   1.434  17.968
  653MPD2    C2 9701   2.088   1.376  17.847
  653MPD2    C3 9702   2.077   1.237  17.831
  653MPD2    C4 9703   2.073   1.153  17.940
  653MPD2    C5 9704   2.080   1.215  18.059
  653MPD2     H 9705   2.106   1.434  17.757
  653MPD2    H1 9706   2.076   1.046  17.924
  653MPD2    H2 9707   2.067   1.378  18.181
  653MPD2    H3 9708   2.082   1.163  18.154
  653MPD2     N 9709   2.073   1.194  17.697
  653MPD2    H5 9710   2.035   1.261  17.630
  653MPD2    N1 9711   2.072   1.577  17.980
  653MPD2    H7 9712   2.052   1.634  17.898
  654TMC3    C1 9713   2.066   1.047  17.517
  654TMC3    C2 9714   1.983   1.127  17.445
  654TMC3    C3 9715   1.976   1.110  17.310
  654TMC3    C4 9716   2.138   0.939  17.458
  654TMC3    C5 9717   2.124   0.927  17.328
  654TMC3    C6 9718   2.046   1.010  17.253
  654TMC3     C 9719   2.097   1.067  17.657
  654TMC3     O 9720   2.147   0.982  17.723
  654TMC3     H 9721   1.934   1.211  17.494
  654TMC3    H1 9722   2.212   0.882  17.513
  654TMC3    H2 9723   2.045   0.995  17.146
  654TMC3    C7 9724   2.169   0.809  17.250
  654TMC3    C8 9725   1.844   1.149  17.258
  654TMC3    O1 9726   2.191   0.808  17.130
  654TMC3    O2 9727   1.770   1.211  17.331
  655MPD2     C 9728   3.806   1.445  15.990
  655MPD2    C1 9729   3.685   1.468  15.934
  655MPD2    C2 9730   3.658   1.407  15.811
  655MPD2    C3 9731   3.746   1.318  15.745
  655MPD2    C4 9732   3.871   1.305  15.802
  655MPD2    C5 9733   3.901   1.372  15.921
  655MPD2     H 9734   3.559   1.418  15.769
  655MPD2    H1 9735   3.948   1.251  15.748
  655MPD2    H2 9736   3.841   1.493  16.081
  655MPD2    H3 9737   4.000   1.348  15.959
  655MPD2     N 9738   3.710   1.248  15.634
  655MPD2    H5 9739   3.787   1.207  15.581
  655MPD2    N1 9740   3.580   1.557  15.982
  655MPD2    H7 9741   3.500   1.570  15.921
  656TMC3    C1 9742   3.462   1.707  16.110
  656TMC3    C2 9743   3.394   1.698  16.229
  656TMC3    C3 9744   3.288   1.777  16.250
  656TMC3    C4 9745   3.411   1.780  16.005
  656TMC3    C5 9746   3.301   1.856  16.028
  656TMC3    C6 9747   3.240   1.856  16.149
  656TMC3     C 9748   3.583   1.626  16.098
  656TMC3     O 9749   3.641   1.592  16.195
  656TMC3     H 9750   3.423   1.635  16.312
  656TMC3    H1 9751   3.469   1.798  15.915
  656TMC3    H2 9752   3.158   1.926  16.166
  656TMC3    C7 9753   3.255   1.931  15.912
  656TMC3    C8 9754   3.194   1.750  16.361
  656TMC3    O1 9755   3.344   1.954  15.830
  656TMC3    O2 9756   3.216   1.649  16.428
  657TMC3    C1 9757   2.515   0.714  15.322
  657TMC3    C2 9758   2.571   0.759  15.433
  657TMC3    C3 9759   2.534   0.880  15.489
  657TMC3    C4 9760   2.418   0.790  15.264
  657TMC3    C5 9761   2.394   0.913  15.312
  657TMC3    C6 9762   2.441   0.956  15.432
  657TMC3     C 9763   2.529   0.575  15.282
  657TMC3     O 9764   2.434   0.519  15.229
  657TMC3     H 9765   2.639   0.695  15.489
  657TMC3    H1 9766   2.364   0.762  15.174
  657TMC3    H2 9767   2.419   1.057  15.465
  657TMC3    C7 9768   2.298   0.998  15.248
  657TMC3    C8 9769   2.609   0.936  15.598
  657TMC3    O1 9770   2.216   1.046  15.323
  657TMC3    O2 9771   2.562   1.045  15.635
  658MPD2     C 9772   4.144   1.032  15.263
  658MPD2    C1 9773   4.034   1.052  15.190
  658MPD2    C2 9774   4.054   1.065  15.056
  658MPD2    C3 9775   4.174   1.043  14.992
  658MPD2    C4 9776   4.282   1.003  15.067
  658MPD2    C5 9777   4.264   1.001  15.202
  658MPD2     H 9778   3.976   1.108  14.994
  658MPD2    H1 9779   4.381   0.978  15.030
  658MPD2    H2 9780   4.141   1.026  15.371
  658MPD2    H3 9781   4.353   0.975  15.258
  658MPD2     N 9782   4.173   1.065  14.856
  658MPD2    H5 9783   4.086   1.109  14.827
  658MPD2    N1 9784   3.905   1.070  15.249
  658MPD2    H7 9785   3.898   1.112  15.341
  659TMC3    C1 9786   3.672   1.092  15.267
  659TMC3    C2 9787   3.685   1.129  15.395
  659TMC3    C3 9788   3.568   1.162  15.458
  659TMC3    C4 9789   3.552   1.092  15.199
  659TMC3    C5 9790   3.441   1.138  15.261
  659TMC3    C6 9791   3.447   1.181  15.393
  659TMC3     C 9792   3.786   1.065  15.179
  659TMC3     O 9793   3.768   1.010  15.069
  659TMC3     H 9794   3.771   1.102  15.455
  659TMC3    H1 9795   3.552   1.070  15.093
  659TMC3    H2 9796   3.358   1.224  15.437
  659TMC3    C7 9797   3.308   1.121  15.202
  659TMC3    C8 9798   3.580   1.226  15.588
  659TMC3    O1 9799   3.210   1.172  15.267
  659TMC3    O2 9800   3.478   1.234  15.657
  660MPD2     C 9801   1.743   0.169  13.088
  660MPD2    C1 9802   1.611   0.150  13.059
  660MPD2    C2 9803   1.556   0.017  13.075
  660MPD2    C3 9804   1.634   4.700  13.138
  660MPD2    C4 9805   1.768   4.730  13.174
  660MPD2    C5 9806   1.819   0.071  13.146
  660MPD2     H 9807   1.449   0.006  13.060
  660MPD2    H1 9808   1.837   4.655  13.212
  660MPD2    H2 9809   1.785   0.268  13.072
  660MPD2    H3 9810   1.922   0.097  13.166
  660MPD2     N 9811   1.589   4.577  13.169
  660MPD2    H5 9812   1.642   4.523  13.236
  660MPD2    N1 9813   1.542   0.261  13.009
  660MPD2    H7 9814   1.604   0.340  12.993
  661TMC3    C1 9815   1.371   0.404  12.949
  661TMC3    C2 9816   1.435   0.454  12.840
  661TMC3    C3 9817   1.387   0.578  12.788
  661TMC3    C4 9818   1.242   0.452  12.976
  661TMC3    C5 9819   1.187   0.561  12.916
  661TMC3    C6 9820   1.267   0.632  12.828
  661TMC3     C 9821   1.403   0.269  13.002
  661TMC3     O 9822   1.319   0.194  13.045
  661TMC3     H 9823   1.526   0.406  12.805
  661TMC3    H1 9824   1.184   0.404  13.053
  661TMC3    H2 9825   1.230   0.710  12.763
  661TMC3    C7 9826   1.053   0.554  12.876
  661TMC3    C8 9827   1.443   0.604  12.656
  661TMC3    O1 9828   0.994   0.659  12.863
  661TMC3    O2 9829   1.515   0.521  12.606
  662MPD2     C 9830   1.634   0.112  17.546
  662MPD2    C1 9831   1.645   0.041  17.667
  662MPD2    C2 9832   1.655   0.112  17.785
  662MPD2    C3 9833   1.666   0.243  17.781
  662MPD2    C4 9834   1.667   0.311  17.668
  662MPD2    C5 9835   1.650   0.246  17.549
  662MPD2     H 9836   1.673   0.040  17.864
  662MPD2    H1 9837   1.679   0.419  17.657
  662MPD2    H2 9838   1.619   0.058  17.453
  662MPD2    H3 9839   1.663   0.300  17.456
  662MPD2     N 9840   1.678   0.314  17.902
  662MPD2    H5 9841   1.692   0.414  17.889
  662MPD2    N1 9842   1.626   4.678  17.685
  662MPD2    H7 9843   1.634   4.643  17.780
  663TMC3    C1 9844   1.642   4.450  17.607
  663TMC3    C2 9845   1.575   4.403  17.718
  663TMC3    C3 9846   1.561   4.269  17.732
  663TMC3    C4 9847   1.710   4.361  17.525
  663TMC3    C5 9848   1.687   4.230  17.541
  663TMC3    C6 9849   1.615   4.179  17.642
  663TMC3     C 9850   1.655   4.593  17.577
  663TMC3     O 9851   1.703   4.615  17.470
  663TMC3     H 9852   1.509   4.467  17.774
  663TMC3    H1 9853   1.770   4.406  17.447
  663TMC3    H2 9854   1.581   4.077  17.639
  663TMC3    C7 9855   1.729   4.151  17.424
  663TMC3    C8 9856   1.476   4.204  17.833
  663TMC3    O1 9857   1.756   4.209  17.321
  663TMC3    O2 9858   1.433   4.091  17.810
  664MPD2     C 9859   4.588   2.635  17.703
  664MPD2    C1 9860   4.646   2.722  17.793
  664MPD2    C2 9861   4.618   2.718  17.930
  664MPD2    C3 9862   4.525   2.626  17.991
  664MPD2    C4 9863   4.464   2.547  17.898
  664MPD2    C5 9864   4.495   2.547  17.761
  664MPD2     H 9865   4.654   2.788  18.005
  664MPD2    H1 9866   4.390   2.476  17.932
  664MPD2    H2 9867   4.600   2.624  17.596
  664MPD2    H3 9868   4.444   2.474  17.699
  664MPD2     N 9869   4.508   2.639  18.134
  664MPD2    H5 9870   4.558   2.720  18.170
  664MPD2    N1 9871   4.742   2.825  17.755
  664MPD2    H7 9872   4.767   2.888  17.830
  665TMC3    C1 9873   4.417   2.607  18.336
  665TMC3    C2 9874   4.299   2.597  18.413
  665TMC3    C3 9875   4.305   2.623  18.542
  665TMC3    C4 9876   4.535   2.651  18.393
  665TMC3    C5 9877   4.527   2.692  18.527
  665TMC3    C6 9878   4.416   2.673  18.606
  665TMC3     C 9879   4.420   2.565  18.205
  665TMC3     O 9880   4.332   2.488  18.165
  665TMC3     H 9881   4.203   2.584  18.365
  665TMC3    H1 9882   4.630   2.646  18.340
  665TMC3    H2 9883   4.407   2.700  18.710
  665TMC3    C7 9884   4.648   2.765  18.573
  665TMC3    C8 9885   4.181   2.642  18.617
  665TMC3    O1 9886   4.725   2.798  18.487
  665TMC3    O2 9887   4.171   2.728  18.702
  666TMC3    C1 9888   3.464   2.801  10.294
  666TMC3    C2 9889   3.515   2.741  10.183
  666TMC3    C3 9890   3.591   2.813  10.098
  666TMC3    C4 9891   3.498   2.931  10.321
  666TMC3    C5 9892   3.569   2.997  10.223
  666TMC3    C6 9893   3.613   2.946  10.113
  666TMC3     C 9894   3.479   2.718  10.413
  666TMC3     O 9895   3.493   2.770  10.522
  666TMC3     H 9896   3.497   2.636  10.163
  666TMC3    H1 9897   3.451   2.993  10.396
  666TMC3    H2 9898   3.659   3.002  10.032
  666TMC3    C7 9899   3.610   3.131  10.261
  666TMC3    C8 9900   3.650   2.736   9.986
  666TMC3    O1 9901   3.543   3.185  10.349
  666TMC3    O2 9902   3.568   2.660   9.940
  667MPD2     C 9903   0.570   2.572  15.075
  667MPD2    C1 9904   0.486   2.627  15.167
  667MPD2    C2 9905   0.369   2.571  15.197
  667MPD2    C3 9906   0.324   2.464  15.122
  667MPD2    C4 9907   0.414   2.396  15.044
  667MPD2    C5 9908   0.535   2.451  15.021
  667MPD2     H 9909   0.299   2.626  15.258
  667MPD2    H1 9910   0.391   2.304  14.993
  667MPD2    H2 9911   0.668   2.607  15.045
  667MPD2    H3 9912   0.603   2.402  14.953
  667MPD2     N 9913   0.193   2.417  15.126
  667MPD2    H5 9914   0.170   2.331  15.076
  667MPD2    N1 9915   0.528   2.736  15.249
  667MPD2    H7 9916   0.455   2.772  15.309
  668TMC3    C1 9917   0.661   2.895  15.364
  668TMC3    C2 9918   0.761   2.985  15.340
  668TMC3    C3 9919   0.849   3.011  15.432
  668TMC3    C4 9920   0.655   2.830  15.484
  668TMC3    C5 9921   0.747   2.873  15.580
  668TMC3    C6 9922   0.845   2.967  15.561
  668TMC3     C 9923   0.645   2.803  15.250
  668TMC3     O 9924   0.732   2.805  15.165
  668TMC3     H 9925   0.777   3.022  15.240
  668TMC3    H1 9926   0.587   2.747  15.503
  668TMC3    H2 9927   0.907   2.995  15.645
  668TMC3    C7 9928   0.743   2.817  15.715
  668TMC3    C8 9929   0.910   3.143  15.418
  668TMC3    O1 9930   0.849   2.796  15.772
  668TMC3    O2 9931   0.963   3.186  15.522
  669TMC3    C1 9932   3.490   2.590  15.043
  669TMC3    C2 9933   3.382   2.569  14.958
  669TMC3    C3 9934   3.389   2.624  14.835
  669TMC3    C4 9935   3.611   2.638  14.998
  669TMC3    C5 9936   3.613   2.677  14.869
  669TMC3    C6 9937   3.509   2.666  14.783
  669TMC3     C 9938   3.475   2.532  15.178
  669TMC3     O 9939   3.363   2.519  15.228
  669TMC3     H 9940   3.283   2.549  14.998
  669TMC3    H1 9941   3.700   2.650  15.059
  669TMC3    H2 9942   3.515   2.691  14.677
  669TMC3    C7 9943   3.718   2.771  14.836
  669TMC3    C8 9944   3.266   2.652  14.759
  669TMC3    O1 9945   3.792   2.814  14.926
  669TMC3    O2 9946   3.174   2.573  14.761
  670MPD2     C 9947   2.009   0.769  13.696
  670MPD2    C1 9948   2.087   0.688  13.777
  670MPD2    C2 9949   2.034   0.608  13.875
  670MPD2    C3 9950   1.893   0.614  13.895
  670MPD2    C4 9951   1.818   0.689  13.815
  670MPD2    C5 9952   1.876   0.772  13.715
  670MPD2     H 9953   2.100   0.559  13.947
  670MPD2    H1 9954   1.711   0.696  13.823
  670MPD2    H2 9955   2.049   0.822  13.610
  670MPD2    H3 9956   1.814   0.835  13.653
  670MPD2     N 9957   1.841   0.542  14.009
  670MPD2    H5 9958   1.909   0.494  14.066
  670MPD2    N1 9959   2.223   0.669  13.751
  670MPD2    H7 9960   2.257   0.597  13.815
  671TMC3    C1 9961   1.676   0.416  14.132
  671TMC3    C2 9962   1.758   0.398  14.243
  671TMC3    C3 9963   1.707   0.328  14.355
  671TMC3    C4 9964   1.565   0.341  14.126
  671TMC3    C5 9965   1.530   0.252  14.224
  671TMC3    C6 9966   1.604   0.239  14.342
  671TMC3     C 9967   1.709   0.508  14.025
  671TMC3     O 9968   1.614   0.545  13.954
  671TMC3     H 9969   1.836   0.470  14.261
  671TMC3    H1 9970   1.498   0.347  14.041
  671TMC3    H2 9971   1.581   0.172  14.425
  671TMC3    C7 9972   1.463   0.135  14.181
  671TMC3    C8 9973   1.821   0.250  14.410
  671TMC3    O1 9974   1.491   0.112  14.064
  671TMC3    O2 9975   1.913   0.231  14.332
  672MPD2     C 9976   2.343   1.292  19.513
  672MPD2    C1 9977   2.405   1.280  19.390
  672MPD2    C2 9978   2.504   1.379  19.359
  672MPD2    C3 9979   2.527   1.476  19.448
  672MPD2    C4 9980   2.456   1.495  19.562
  672MPD2    C5 9981   2.362   1.399  19.595
  672MPD2     H 9982   2.559   1.372  19.266
  672MPD2    H1 9983   2.467   1.582  19.625
  672MPD2    H2 9984   2.275   1.214  19.548
  672MPD2    H3 9985   2.293   1.415  19.677
  672MPD2     N 9986   2.629   1.571  19.423
  672MPD2    H5 9987   2.639   1.656  19.477
  672MPD2    N1 9988   2.380   1.180  19.288
  672MPD2    H7 9989   2.449   1.174  19.214
  673TMC3    C1 9990   2.278   1.005  19.174
  673TMC3    C2 9991   2.386   1.019  19.087
  673TMC3    C3 9992   2.366   0.997  18.954
  673TMC3    C4 9993   2.152   0.977  19.132
  673TMC3    C5 9994   2.136   0.960  18.994
  673TMC3    C6 9995   2.238   0.970  18.904
  673TMC3     C 9996   2.277   1.086  19.291
  673TMC3     O 9997   2.184   1.090  19.376
  673TMC3     H 9998   2.488   1.035  19.121
  673TMC3    H1 9999   2.069   0.979  19.202
  673TMC3    H210000   2.220   0.941  18.801
  673TMC3    C710001   2.000   0.949  18.952
  673TMC3    C810002   2.464   1.026  18.851
  673TMC3    O110003   1.929   0.884  19.027
  673TMC3    O210004   2.419   1.037  18.741
  674MPD2     C10005   2.222   0.401  18.106
  674MPD2    C110006   2.148   0.318  18.187
  674MPD2    C210007   2.081   0.384  18.289
  674MPD2    C310008   2.075   0.521  18.303
  674MPD2    C410009   2.141   0.599  18.212
  674MPD2    C510010   2.211   0.538  18.111
  674MPD2     H10011   2.016   0.338  18.363
  674MPD2    H110012   2.136   0.708  18.210
  674MPD2    H210013   2.284   0.345  18.037
  674MPD2    H310014   2.265   0.596  18.038
  674MPD2     N10015   1.999   0.579  18.409
  674MPD2    H510016   1.948   0.515  18.470
  674MPD2    N110017   2.137   0.181  18.162
  674MPD2    H710018   2.181   0.140  18.080
  675TMC3    C110019   2.082   0.098  18.379
  675TMC3    C210020   1.978   0.041  18.450
  675TMC3    C310021   1.980   0.068  18.586
  675TMC3    C410022   2.184   0.166  18.441
  675TMC3    C510023   2.177   0.194  18.575
  675TMC3    C610024   2.077   0.137  18.649
  675TMC3     C10025   2.079   0.084  18.236
  675TMC3     O10026   2.047   4.756  18.197
  675TMC3     H10027   1.906   4.757  18.404
  675TMC3    H110028   2.272   0.197  18.386
  675TMC3    H210029   2.076   0.165  18.753
  675TMC3    C710030   2.242   0.312  18.629
  675TMC3    C810031   1.858   0.031  18.656
  675TMC3    O110032   2.255   0.322  18.748
  675TMC3    O210033   1.759   4.773  18.591
  676MPD2     C10034   0.256   3.893  11.374
  676MPD2    C110035   0.144   3.827  11.419
  676MPD2    C210036   0.125   3.696  11.381
  676MPD2    C310037   0.217   3.634  11.293
  676MPD2    C410038   0.335   3.704  11.266
  676MPD2    C510039   0.356   3.830  11.311
  676MPD2     H10040   0.033   3.649  11.412
  676MPD2    H110041   0.408   3.663  11.196
  676MPD2    H210042   0.275   3.996  11.404
  676MPD2    H310043   0.452   3.881  11.305
  676MPD2     N10044   0.190   3.512  11.241
  676MPD2    H510045   0.259   3.465  11.184
  676MPD2    N110046   0.041   3.893  11.504
  676MPD2    H710047   4.752   3.824  11.527
  677TMC3    C110048   4.701   4.053  11.614
  677TMC3    C210049   4.599   3.962  11.624
  677TMC3    C310050   4.487   3.998  11.688
  677TMC3    C410051   4.686   4.178  11.673
  677TMC3    C510052   4.570   4.215  11.736
  677TMC3    C610053   4.465   4.124  11.739
  677TMC3     C10054   0.039   4.022  11.540
  677TMC3     O10055   0.126   4.109  11.535
  677TMC3     H10056   4.595   3.870  11.565
  677TMC3    H110057   4.770   4.246  11.668
  677TMC3    H210058   4.372   4.153  11.788
  677TMC3    C710059   4.568   4.305  11.851
  677TMC3    C810060   4.448   3.898  11.783
  677TMC3    O110061   4.469   4.309  11.919
  677TMC3    O210062   4.527   3.808  11.799
  678MPD2     C10063   1.215   3.534  19.587
  678MPD2    C110064   1.246   3.593  19.463
  678MPD2    C210065   1.150   3.596  19.365
  678MPD2    C310066   1.012   3.583  19.398
  678MPD2    C410067   0.979   3.525  19.518
  678MPD2    C510068   1.087   3.491  19.605
  678MPD2     H10069   1.181   3.648  19.275
  678MPD2    H110070   0.883   3.486  19.550
  678MPD2    H210071   1.288   3.520  19.666
  678MPD2    H310072   1.056   3.457  19.703
  678MPD2     N10073   0.919   3.610  19.300
  678MPD2    H510074   0.954   3.664  19.221
  678MPD2    N110075   1.375   3.626  19.425
  678MPD2    H710076   1.390   3.685  19.344
  679TMC3    C110077   1.838   3.709  19.427
  679TMC3    C210078   1.727   3.649  19.483
  679TMC3    C310079   1.599   3.686  19.450
  679TMC3    C410080   1.824   3.808  19.336
  679TMC3    C510081   1.694   3.844  19.311
  679TMC3    C610082   1.579   3.782  19.354
  679TMC3     C10083   1.967   3.646  19.425
  679TMC3     O10084   2.035   3.661  19.324
  679TMC3     H10085   1.747   3.559  19.541
  679TMC3    H110086   1.914   3.839  19.285
  679TMC3    H210087   1.483   3.830  19.337
  679TMC3    C710088   1.676   3.968  19.235
  679TMC3    C810089   1.488   3.613  19.501
  679TMC3    O110090   1.557   4.008  19.223
  679TMC3    O210091   1.505   3.541  19.598
  680MPD2     C10092   0.992   2.449  13.677
  680MPD2    C110093   1.108   2.397  13.734
  680MPD2    C210094   1.172   2.463  13.836
  680MPD2    C310095   1.118   2.580  13.887
  680MPD2    C410096   1.002   2.624  13.838
  680MPD2    C510097   0.944   2.566  13.731
  680MPD2     H10098   1.274   2.436  13.861
  680MPD2    H110099   0.954   2.712  13.881
  680MPD2    H210100   0.939   2.404  13.594
  680MPD2    H310101   0.851   2.600  13.687
  680MPD2     N10102   1.184   2.653  13.996
  680MPD2    H510103   1.147   2.744  14.021
  680MPD2    N110104   1.168   2.275  13.701
  680MPD2    H710105   1.266   2.261  13.719
  681TMC3    C110106   1.198   2.076  13.587
  681TMC3    C210107   1.147   1.955  13.619
  681TMC3    C310108   1.227   1.852  13.655
  681TMC3    C410109   1.331   2.103  13.599
  681TMC3    C510110   1.406   1.994  13.622
  681TMC3    C610111   1.364   1.866  13.653
  681TMC3     C10112   1.108   2.186  13.623
  681TMC3     O10113   0.989   2.163  13.601
  681TMC3     H10114   1.040   1.946  13.609
  681TMC3    H110115   1.378   2.196  13.569
  681TMC3    H210116   1.437   1.800  13.697
  681TMC3    C710117   1.554   2.004  13.609
  681TMC3    C810118   1.168   1.799  13.777
  681TMC3    O110119   1.619   1.922  13.677
  681TMC3    O210120   1.056   1.748  13.768
  682MPD2     C10121   3.736   4.316  10.902
  682MPD2    C110122   3.651   4.208  10.936
  682MPD2    C210123   3.571   4.219  11.046
  682MPD2    C310124   3.560   4.335  11.115
  682MPD2    C410125   3.637   4.443  11.080
  682MPD2    C510126   3.728   4.429  10.979
  682MPD2     H10127   3.523   4.122  11.059
  682MPD2    H110128   3.635   4.529  11.146
  682MPD2    H210129   3.820   4.309  10.834
  682MPD2    H310130   3.796   4.508  10.952
  682MPD2     N10131   3.468   4.357  11.218
  682MPD2    H510132   3.495   4.426  11.287
  682MPD2    N110133   3.635   4.080  10.869
  682MPD2    H710134   3.579   4.006  10.908
  683TMC3    C110135   3.301   4.396  11.579
  683TMC3    C210136   3.169   4.361  11.591
  683TMC3    C310137   3.099   4.306  11.493
  683TMC3    C410138   3.364   4.364  11.464
  683TMC3    C510139   3.292   4.303  11.364
  683TMC3    C610140   3.160   4.271  11.374
  683TMC3     C10141   3.388   4.381  11.696
  683TMC3     O10142   3.489   4.447  11.706
  683TMC3     H10143   3.112   4.391  11.678
  683TMC3    H110144   3.472   4.373  11.458
  683TMC3    H210145   3.112   4.226  11.289
  683TMC3    C710146   3.362   4.272  11.247
  683TMC3    C810147   3.001   4.214  11.550
  683TMC3    O110148   3.313   4.188  11.170
  683TMC3    O210149   2.884   4.242  11.564
  684MPD2     C10150   1.802   2.913  16.581
  684MPD2    C110151   1.724   2.973  16.480
  684MPD2    C210152   1.725   3.111  16.473
  684MPD2    C310153   1.786   3.182  16.572
  684MPD2    C410154   1.859   3.118  16.675
  684MPD2    C510155   1.865   2.985  16.681
  684MPD2     H10156   1.691   3.152  16.379
  684MPD2    H110157   1.908   3.182  16.748
  684MPD2    H210158   1.830   2.808  16.578
  684MPD2    H310159   1.902   2.929  16.766
  684MPD2     N10160   1.798   3.324  16.569
  684MPD2    H510161   1.842   3.370  16.649
  684MPD2    N110162   1.700   2.920  16.352
  684MPD2    H710163   1.642   2.965  16.282
  685TMC3    C110164   1.687   2.759  16.180
  685TMC3    C210165   1.653   2.856  16.094
  685TMC3    C310166   1.631   2.812  15.963
  685TMC3    C410167   1.696   2.631  16.153
  685TMC3    C510168   1.699   2.590  16.021
  685TMC3    C610169   1.674   2.691  15.925
  685TMC3     C10170   1.739   2.796  16.315
  685TMC3     O10171   1.799   2.710  16.380
  685TMC3     H10172   1.670   2.960  16.117
  685TMC3    H110173   1.729   2.559  16.226
  685TMC3    H210174   1.678   2.676  15.818
  685TMC3    C710175   1.809   2.504  15.995
  685TMC3    C810176   1.561   2.897  15.867
  685TMC3    O110177   1.828   2.422  16.084
  685TMC3    O210178   1.552   2.853  15.751
  686MPD2     C10179   3.206   3.275  15.555
  686MPD2    C110180   3.252   3.164  15.615
  686MPD2    C210181   3.342   3.081  15.550
  686MPD2    C310182   3.380   3.105  15.417
  686MPD2    C410183   3.331   3.225  15.364
  686MPD2    C510184   3.242   3.306  15.431
  686MPD2     H10185   3.376   2.996  15.609
  686MPD2    H110186   3.343   3.255  15.260
  686MPD2    H210187   3.156   3.352  15.612
  686MPD2    H310188   3.202   3.395  15.383
  686MPD2     N10189   3.448   3.015  15.331
  686MPD2    H510190   3.467   3.059  15.242
  686MPD2    N110191   3.193   3.132  15.744
  686MPD2    H710192   3.117   3.193  15.773
  687TMC3    C110193   3.435   2.806  15.453
  687TMC3    C210194   3.301   2.782  15.472
  687TMC3    C310195   3.264   2.706  15.584
  687TMC3    C410196   3.529   2.746  15.536
  687TMC3    C510197   3.487   2.669  15.647
  687TMC3    C610198   3.352   2.660  15.671
  687TMC3     C10199   3.491   2.886  15.346
  687TMC3     O10200   3.572   2.834  15.265
  687TMC3     H10201   3.232   2.813  15.395
  687TMC3    H110202   3.635   2.761  15.519
  687TMC3    H210203   3.316   2.612  15.761
  687TMC3    C710204   3.570   2.660  15.763
  687TMC3    C810205   3.122   2.699  15.619
  687TMC3    O110206   3.519   2.644  15.870
  687TMC3    O210207   3.093   2.617  15.704
  688MPD2     C10208   2.220   2.189  17.640
  688MPD2    C110209   2.223   2.051  17.654
  688MPD2    C210210   2.313   1.978  17.579
  688MPD2    C310211   2.394   2.040  17.485
  688MPD2    C410212   2.376   2.177  17.466
  688MPD2    C510213   2.303   2.247  17.547
  688MPD2     H10214   2.334   1.874  17.603
  688MPD2    H110215   2.436   2.229  17.392
  688MPD2    H210216   2.176   2.257  17.712
  688MPD2    H310217   2.309   2.354  17.531
  688MPD2     N10218   2.481   1.968  17.399
  688MPD2    H510219   2.512   2.011  17.312
  688MPD2    N110220   2.154   1.995  17.765
  688MPD2    H710221   2.171   1.895  17.777
  689TMC3    C110222   2.046   1.981  17.969
  689TMC3    C210223   2.078   2.055  18.078
  689TMC3    C310224   2.077   1.988  18.198
  689TMC3    C410225   2.039   1.844  17.965
  689TMC3    C510226   2.060   1.784  18.082
  689TMC3    C610227   2.079   1.851  18.202
  689TMC3     C10228   2.072   2.060  17.857
  689TMC3     O10229   2.028   2.173  17.854
  689TMC3     H10230   2.090   2.162  18.066
  689TMC3    H110231   2.010   1.796  17.873
  689TMC3    H210232   2.090   1.809  18.301
  689TMC3    C710233   2.069   1.641  18.103
  689TMC3    C810234   2.064   2.061  18.318
  689TMC3    O110235   2.082   1.597  18.217
  689TMC3    O210236   2.084   2.004  18.427
  690MPD2     C10237   0.077   3.958  16.280
  690MPD2    C110238   0.027   3.916  16.156
  690MPD2    C210239   0.109   3.941  16.041
  690MPD2    C310240   0.215   4.017  16.056
  690MPD2    C410241   0.258   4.067  16.175
  690MPD2    C510242   0.189   4.032  16.286
  690MPD2     H10243   0.076   3.894  15.948
  690MPD2    H110244   0.361   4.101  16.186
  690MPD2    H210245   0.036   3.937  16.378
  690MPD2    H310246   0.234   4.056  16.382
  690MPD2     N10247   0.290   4.033  15.939
  690MPD2    H510248   0.298   3.959  15.871
  690MPD2    N110249   4.707   3.825  16.145
  690MPD2    H710250   4.709   3.780  16.053
  691TMC3    C110251   4.535   3.681  16.203
  691TMC3    C210252   4.398   3.681  16.199
  691TMC3    C310253   4.329   3.578  16.143
  691TMC3    C410254   4.607   3.575  16.161
  691TMC3    C510255   4.542   3.467  16.109
  691TMC3    C610256   4.404   3.469  16.096
  691TMC3     C10257   4.606   3.804  16.234
  691TMC3     O10258   4.571   3.882  16.318
  691TMC3     H10259   4.348   3.767  16.242
  691TMC3    H110260   4.712   3.564  16.184
  691TMC3    H210261   4.345   3.386  16.057
  691TMC3    C710262   4.614   3.342  16.095
  691TMC3    C810263   4.195   3.597  16.088
  691TMC3    O110264   4.710   3.315  16.164
  691TMC3    O210265   4.124   3.502  16.061
  692TMC3    C110266   1.592   4.709  16.042
  692TMC3    C210267   1.701   4.735  16.112
  692TMC3    C310268   1.799   4.633  16.116
  692TMC3    C410269   1.568   4.592  15.976
  692TMC3    C510270   1.670   4.496  15.979
  692TMC3    C610271   1.788   4.518  16.046
  692TMC3     C10272   1.483   0.016  16.064
  692TMC3     O10273   1.367   4.759  16.055
  692TMC3     H10274   1.682   0.010  16.203
  692TMC3    H110275   1.478   4.571  15.919
  692TMC3    H210276   1.860   4.437  16.050
  692TMC3    C710277   1.637   4.374  15.938
  692TMC3    C810278   1.913   4.655  16.205
  692TMC3    O110279   1.560   4.373  15.840
  692TMC3    O210280   1.985   4.560  16.229
  693MPD2     C10281   1.155   2.853  11.013
  693MPD2    C110282   1.056   2.760  10.996
  693MPD2    C210283   1.095   2.627  10.992
  693MPD2    C310284   1.224   2.582  11.026
  693MPD2    C410285   1.319   2.682  11.038
  693MPD2    C510286   1.287   2.814  11.028
  693MPD2     H10287   1.025   2.547  10.973
  693MPD2    H110288   1.418   2.662  11.077
  693MPD2    H210289   1.135   2.959  11.004
  693MPD2    H310290   1.358   2.896  11.034
  693MPD2     N10291   1.257   2.448  11.047
  693MPD2    H510292   1.355   2.420  11.053
  693MPD2    N110293   0.922   2.806  10.983
  693MPD2    H710294   0.894   2.900  11.008
  694TMC3    C110295   0.692   2.750  11.000
  694TMC3    C210296   0.596   2.686  10.926
  694TMC3    C310297   0.496   2.620  10.997
  694TMC3    C410298   0.688   2.753  11.134
  694TMC3    C510299   0.590   2.684  11.202
  694TMC3    C610300   0.491   2.620  11.135
  694TMC3     C10301   0.821   2.723  10.943
  694TMC3     O10302   0.824   2.621  10.877
  694TMC3     H10303   0.608   2.668  10.820
  694TMC3    H110304   0.778   2.785  11.186
  694TMC3    H210305   0.406   2.580  11.189
  694TMC3    C710306   0.571   2.722  11.347
  694TMC3    C810307   0.379   2.595  10.917
  694TMC3    O110308   0.628   2.823  11.391
  694TMC3    O210309   0.295   2.530  10.978
  695MPD2     C10310   2.220   4.582  13.768
  695MPD2    C110311   2.143   4.544  13.873
  695MPD2    C210312   2.005   4.540  13.874
  695MPD2    C310313   1.941   4.594  13.762
  695MPD2    C410314   2.021   4.645  13.663
  695MPD2    C510315   2.153   4.635  13.661
  695MPD2     H10316   1.954   4.515  13.966
  695MPD2    H110317   1.977   4.699  13.580
  695MPD2    H210318   2.326   4.565  13.761
  695MPD2    H310319   2.208   4.668  13.574
  695MPD2     N10320   1.802   4.589  13.766
  695MPD2    H510321   1.762   4.573  13.858
  695MPD2    N110322   2.205   4.511  13.997
  695MPD2    H710323   2.134   4.472  14.058
  696TMC3    C110324   1.584   4.613  13.685
  696TMC3    C210325   1.546   4.540  13.794
  696TMC3    C310326   1.427   4.566  13.864
  696TMC3    C410327   1.504   4.716  13.639
  696TMC3    C510328   1.381   4.732  13.703
  696TMC3    C610329   1.346   4.662  13.814
  696TMC3     C10330   1.721   4.623  13.662
  696TMC3     O10331   1.753   4.659  13.549
  696TMC3     H10332   1.597   4.449  13.823
  696TMC3    H110333   1.527   4.774  13.550
  696TMC3    H210334   1.242   4.661  13.846
  696TMC3    C710335   1.308   0.074  13.681
  696TMC3    C810336   1.362   4.446  13.921
  696TMC3    O110337   1.306   0.115  13.568
  696TMC3    O210338   1.392   4.343  13.864
  697MPD2     C10339   1.298   1.539  15.982
  697MPD2    C110340   1.290   1.481  15.861
  697MPD2    C210341   1.290   1.565  15.749
  697MPD2    C310342   1.286   1.704  15.765
  697MPD2    C410343   1.301   1.753  15.894
  697MPD2    C510344   1.310   1.671  15.996
  697MPD2     H10345   1.292   1.521  15.651
  697MPD2    H110346   1.303   1.861  15.908
  697MPD2    H210347   1.319   1.482  16.072
  697MPD2    H310348   1.324   1.707  16.097
  697MPD2     N10349   1.294   1.786  15.648
  697MPD2    H510350   1.323   1.731  15.568
  697MPD2    N110351   1.282   1.348  15.835
  697MPD2    H710352   1.274   1.318  15.739
  698TMC3    C110353   1.335   1.986  15.522
  698TMC3    C210354   1.368   2.118  15.518
  698TMC3    C310355   1.462   2.162  15.426
  698TMC3    C410356   1.379   1.904  15.421
  698TMC3    C510357   1.474   1.949  15.336
  698TMC3    C610358   1.527   2.076  15.341
  698TMC3     C10359   1.296   1.927  15.646
  698TMC3     O10360   1.288   2.006  15.743
  698TMC3     H10361   1.324   2.180  15.595
  698TMC3    H110362   1.345   1.805  15.392
  698TMC3    H210363   1.586   2.123  15.263
  698TMC3    C710364   1.479   1.887  15.208
  698TMC3    C810365   1.427   2.295  15.375
  698TMC3    O110366   1.371   1.843  15.166
  698TMC3    O210367   1.312   2.342  15.396
  699TMC3    C110368   1.418   4.411  13.211
  699TMC3    C210369   1.500   4.332  13.291
  699TMC3    C310370   1.434   4.252  13.381
  699TMC3    C410371   1.285   4.398  13.212
  699TMC3    C510372   1.223   4.315  13.297
  699TMC3    C610373   1.296   4.244  13.384
  699TMC3     C10374   1.464   4.527  13.128
  699TMC3     O10375   1.389   4.567  13.042
  699TMC3     H10376   1.606   4.350  13.287
  699TMC3    H110377   1.220   4.454  13.146
  699TMC3    H210378   1.236   4.192  13.458
  699TMC3    C710379   1.088   4.360  13.345
  699TMC3    C810380   1.500   4.199  13.499
  699TMC3    O110381   1.065   4.485  13.338
  699TMC3    O210382   1.430   4.127  13.567
  700TMC3    C110383   0.343   2.174  17.464
  700TMC3    C210384   0.396   2.050  17.475
  700TMC3    C310385   0.484   2.028  17.580
  700TMC3    C410386   0.366   2.271  17.555
  700TMC3    C510387   0.466   2.245  17.651
  700TMC3    C610388   0.533   2.130  17.660
  700TMC3     C10389   0.322   2.218  17.326
  700TMC3     O10390   0.276   2.135  17.250
  700TMC3     H10391   0.382   1.971  17.402
  700TMC3    H110392   0.316   2.367  17.557
  700TMC3    H210393   0.601   2.113  17.743
  700TMC3    C710394   0.496   2.355  17.742
  700TMC3    C810395   0.563   1.903  17.570
  700TMC3    O110396   0.611   2.353  17.783
  700TMC3    O210397   0.682   1.915  17.605
  701TMC3    C110398   0.690   0.660  15.748
  701TMC3    C210399   0.732   0.629  15.621
  701TMC3    C310400   0.826   0.711  15.564
  701TMC3    C410401   0.731   0.771  15.815
  701TMC3    C510402   0.809   0.857  15.746
  701TMC3    C610403   0.864   0.826  15.629
  701TMC3     C10404   0.571   0.586  15.799
  701TMC3     O10405   0.503   0.641  15.886
  701TMC3     H10406   0.688   0.547  15.565
  701TMC3    H110407   0.679   0.808  15.902
  701TMC3    H210408   0.920   0.901  15.574
  701TMC3    C710409   0.860   0.979  15.813
  701TMC3    C810410   0.824   0.707  15.420
  701TMC3    O110411   0.912   1.060  15.740
  701TMC3    O210412   0.929   0.700  15.356
  702MPD2     C10413   0.117   3.492  10.591
  702MPD2    C110414   0.033   3.525  10.695
  702MPD2    C210415   0.003   3.655  10.716
  702MPD2    C310416   0.053   3.763  10.638
  702MPD2    C410417   0.137   3.735  10.538
  702MPD2    C510418   0.163   3.597  10.510
  702MPD2     H10419   4.723   3.674  10.802
  702MPD2    H110420   0.185   3.796  10.462
  702MPD2    H210421   0.157   3.394  10.570
  702MPD2    H310422   0.220   3.574  10.421
  702MPD2     N10423   0.012   3.894  10.675
  702MPD2    H510424   0.062   3.974  10.637
  702MPD2    N110425   4.774   3.434  10.795
  702MPD2    H710426   4.695   3.462  10.852
  703TMC3    C110427   4.697   4.034  10.837
  703TMC3    C210428   4.614   4.024  10.945
  703TMC3    C310429   4.644   4.069  11.067
  703TMC3    C410430   0.042   4.083  10.854
  703TMC3    C510431   0.075   4.129  10.981
  703TMC3    C610432   4.767   4.125  11.087
  703TMC3     C10433   4.683   3.917  10.751
  703TMC3     O10434   4.580   3.847  10.764
  703TMC3     H10435   4.526   3.962  10.935
  703TMC3    H110436   0.112   4.089  10.771
  703TMC3    H210437   0.026   4.145  11.185
  703TMC3    C710438   0.206   4.187  11.001
  703TMC3    C810439   4.581   4.002  11.183
  703TMC3    O110440   0.275   4.227  10.907
  703TMC3    O210441   4.646   3.986  11.284
  704TMC3    C110442   3.236   1.669  13.317
  704TMC3    C210443   3.300   1.669  13.201
  704TMC3    C310444   3.387   1.562  13.178
  704TMC3    C410445   3.259   1.568  13.412
  704TMC3    C510446   3.328   1.461  13.382
  704TMC3    C610447   3.402   1.454  13.265
  704TMC3     C10448   3.095   1.709  13.309
  704TMC3     O10449   3.032   1.722  13.413
  704TMC3     H10450   3.280   1.750  13.131
  704TMC3    H110451   3.191   1.581  13.496
  704TMC3    H210452   3.434   1.359  13.224
  704TMC3    C710453   3.247   1.338  13.408
  704TMC3    C810454   3.393   1.523  13.037
  704TMC3    O110455   3.232   1.265  13.313
  704TMC3    O210456   3.312   1.591  12.972
  705MPD2     C10457   1.895   4.092  16.627
  705MPD2    C110458   1.950   4.221  16.636
  705MPD2    C210459   1.872   4.324  16.695
  705MPD2    C310460   1.739   4.296  16.725
  705MPD2    C410461   1.689   4.175  16.723
  705MPD2    C510462   1.769   4.075  16.674
  705MPD2     H10463   1.910   4.425  16.690
  705MPD2    H110464   1.592   4.153  16.767
  705MPD2    H210465   1.952   4.012  16.581
  705MPD2    H310466   1.721   3.978  16.663
  705MPD2     N10467   1.650   4.399  16.767
  705MPD2    H510468   1.551   4.378  16.777
  705MPD2    N110469   2.072   4.257  16.569
  705MPD2    H710470   2.110   4.351  16.580
  706TMC3    C110471   2.397   4.192  16.228
  706TMC3    C210472   2.405   4.325  16.197
  706TMC3    C310473   2.328   4.409  16.272
  706TMC3    C410474   2.320   4.143  16.334
  706TMC3    C510475   2.241   4.236  16.403
  706TMC3    C610476   2.244   4.364  16.374
  706TMC3     C10477   2.492   4.105  16.164
  706TMC3     O10478   2.536   4.013  16.234
  706TMC3     H10479   2.470   4.368  16.122
  706TMC3    H110480   2.332   4.038  16.356
  706TMC3    H210481   2.171   4.433  16.417
  706TMC3    C710482   2.130   4.176  16.474
  706TMC3    C810483   2.353   4.550  16.268
  706TMC3    O110484   2.100   4.061  16.433
  706TMC3    O210485   2.391   4.595  16.165
  707TMC3    C110486   4.281   3.824  18.398
  707TMC3    C210487   4.233   3.856  18.526
  707TMC3    C310488   4.119   3.798  18.567
  707TMC3    C410489   4.196   3.774  18.306
  707TMC3    C510490   4.080   3.717  18.343
  707TMC3    C610491   4.041   3.719  18.476
  707TMC3     C10492   4.418   3.779  18.398
  707TMC3     O10493   4.469   3.790  18.512
  707TMC3     H10494   4.297   3.887  18.608
  707TMC3    H110495   4.225   3.784  18.202
  707TMC3    H210496   3.948   3.670  18.505
  707TMC3    C710497   4.004   3.628  18.253
  707TMC3    C810498   4.079   3.822  18.713
  707TMC3    O110499   3.970   3.528  18.313
  707TMC3    O210500   4.120   3.923  18.772
  708MPD2     C10501   0.397   2.832  14.300
  708MPD2    C110502   0.307   2.838  14.404
  708MPD2    C210503   0.279   2.720  14.478
  708MPD2    C310504   0.354   2.604  14.460
  708MPD2    C410505   0.437   2.600  14.358
  708MPD2    C510506   0.457   2.709  14.281
  708MPD2     H10507   0.189   2.711  14.538
  708MPD2    H110508   0.494   2.510  14.338
  708MPD2    H210509   0.435   2.920  14.250
  708MPD2    H310510   0.532   2.705  14.202
  708MPD2     N10511   0.333   2.485  14.532
  708MPD2    H510512   0.367   2.400  14.488
  708MPD2    N110513   0.229   2.950  14.419
  708MPD2    H710514   0.239   3.029  14.356
  709TMC3    C110515   0.034   3.073  14.479
  709TMC3    C210516   4.772   3.082  14.347
  709TMC3    C310517   4.638   3.082  14.324
  709TMC3    C410518   4.727   3.098  14.580
  709TMC3    C510519   4.598   3.126  14.554
  709TMC3    C610520   4.546   3.113  14.429
  709TMC3     C10521   0.131   2.965  14.513
  709TMC3     O10522   0.100   2.906  14.620
  709TMC3     H10523   0.060   3.041  14.276
  709TMC3    H110524   4.760   3.088  14.683
  709TMC3    H210525   4.439   3.105  14.417
  709TMC3    C710526   4.514   3.105  14.671
  709TMC3    C810527   4.578   3.036  14.202
  709TMC3    O110528   4.566   3.125  14.778
  709TMC3    O210529   4.466   2.987  14.208
  710TMC3    C110530   1.205   4.525  18.746
  710TMC3    C210531   1.246   4.531  18.615
  710TMC3    C310532   1.363   4.474  18.581
  710TMC3    C410533   1.288   4.466  18.840
  710TMC3    C510534   1.411   4.424  18.800
  710TMC3    C610535   1.455   4.432  18.674
  710TMC3     C10536   1.064   4.550  18.760
  710TMC3     O10537   0.990   4.540  18.665
  710TMC3     H10538   1.194   4.574  18.531
  710TMC3    H110539   1.256   4.453  18.943
  710TMC3    H210540   1.545   4.378  18.646
  710TMC3    C710541   1.490   4.348  18.895
  710TMC3    C810542   1.392   4.421  18.449
  710TMC3    O110543   1.419   4.283  18.971
  710TMC3    O210544   1.510   4.406  18.415
  711TMC3    C110545   1.270   0.598  15.176
  711TMC3    C210546   1.263   0.638  15.302
  711TMC3    C310547   1.372   0.650  15.383
  711TMC3    C410548   1.392   0.558  15.131
  711TMC3    C510549   1.495   0.546  15.212
  711TMC3    C610550   1.496   0.612  15.332
  711TMC3     C10551   1.176   0.505  15.128
  711TMC3     O10552   1.221   0.427  15.046
  711TMC3     H10553   1.172   0.675  15.347
  711TMC3    H110554   1.412   0.527  15.029
  711TMC3    H210555   1.586   0.607  15.391
  711TMC3    C710556   1.538   0.413  15.240
  711TMC3    C810557   1.352   0.592  15.509
  711TMC3    O110558   1.634   0.405  15.313
  711TMC3    O210559   1.239   0.551  15.535
  712MPD2     C10560   2.155   1.498  13.759
  712MPD2    C110561   2.289   1.469  13.797
  712MPD2    C210562   2.382   1.575  13.789
  712MPD2    C310563   2.335   1.703  13.749
  712MPD2    C410564   2.200   1.725  13.719
  712MPD2    C510565   2.113   1.624  13.717
  712MPD2     H10566   2.483   1.547  13.817
  712MPD2    H110567   2.161   1.817  13.678
  712MPD2    H210568   2.093   1.410  13.741
  712MPD2    H310569   2.012   1.641  13.682
  712MPD2     N10570   2.406   1.827  13.759
  712MPD2    H510571   2.360   1.903  13.709
  712MPD2    N110572   2.326   1.344  13.828
  712MPD2    H710573   2.420   1.305  13.820
  713TMC3    C110574   2.586   1.982  13.790
  713TMC3    C210575   2.714   1.997  13.859
  713TMC3    C310576   2.770   2.118  13.856
  713TMC3    C410577   2.514   2.083  13.744
  713TMC3    C510578   2.586   2.206  13.748
  713TMC3    C610579   2.714   2.223  13.792
  713TMC3     C10580   2.534   1.844  13.796
  713TMC3     O10581   2.614   1.754  13.826
  713TMC3     H10582   2.767   1.909  13.893
  713TMC3    H110583   2.417   2.079  13.697
  713TMC3    H210584   2.766   2.317  13.778
  713TMC3    C710585   2.511   2.326  13.741
  713TMC3    C810586   2.911   2.135  13.879
  713TMC3    O110587   2.582   2.425  13.761
  713TMC3    O210588   2.967   2.213  13.808
  714MPD2     C10589   0.039   1.132  19.889
  714MPD2    C110590   0.035   1.013  19.825
  714MPD2    C210591   4.710   0.986  19.739
  714MPD2    C310592   4.624   1.082  19.704
  714MPD2    C410593   4.623   1.204  19.769
  714MPD2    C510594   4.722   1.231  19.858
  714MPD2     H10595   4.705   0.893  19.683
  714MPD2    H110596   4.549   1.281  19.754
  714MPD2    H210597   0.123   1.150  19.956
  714MPD2    H310598   4.711   1.327  19.909
  714MPD2     N10599   4.529   1.049  19.609
  714MPD2    H510600   4.522   0.952  19.581
  714MPD2    N110601   0.136   0.922  19.856
  714MPD2    H710602   0.217   0.963  19.901
  715TMC3    C110603   0.247   0.714  19.864
  715TMC3    C210604   0.242   0.579  19.840
  715TMC3    C310605   0.357   0.506  19.837
  715TMC3    C410606   0.365   0.779  19.891
  715TMC3    C510607   0.478   0.703  19.888
  715TMC3    C610608   0.474   0.568  19.865
  715TMC3     C10609   0.129   0.789  19.830
  715TMC3     O10610   0.025   0.730  19.800
  715TMC3     H10611   0.159   0.528  19.792
  715TMC3    H110612   0.383   0.886  19.883
  715TMC3    H210613   0.564   0.508  19.862
  715TMC3    C710614   0.604   0.754  19.957
  715TMC3    C810615   0.353   0.368  19.795
  715TMC3    O110616   0.706   0.688  19.947
  715TMC3    O210617   0.252   0.325  19.743
  716MPD2     C10618   4.724   3.565  10.215
  716MPD2    C110619   4.663   3.585  10.097
  716MPD2    C210620   4.654   3.486  10.003
  716MPD2    C310621   4.692   3.353  10.030
  716MPD2    C410622   4.755   3.339  10.152
  716MPD2    C510623   4.769   3.439  10.239
  716MPD2     H10624   4.614   3.509   9.905
  716MPD2    H110625   0.001   3.237  10.177
  716MPD2    H210626   4.729   3.632  10.300
  716MPD2    H310627   0.044   3.417  10.329
  716MPD2     N10628   4.674   3.256   9.929
  716MPD2    H510629   4.623   3.281   9.845
  716MPD2    N110630   4.625   3.718  10.072
  716MPD2    H710631   4.631   3.783  10.150
  717TMC3    C110632   4.674   3.036   9.832
  717TMC3    C210633   4.596   3.082   9.727
  717TMC3    C310634   4.576   2.998   9.625
  717TMC3    C410635   4.716   2.907   9.840
  717TMC3    C510636   4.684   2.829   9.742
  717TMC3    C610637   4.619   2.867   9.627
  717TMC3     C10638   4.715   3.126   9.943
  717TMC3     O10639   4.778   3.080  10.041
  717TMC3     H10640   4.573   3.187   9.725
  717TMC3    H110641   0.005   2.869   9.913
  717TMC3    H210642   4.600   2.806   9.539
  717TMC3    C710643   4.751   2.698   9.745
  717TMC3    C810644   4.511   3.044   9.499
  717TMC3    O110645   0.064   2.686   9.825
  717TMC3    O210646   4.465   3.159   9.510
  718MPD2     C10647   4.187   2.307  13.220
  718MPD2    C110648   4.080   2.267  13.150
  718MPD2    C210649   4.020   2.141  13.174
  718MPD2    C310650   4.082   2.057  13.261
  718MPD2    C410651   4.191   2.096  13.339
  718MPD2    C510652   4.240   2.220  13.317
  718MPD2     H10653   3.937   2.109  13.112
  718MPD2    H110654   4.244   2.031  13.408
  718MPD2    H210655   4.219   2.411  13.215
  718MPD2    H310656   4.331   2.247  13.370
  718MPD2     N10657   4.026   1.924  13.273
  718MPD2    H510658   3.951   1.898  13.209
  718MPD2    N110659   4.032   2.350  13.047
  718MPD2    H710660   4.093   2.424  13.015
  719TMC3    C110661   3.929   2.358  12.836
  719TMC3    C210662   3.894   2.244  12.771
  719TMC3    C310663   3.985   2.179  12.699
  719TMC3    C410664   4.047   2.418  12.813
  719TMC3    C510665   4.140   2.352  12.735
  719TMC3    C610666   4.105   2.237  12.674
  719TMC3     C10667   3.911   2.327  12.982
  719TMC3     O10668   3.817   2.259  13.001
  719TMC3     H10669   3.796   2.201  12.785
  719TMC3    H110670   4.060   2.516  12.857
  719TMC3    H210671   4.182   2.172  12.633
  719TMC3    C710672   4.266   2.409  12.704
  719TMC3    C810673   3.985   2.032  12.703
  719TMC3    O110674   4.319   2.362  12.603
  719TMC3    O210675   4.090   1.978  12.738
  720MPD2     C10676   2.310   3.639  14.469
  720MPD2    C110677   2.393   3.608  14.369
  720MPD2    C210678   2.515   3.546  14.398
  720MPD2    C310679   2.552   3.520  14.527
  720MPD2    C410680   2.455   3.543  14.628
  720MPD2    C510681   2.331   3.601  14.599
  720MPD2     H10682   2.587   3.528  14.319
  720MPD2    H110683   2.483   3.520  14.730
  720MPD2    H210684   2.225   3.703  14.449
  720MPD2    H310685   2.259   3.621  14.677
  720MPD2     N10686   2.689   3.495  14.554
  720MPD2    H510687   2.743   3.494  14.469
  720MPD2    N110688   2.380   3.659  14.239
  720MPD2    H710689   2.434   3.611  14.167
  721TMC3    C110690   2.894   3.484  14.684
  721TMC3    C210691   2.948   3.502  14.810
  721TMC3    C310692   3.073   3.551  14.820
  721TMC3    C410693   2.969   3.509  14.567
  721TMC3    C510694   3.093   3.557  14.583
  721TMC3    C610695   3.148   3.560  14.711
  721TMC3     C10696   2.749   3.460  14.678
  721TMC3     O10697   2.692   3.432  14.784
  721TMC3     H10698   2.893   3.469  14.897
  721TMC3    H110699   2.922   3.489  14.471
  721TMC3    H210700   3.252   3.588  14.723
  721TMC3    C710701   3.194   3.512  14.497
  721TMC3    C810702   3.146   3.556  14.944
  721TMC3    O110703   3.213   3.585  14.401
  721TMC3    O210704   3.251   3.499  14.944
  722MPD2     C10705   1.279   2.320  13.336
  722MPD2    C110706   1.252   2.443  13.391
  722MPD2    C210707   1.125   2.490  13.380
  722MPD2    C310708   1.026   2.432  13.309
  722MPD2    C410709   1.050   2.307  13.260
  722MPD2    C510710   1.176   2.254  13.270
  722MPD2     H10711   1.104   2.591  13.415
  722MPD2    H110712   0.987   2.235  13.209
  722MPD2    H210713   1.380   2.281  13.330
  722MPD2    H310714   1.187   2.155  13.226
  722MPD2     N10715   0.894   2.485  13.312
  722MPD2    H510716   0.881   2.577  13.354
  722MPD2    N110717   1.349   2.518  13.461
  722MPD2    H710718   1.331   2.611  13.498
  723TMC3    C110719   0.657   2.475  13.302
  723TMC3    C210720   0.559   2.375  13.312
  723TMC3    C310721   0.429   2.406  13.288
  723TMC3    C410722   0.621   2.604  13.272
  723TMC3    C510723   0.487   2.633  13.244
  723TMC3    C610724   0.392   2.532  13.252
  723TMC3     C10725   0.784   2.426  13.248
  723TMC3     O10726   0.770   2.319  13.189
  723TMC3     H10727   0.591   2.279  13.350
  723TMC3    H110728   0.706   2.671  13.268
  723TMC3    H210729   0.288   2.557  13.241
  723TMC3    C710730   0.436   2.775  13.245
  723TMC3    C810731   0.332   2.315  13.339
  723TMC3    O110732   0.337   2.788  13.172
  723TMC3    O210733   0.223   2.349  13.394
  724TMC3    C110734   1.607   0.253  10.505
  724TMC3    C210735   1.548   0.250  10.373
  724TMC3    C310736   1.609   0.322  10.278
  724TMC3    C410737   1.719   0.330  10.532
  724TMC3    C510738   1.786   0.381  10.426
  724TMC3    C610739   1.730   0.376  10.297
  724TMC3     C10740   1.566   0.165  10.605
  724TMC3     O10741   1.594   0.202  10.719
  724TMC3     H10742   1.443   0.223  10.366
  724TMC3    H110743   1.765   0.330  10.630
  724TMC3    H210744   1.789   0.411  10.213
  724TMC3    C710745   1.873   0.498  10.442
  724TMC3    C810746   1.524   0.409  10.193
  724TMC3    O110747   1.910   0.539  10.335
  724TMC3    O210748   1.404   0.375  10.176
  725TMC3    C110749   3.201   4.094  13.191
  725TMC3    C210750   3.153   4.107  13.065
  725TMC3    C310751   3.048   4.031  13.028
  725TMC3    C410752   3.149   4.004  13.284
  725TMC3    C510753   3.045   3.925  13.235
  725TMC3    C610754   2.991   3.941  13.108
  725TMC3     C10755   3.346   4.114  13.195
  725TMC3     O10756   3.391   4.204  13.125
  725TMC3     H10757   3.191   4.187  13.002
  725TMC3    H110758   3.197   3.984  13.379
  725TMC3    H210759   2.912   3.876  13.071
  725TMC3    C710760   2.993   3.833  13.324
  725TMC3    C810761   3.003   4.029  12.890
  725TMC3    O110762   2.868   3.838  13.322
  725TMC3    O210763   2.951   3.926  12.862
  726MPD2     C10764   0.997   0.994  10.625
  726MPD2    C110765   0.995   1.054  10.752
  726MPD2    C210766   0.935   0.979  10.862
  726MPD2    C310767   0.875   0.859  10.829
  726MPD2    C410768   0.868   0.813  10.703
  726MPD2    C510769   0.924   0.883  10.599
  726MPD2     H10770   0.942   1.022  10.961
  726MPD2    H110771   0.821   0.719  10.676
  726MPD2    H210772   1.045   1.035  10.537
  726MPD2    H310773   0.908   0.859  10.494
  726MPD2     N10774   0.799   0.785  10.918
  726MPD2    H510775   0.744   0.712  10.875
  726MPD2    N110776   1.047   1.182  10.781
  726MPD2    H710777   1.080   1.201  10.875
  727TMC3    C110778   1.119   1.399  10.721
  727TMC3    C210779   1.226   1.394  10.809
  727TMC3    C310780   1.293   1.513  10.821
  727TMC3    C410781   1.109   1.512  10.637
  727TMC3    C510782   1.190   1.623  10.649
  727TMC3    C610783   1.282   1.626  10.748
  727TMC3     C10784   1.064   1.272  10.677
  727TMC3     O10785   1.008   1.271  10.573
  727TMC3     H10786   1.237   1.312  10.879
  727TMC3    H110787   1.026   1.507  10.569
  727TMC3    H210788   1.337   1.719  10.756
  727TMC3    C710789   1.130   1.743  10.607
  727TMC3    C810790   1.372   1.536  10.942
  727TMC3    O110791   1.011   1.739  10.593
  727TMC3    O210792   1.468   1.616  10.932
  728TMC3    C110793   0.469   4.094  15.788
  728TMC3    C210794   0.602   4.111  15.784
  728TMC3    C310795   0.663   4.074  15.670
  728TMC3    C410796   0.399   4.057  15.677
  728TMC3    C510797   0.466   4.036  15.563
  728TMC3    C610798   0.602   4.046  15.554
  728TMC3     C10799   0.404   4.115  15.920
  728TMC3     O10800   0.461   4.188  16.003
  728TMC3     H10801   0.658   4.128  15.876
  728TMC3    H110802   0.292   4.039  15.679
  728TMC3    H210803   0.651   4.012  15.464
  728TMC3    C710804   0.390   4.025  15.441
  728TMC3    C810805   0.809   4.084  15.667
  728TMC3    O110806   0.274   3.987  15.460
  728TMC3    O210807   0.866   4.136  15.766
  729MPD2     C10808   2.856   0.164  16.767
  729MPD2    C110809   2.954   0.206  16.853
  729MPD2    C210810   2.931   0.204  16.993
  729MPD2    C310811   2.809   0.158  17.042
  729MPD2    C410812   2.711   0.128  16.946
  729MPD2    C510813   2.729   0.138  16.812
  729MPD2     H10814   3.008   0.241  17.060
  729MPD2    H110815   2.608   0.114  16.978
  729MPD2    H210816   2.881   0.147  16.663
  729MPD2    H310817   2.657   0.098  16.741
  729MPD2     N10818   2.773   0.158  17.176
  729MPD2    H510819   2.679   0.126  17.195
  729MPD2    N110820   3.064   0.266  16.794
  729MPD2    H710821   3.065   0.257  16.693
  730TMC3    C110822   2.782   0.206  17.397
  730TMC3    C210823   2.855   0.203  17.512
  730TMC3    C310824   2.830   0.296  17.608
  730TMC3    C410825   2.673   0.290  17.387
  730TMC3    C510826   2.652   0.378  17.486
  730TMC3    C610827   2.722   0.379  17.602
  730TMC3     C10828   2.862   0.184  17.280
  730TMC3     O10829   2.986   0.189  17.284
  730TMC3     H10830   2.948   0.148  17.518
  730TMC3    H110831   2.626   0.306  17.290
  730TMC3    H210832   2.702   0.457  17.675
  730TMC3    C710833   2.606   0.503  17.439
  730TMC3    C810834   2.959   0.353  17.648
  730TMC3    O110835   2.629   0.533  17.324
  730TMC3    O210836   3.056   0.284  17.644
  731MPD2     C10837   2.760   3.377  12.761
  731MPD2    C110838   2.793   3.256  12.712
  731MPD2    C210839   2.805   3.148  12.798
  731MPD2    C310840   2.767   3.156  12.925
  731MPD2    C410841   2.726   3.279  12.972
  731MPD2    C510842   2.722   3.391  12.894
  731MPD2     H10843   2.835   3.054  12.755
  731MPD2    H110844   2.683   3.286  13.071
  731MPD2    H210845   2.765   3.463  12.695
  731MPD2    H310846   2.684   3.484  12.935
  731MPD2     N10847   2.775   3.040  13.011
  731MPD2    H510848   2.835   2.972  12.967
  731MPD2    N110849   2.830   3.254  12.579
  731MPD2    H710850   2.815   3.343  12.534
  732TMC3    C110851   2.865   3.195  12.356
  732TMC3    C210852   2.796   3.129  12.263
  732TMC3    C310853   2.793   3.182  12.132
  732TMC3    C410854   2.922   3.315  12.334
  732TMC3    C510855   2.920   3.371  12.208
  732TMC3    C610856   2.858   3.304  12.106
  732TMC3     C10857   2.836   3.148  12.496
  732TMC3     O10858   2.836   3.029  12.517
  732TMC3     H10859   2.770   3.026  12.286
  732TMC3    H110860   2.959   3.372  12.419
  732TMC3    H210861   2.833   3.353  12.013
  732TMC3    C710862   2.971   3.500  12.172
  732TMC3    C810863   2.692   3.123  12.042
  732TMC3    O110864   2.936   3.552  12.068
  732TMC3    O210865   2.702   3.122  11.920
  733TMC3    C110866   3.793   1.582  13.412
  733TMC3    C210867   3.873   1.684  13.443
  733TMC3    C310868   3.981   1.705  13.358
  733TMC3    C410869   3.793   1.509  13.296
  733TMC3    C510870   3.891   1.536  13.206
  733TMC3    C610871   3.984   1.641  13.238
  733TMC3     C10872   3.675   1.579  13.495
  733TMC3     O10873   3.628   1.693  13.514
  733TMC3     H10874   3.857   1.755  13.523
  733TMC3    H110875   3.714   1.438  13.276
  733TMC3    H210876   4.064   1.663  13.169
  733TMC3    C710877   3.837   1.533  13.081
  733TMC3    C810878   4.056   1.832  13.373
  733TMC3    O110879   3.742   1.457  13.068
  733TMC3    O210880   4.088   1.864  13.485
  734MPD2     C10881   0.416   4.251  12.753
  734MPD2    C110882   0.488   4.134  12.733
  734MPD2    C210883   0.618   4.140  12.680
  734MPD2    C310884   0.665   4.260  12.639
  734MPD2    C410885   0.586   4.368  12.647
  734MPD2    C510886   0.464   4.363  12.700
  734MPD2     H10887   0.669   4.045  12.666
  734MPD2    H110888   0.623   4.462  12.608
  734MPD2    H210889   0.314   4.255  12.790
  734MPD2    H310890   0.416   4.458  12.723
  734MPD2     N10891   0.783   4.266  12.567
  734MPD2    H510892   0.832   4.177  12.562
  734MPD2    N110893   0.422   4.010  12.768
  734MPD2    H710894   0.322   4.012  12.783
  735TMC3    C110895   0.403   3.783  12.804
  735TMC3    C210896   0.304   3.768  12.705
  735TMC3    C310897   0.299   3.649  12.634
  735TMC3    C410898   0.478   3.675  12.834
  735TMC3    C510899   0.454   3.552  12.785
  735TMC3    C610900   0.362   3.540  12.685
  735TMC3     C10901   0.484   3.899  12.792
  735TMC3     O10902   0.606   3.876  12.787
  735TMC3     H10903   0.234   3.842  12.670
  735TMC3    H110904   0.549   3.687  12.916
  735TMC3    H210905   0.368   3.443  12.637
  735TMC3    C710906   0.572   3.474  12.773
  735TMC3    C810907   0.299   3.659  12.494
  735TMC3    O110908   0.674   3.540  12.752
  735TMC3    O210909   0.257   3.566  12.421
  736MPD2     C10910   0.612   3.110  12.783
  736MPD2    C110911   0.652   3.232  12.754
  736MPD2    C210912   0.782   3.261  12.725
  736MPD2    C310913   0.865   3.161  12.697
  736MPD2    C410914   0.822   3.032  12.711
  736MPD2    C510915   0.698   3.007  12.760
  736MPD2     H10916   0.813   3.363  12.708
  736MPD2    H110917   0.877   2.941  12.694
  736MPD2    H210918   0.514   3.083  12.820
  736MPD2    H310919   0.667   2.908  12.791
  736MPD2     N10920   0.997   3.181  12.651
  736MPD2    H510921   1.058   3.102  12.632
  736MPD2    N110922   0.550   3.336  12.779
  736MPD2    H710923   0.457   3.304  12.802
  737TMC3    C110924   1.192   3.293  12.573
  737TMC3    C210925   1.266   3.407  12.580
  737TMC3    C310926   1.370   3.419  12.488
  737TMC3    C410927   1.235   3.183  12.504
  737TMC3    C510928   1.350   3.191  12.433
  737TMC3    C610929   1.413   3.312  12.419
  737TMC3     C10930   1.065   3.302  12.644
  737TMC3     O10931   1.023   3.416  12.663
  737TMC3     H10932   1.248   3.492  12.645
  737TMC3    H110933   1.184   3.087  12.500
  737TMC3    H210934   1.511   3.317  12.372
  737TMC3    C710935   1.398   3.070  12.361
  737TMC3    C810936   1.418   3.548  12.446
  737TMC3    O110937   1.358   2.960  12.399
  737TMC3    O210938   1.415   3.637  12.527
  738MPD2     C10939   1.428   2.539  15.224
  738MPD2    C110940   1.543   2.467  15.250
  738MPD2    C210941   1.662   2.503  15.196
  738MPD2    C310942   1.675   2.617  15.118
  738MPD2    C410943   1.564   2.695  15.096
  738MPD2    C510944   1.441   2.648  15.143
  738MPD2     H10945   1.743   2.432  15.212
  738MPD2    H110946   1.560   2.791  15.047
  738MPD2    H210947   1.329   2.524  15.264
  738MPD2    H310948   1.348   2.700  15.123
  738MPD2     N10949   1.792   2.657  15.049
  738MPD2    H510950   1.779   2.742  14.994
  738MPD2    N110951   1.538   2.351  15.320
  738MPD2    H710952   1.622   2.297  15.338
  739TMC3    C110953   2.016   2.650  14.971
  739TMC3    C210954   1.978   2.723  14.865
  739TMC3    C310955   2.066   2.784  14.783
  739TMC3    C410956   2.148   2.633  15.000
  739TMC3    C510957   2.238   2.702  14.921
  739TMC3    C610958   2.199   2.773  14.805
  739TMC3     C10959   1.916   2.594  15.062
  739TMC3     O10960   1.952   2.534  15.164
  739TMC3     H10961   1.875   2.717  14.834
  739TMC3    H110962   2.175   2.599  15.099
  739TMC3    H210963   2.267   2.819  14.735
  739TMC3    C710964   2.364   2.732  14.988
  739TMC3    C810965   2.013   2.844  14.664
  739TMC3    O110966   2.392   2.680  15.100
  739TMC3    O210967   1.896   2.865  14.661
  740TMC3    C110968   2.461   3.855  14.752
  740TMC3    C210969   2.510   3.801  14.865
  740TMC3    C310970   2.646   3.772  14.864
  740TMC3    C410971   2.532   3.874  14.639
  740TMC3    C510972   2.672   3.851  14.639
  740TMC3    C610973   2.724   3.796  14.755
  740TMC3     C10974   2.328   3.920  14.758
  740TMC3     O10975   2.301   4.007  14.676
  740TMC3     H10976   2.466   3.809  14.963
  740TMC3    H110977   2.474   3.891  14.548
  740TMC3    H210978   2.828   3.767  14.749
  740TMC3    C710979   2.736   3.821  14.509
  740TMC3    C810980   2.706   3.705  14.975
  740TMC3    O110981   2.841   3.773  14.520
  740TMC3    O210982   2.830   3.710  14.979
  741TMC3    C110983   1.854   3.341  14.291
  741TMC3    C210984   1.742   3.263  14.310
  741TMC3    C310985   1.747   3.167  14.402
  741TMC3    C410986   1.970   3.326  14.361
  741TMC3    C510987   1.970   3.244  14.467
  741TMC3    C610988   1.859   3.164  14.492
  741TMC3     C10989   1.853   3.461  14.206
  741TMC3     O10990   1.946   3.538  14.216
  741TMC3     H10991   1.660   3.260  14.238
  741TMC3    H110992   2.065   3.376  14.341
  741TMC3    H210993   1.876   3.091  14.571
  741TMC3    C710994   2.085   3.245  14.556
  741TMC3    C810995   1.633   3.088  14.429
  741TMC3    O110996   2.187   3.304  14.521
  741TMC3    O210997   1.527   3.128  14.378
  742TMC3    C110998   2.039   1.756  15.687
  742TMC3    C210999   1.945   1.734  15.583
  742TMC3    C311000   1.994   1.736  15.455
  742TMC3    C411001   2.176   1.775  15.662
  742TMC3    C511002   2.222   1.746  15.539
  742TMC3    C611003   2.131   1.730  15.433
  742TMC3     C11004   1.996   1.754  15.829
  742TMC3     O11005   2.081   1.785  15.913
  742TMC3     H11006   1.841   1.741  15.613
  742TMC3    H111007   2.247   1.769  15.745
  742TMC3    H211008   2.167   1.717  15.332
  742TMC3    C711009   2.354   1.692  15.513
  742TMC3    C811010   1.922   1.699  15.339
  742TMC3    O111011   2.366   1.632  15.405
  742TMC3    O211012   1.968   1.717  15.230
  743MPD2     C11013   3.880   2.620  19.401
  743MPD2    C111014   3.914   2.750  19.386
  743MPD2    C211015   4.032   2.797  19.435
  743MPD2    C311016   4.127   2.713  19.497
  743MPD2    C411017   4.087   2.577  19.507
  743MPD2    C511018   3.967   2.530  19.454
  743MPD2     H11019   4.056   2.901  19.412
  743MPD2    H111020   4.151   2.505  19.556
  743MPD2    H211021   3.793   2.572  19.356
  743MPD2    H311022   3.941   2.425  19.462
  743MPD2     N11023   4.247   2.774  19.533
  743MPD2    H511024   4.252   2.876  19.535
  743MPD2    N111025   3.824   2.832  19.309
  743MPD2    H711026   3.740   2.781  19.283
  744TMC3    C111027   3.756   3.007  19.165
  744TMC3    C211028   3.760   3.138  19.135
  744TMC3    C311029   3.715   3.179  19.013
  744TMC3    C411030   3.717   2.917  19.067
  744TMC3    C511031   3.696   2.962  18.937
  744TMC3    C611032   3.694   3.090  18.907
  744TMC3     C11033   3.844   2.964  19.266
  744TMC3     O11034   3.936   3.043  19.289
  744TMC3     H11035   3.786   3.215  19.206
  744TMC3    H111036   3.732   2.810  19.081
  744TMC3    H211037   3.668   3.134  18.811
  744TMC3    C711038   3.753   2.883  18.830
  744TMC3    C811039   3.770   3.306  18.960
  744TMC3    O111040   3.839   2.942  18.761
  744TMC3    O211041   3.816   3.302  18.845
  745TMC3    C111042   2.231   1.123  13.803
  745TMC3    C211043   2.100   1.088  13.799
  745TMC3    C311044   2.026   1.085  13.684
  745TMC3    C411045   2.294   1.128  13.688
  745TMC3    C511046   2.220   1.133  13.575
  745TMC3    C611047   2.084   1.104  13.566
  745TMC3     C11048   2.233   1.246  13.870
  745TMC3     O11049   2.133   1.275  13.939
  745TMC3     H11050   2.039   1.079  13.888
  745TMC3    H111051   2.402   1.125  13.683
  745TMC3    H211052   2.024   1.121  13.478
  745TMC3    C711053   2.276   1.189  13.451
  745TMC3    C811054   1.908   1.174  13.691
  745TMC3    O111055   2.238   1.155  13.337
  745TMC3    O211056   1.836   1.163  13.592
  746TMC3    C111057   0.050   3.330  11.176
  746TMC3    C211058   0.095   3.332  11.050
  746TMC3    C311059   0.018   3.272  10.952
  746TMC3    C411060   4.705   3.279  11.200
  746TMC3    C511061   4.624   3.235  11.096
  746TMC3    C611062   4.673   3.234  10.967
  746TMC3     C11063   0.062   3.459  11.238
  746TMC3     O11064   4.734   3.512  11.258
  746TMC3     H11065   0.193   3.367  11.020
  746TMC3    H111066   4.672   3.297  11.301
  746TMC3    H211067   4.608   3.194  10.889
  746TMC3    C711068   4.480   3.259  11.116
  746TMC3    C811069   0.052   3.317  10.825
  746TMC3    O111070   4.414   3.252  11.013
  746TMC3    O211071   0.163   3.281  10.775
  747TMC3    C111072   2.108   3.157  11.610
  747TMC3    C211073   2.025   3.061  11.652
  747TMC3    C311074   1.990   3.063  11.785
  747TMC3    C411075   2.162   3.250  11.700
  747TMC3    C511076   2.136   3.234  11.829
  747TMC3    C611077   2.044   3.142  11.882
  747TMC3     C11078   2.115   3.201  11.478
  747TMC3     O11079   2.135   3.322  11.457
  747TMC3     H11080   1.976   2.995  11.580
  747TMC3    H111081   2.217   3.338  11.670
  747TMC3    H211082   2.031   3.134  11.989
  747TMC3    C711083   2.224   3.299  11.920
  747TMC3    C811084   1.860   3.001  11.808
  747TMC3    O111085   2.170   3.358  12.015
  747TMC3    O211086   1.818   2.919  11.729
  748MPD2     C11087   3.360   4.372  19.482
  748MPD2    C111088   3.410   4.245  19.469
  748MPD2    C211089   3.543   4.223  19.475
  748MPD2    C311090   3.633   4.329  19.471
  748MPD2    C411091   3.595   4.456  19.466
  748MPD2    C511092   3.455   4.475  19.474
  748MPD2     H11093   3.573   4.120  19.460
  748MPD2    H111094   3.663   4.541  19.465
  748MPD2    H211095   3.259   4.409  19.472
  748MPD2    H311096   3.413   4.574  19.489
  748MPD2     N11097   3.771   4.294  19.463
  748MPD2    H511098   3.780   4.195  19.484
  748MPD2    N111099   3.314   4.134  19.475
  748MPD2    H711100   3.224   4.155  19.433
  749TMC3    C111101   4.005   4.304  19.460
  749TMC3    C211102   4.015   4.184  19.521
  749TMC3    C311103   4.130   4.116  19.506
  749TMC3    C411104   4.111   4.357  19.389
  749TMC3    C511105   4.223   4.280  19.376
  749TMC3    C611106   4.232   4.152  19.420
  749TMC3     C11107   3.879   4.371  19.439
  749TMC3     O11108   3.888   4.481  19.390
  749TMC3     H11109   3.933   4.155  19.586
  749TMC3    H111110   4.113   4.458  19.349
  749TMC3    H211111   4.328   4.101  19.415
  749TMC3    C711112   4.322   4.335  19.280
  749TMC3    C811113   4.145   3.997  19.584
  749TMC3    O111114   4.332   4.458  19.275
  749TMC3    O211115   4.093   4.011  19.693
  750MPD2     C11116   4.711   0.560  11.950
  750MPD2    C111117   4.583   0.525  11.920
  750MPD2    C211118   4.554   0.442  11.815
  750MPD2    C311119   4.654   0.385  11.748
  750MPD2    C411120   4.777   0.416  11.772
  750MPD2    C511121   0.027   0.510  11.864
  750MPD2     H11122   4.453   0.431  11.776
  750MPD2    H111123   0.068   0.358  11.717
  750MPD2    H211124   4.746   0.626  12.028
  750MPD2    H311125   0.132   0.532  11.879
  750MPD2     N11126   4.634   0.279  11.651
  750MPD2    H511127   4.711   0.214  11.639
  750MPD2    N111128   4.478   0.594  11.988
  750MPD2    H711129   4.503   0.663  12.059
  751TMC3    C111130   4.510   0.118  11.546
  751TMC3    C211131   4.415   0.039  11.615
  751TMC3    C311132   4.419   4.686  11.604
  751TMC3    C411133   4.612   0.059  11.482
  751TMC3    C511134   4.607   4.698  11.465
  751TMC3    C611135   4.510   4.621  11.522
  751TMC3     C11136   4.507   0.245  11.607
  751TMC3     O11137   4.397   0.300  11.606
  751TMC3     H11138   4.322   0.087  11.644
  751TMC3    H111139   4.679   0.115  11.418
  751TMC3    H211140   4.499   4.515  11.505
  751TMC3    C711141   4.681   4.648  11.352
  751TMC3    C811142   4.296   4.606  11.636
  751TMC3    O111143   0.006   4.700  11.331
  751TMC3    O211144   4.275   4.501  11.579
  752TMC3    C111145   3.576   0.607  17.728
  752TMC3    C211146   3.567   0.475  17.705
  752TMC3    C311147   3.526   0.395  17.803
  752TMC3    C411148   3.546   0.654  17.857
  752TMC3    C511149   3.495   0.568  17.951
  752TMC3    C611150   3.483   0.430  17.929
  752TMC3     C11151   3.593   0.712  17.621
  752TMC3     O11152   3.599   0.825  17.652
  752TMC3     H11153   3.608   0.429  17.616
  752TMC3    H111154   3.550   0.761  17.877
  752TMC3    H211155   3.469   0.365  18.014
  752TMC3    C711156   3.436   0.633  18.070
  752TMC3    C811157   3.537   0.254  17.782
  752TMC3    O111158   3.478   0.740  18.107
  752TMC3    O211159   3.624   0.225  17.701
  753TMC3    C111160   0.532   1.277  13.881
  753TMC3    C211161   0.646   1.244  13.951
  753TMC3    C311162   0.683   1.115  13.956
  753TMC3    C411163   0.463   1.192  13.812
  753TMC3    C511164   0.501   1.058  13.817
  753TMC3    C611165   0.609   1.019  13.889
  753TMC3     C11166   0.520   1.408  13.815
  753TMC3     O11167   0.409   1.463  13.798
  753TMC3     H11168   0.703   1.328  13.991
  753TMC3    H111169   0.374   1.229  13.763
  753TMC3    H211170   0.648   0.918  13.890
  753TMC3    C711171   0.426   0.964  13.735
  753TMC3    C811172   0.791   1.076  14.043
  753TMC3    O111173   0.360   1.008  13.645
  753TMC3    O211174   0.847   0.969  14.029
  754MPD2     C11175   4.616   4.739  13.587
  754MPD2    C111176   4.563   4.614  13.574
  754MPD2    C211177   4.427   4.602  13.566
  754MPD2    C311178   4.351   4.713  13.583
  754MPD2    C411179   4.406   0.057  13.599
  754MPD2    C511180   4.545   0.069  13.597
  754MPD2     H11181   4.382   4.508  13.536
  754MPD2    H111182   4.344   0.143  13.619
  754MPD2    H211183   4.724   4.751  13.583
  754MPD2    H311184   4.597   0.164  13.592
  754MPD2     N11185   4.208   4.704  13.582
  754MPD2    H511186   4.165   0.014  13.583
  754MPD2    N111187   4.646   4.504  13.588
  754MPD2    H711188   4.745   4.527  13.581
  755MPD2     C11189   3.709   0.602  13.674
  755MPD2    C111190   3.672   0.491  13.746
  755MPD2    C211191   3.695   0.365  13.701
  755MPD2    C311192   3.763   0.347  13.584
  755MPD2    C411193   3.805   0.461  13.516
  755MPD2    C511194   3.784   0.586  13.565
  755MPD2     H11195   3.659   0.278  13.755
  755MPD2    H111196   3.856   0.458  13.421
  755MPD2    H211197   3.677   0.703  13.697
  755MPD2    H311198   3.823   0.671  13.511
  755MPD2     N11199   3.790   0.221  13.527
  755MPD2    H511200   3.860   0.227  13.454
  755MPD2    N111201   3.607   0.494  13.874
  755MPD2    H711202   3.566   0.410  13.914
  756MPD2     C11203   4.192   1.213  10.040
  756MPD2    C111204   4.110   1.111  10.075
  756MPD2    C211205   4.007   1.070   9.988
  756MPD2    C311206   4.009   1.121   9.852
  756MPD2    C411207   4.094   1.222   9.820
  756MPD2    C511208   4.180   1.263   9.915
  756MPD2     H11209   3.939   0.991  10.016
  756MPD2    H111210   4.098   1.275   9.725
  756MPD2    H211211   4.262   1.273  10.098
  756MPD2    H311212   4.245   1.347   9.897
  756MPD2     N11213   3.906   1.070   9.766
  756MPD2    H511214   3.837   1.008   9.808
  756MPD2    N111215   4.113   1.042  10.202
  756MPD2    H711216   4.038   0.979  10.228
  757MPD2     C11217   3.157   0.639   9.874
  757MPD2    C111218   3.287   0.600   9.875
  757MPD2    C211219   3.385   0.684   9.825
  757MPD2    C311220   3.345   0.803   9.765
  757MPD2    C411221   3.209   0.837   9.763
  757MPD2    C511222   3.114   0.761   9.819
  757MPD2     H11223   3.487   0.652   9.807
  757MPD2    H111224   3.174   0.930   9.719
  757MPD2    H211225   3.087   0.566   9.913
  757MPD2    H311226   3.013   0.797   9.805
  757MPD2     N11227   3.456   0.879   9.708
  757MPD2    H511228   3.546   0.834   9.721
  757MPD2    N111229   3.316   0.458   9.904
  757MPD2    H711230   3.235   0.401   9.926
  758MPD2     C11231   4.167   4.540  16.213
  758MPD2    C111232   4.261   4.477  16.294
  758MPD2    C211233   4.261   4.509  16.426
  758MPD2    C311234   4.169   4.591  16.493
  758MPD2    C411235   4.066   4.634  16.414
  758MPD2    C511236   4.065   4.611  16.280
  758MPD2     H11237   4.344   4.465  16.481
  758MPD2    H111238   3.982   4.693  16.449
  758MPD2    H211239   4.156   4.527  16.106
  758MPD2    H311240   3.989   4.666  16.225
  758MPD2     N11241   4.179   4.627  16.633
  758MPD2    H511242   4.100   4.675  16.674
  758MPD2    N111243   4.362   4.404  16.224
  758MPD2    H711244   4.371   4.419  16.124
  759MPD2     C11245   3.020   2.771  10.303
  759MPD2    C111246   3.034   2.838  10.419
  759MPD2    C211247   3.101   2.967  10.416
  759MPD2    C311248   3.153   3.006  10.291
  759MPD2    C411249   3.136   2.931  10.177
  759MPD2    C511250   3.063   2.814  10.179
  759MPD2     H11251   3.102   3.031  10.503
  759MPD2    H111252   3.170   2.962  10.079
  759MPD2    H211253   2.972   2.673  10.301
  759MPD2    H311254   3.057   2.749  10.092
  759MPD2     N11255   3.208   3.135  10.284
  759MPD2    H511256   3.200   3.189  10.370
  759MPD2    N111257   2.978   2.800  10.546
  759MPD2    H711258   2.988   2.872  10.617
  760MPD2     C11259   2.526   0.288  12.119
  760MPD2    C111260   2.615   0.353  12.203
  760MPD2    C211261   2.703   0.280  12.272
  760MPD2    C311262   2.715   0.144  12.249
  760MPD2    C411263   2.624   0.085  12.161
  760MPD2    C511264   2.525   0.150  12.102
  760MPD2     H11265   2.773   0.334  12.335
  760MPD2    H111266   2.634   4.762  12.138
  760MPD2    H211267   2.443   0.341  12.073
  760MPD2    H311268   2.458   0.089  12.043
  760MPD2     N11269   2.819   0.061  12.295
  760MPD2    H511270   2.822   4.743  12.280
  760MPD2    N111271   2.617   0.496  12.206
  760MPD2    H711272   2.674   0.543  12.276
  761MPD2     C11273   3.809   4.604  11.811
  761MPD2    C111274   3.870   4.523  11.716
  761MPD2    C211275   4.006   4.540  11.693
  761MPD2    C311276   4.081   4.624  11.765
  761MPD2    C411277   4.021   4.707  11.860
  761MPD2    C511278   3.880   4.697  11.879
  761MPD2     H11279   4.046   4.497  11.602
  761MPD2    H111280   4.075   0.005  11.907
  761MPD2    H211281   3.707   4.605  11.847
  761MPD2    H311282   3.831   4.766  11.947
  761MPD2     N11283   4.216   4.658  11.734
  761MPD2    H511284   4.244   4.736  11.793
  761MPD2    N111285   3.789   4.432  11.661
  761MPD2    H711286   3.690   4.430  11.686
  762MPD2     C11287   4.207   3.785  11.444
  762MPD2    C111288   4.153   3.886  11.370
  762MPD2    C211289   4.227   3.950  11.274
  762MPD2    C311290   4.359   3.926  11.261
  762MPD2    C411291   4.419   3.829  11.340
  762MPD2    C511292   4.333   3.763  11.426
  762MPD2     H11293   4.191   4.026  11.206
  762MPD2    H111294   4.518   3.784  11.337
  762MPD2    H211295   4.152   3.748  11.530
  762MPD2    H311296   4.375   3.680  11.482
  762MPD2     N11297   4.442   4.000  11.177
  762MPD2    H511298   4.402   4.063  11.108
  762MPD2    N111299   4.014   3.920  11.403
  762MPD2    H711300   3.978   3.882  11.490
  763MPD2     C11301   1.604   4.526  16.434
  763MPD2    C111302   1.483   4.587  16.407
  763MPD2    C211303   1.458   4.716  16.452
  763MPD2    C311304   1.568   0.006  16.511
  763MPD2    C411305   1.692   4.731  16.509
  763MPD2    C511306   1.708   4.597  16.486
  763MPD2     H11307   1.360   4.758  16.434
  763MPD2    H111308   1.778   4.782  16.551
  763MPD2    H211309   1.628   4.422  16.413
  763MPD2    H311310   1.806   4.553  16.499
  763MPD2     N11311   1.557   0.137  16.568
  763MPD2    H511312   1.648   0.173  16.595
  763MPD2    N111313   1.384   4.511  16.337
  763MPD2    H711314   1.306   4.565  16.299
  764MPD2     C11315   4.166   1.744  17.791
  764MPD2    C111316   4.092   1.635  17.748
  764MPD2    C211317   4.060   1.535  17.835
  764MPD2    C311318   4.088   1.545  17.968
  764MPD2    C411319   4.161   1.654  18.010
  764MPD2    C511320   4.199   1.760  17.925
  764MPD2     H11321   4.008   1.446  17.801
  764MPD2    H111322   4.184   1.666  18.116
  764MPD2    H211323   4.189   1.823  17.721
  764MPD2    H311324   4.258   1.841  17.965
  764MPD2     N11325   4.046   1.440  18.058
  764MPD2    H511326   4.005   1.362  18.008
  764MPD2    N111327   4.041   1.618  17.613
  764MPD2    H711328   3.981   1.539  17.592
  765MPD2     C11329   3.792   3.869  15.972
  765MPD2    C111330   3.862   3.936  16.073
  765MPD2    C211331   3.985   3.895  16.098
  765MPD2    C311332   4.043   3.779  16.033
  765MPD2    C411333   3.973   3.710  15.939
  765MPD2    C511334   3.847   3.758  15.904
  765MPD2     H11335   4.050   3.937  16.174
  765MPD2    H111336   4.009   3.625  15.882
  765MPD2    H211337   3.689   3.888  15.945
  765MPD2    H311338   3.788   3.710  15.826
  765MPD2     N11339   4.162   3.727  16.089
  765MPD2    H511340   4.231   3.799  16.105
  765MPD2    N111341   3.798   4.038  16.147
  765MPD2    H711342   3.708   4.067  16.111
  766MPD2     C11343   3.142   4.244  15.910
  766MPD2    C111344   3.271   4.203  15.939
  766MPD2    C211345   3.335   4.126  15.838
  766MPD2    C311346   3.268   4.076  15.725
  766MPD2    C411347   3.135   4.101  15.725
  766MPD2    C511348   3.078   4.186  15.809
  766MPD2     H11349   3.443   4.125  15.840
  766MPD2    H111350   3.071   4.060  15.648
  766MPD2    H211351   3.086   4.316  15.969
  766MPD2    H311352   2.974   4.212  15.795
  766MPD2     N11353   3.326   4.006  15.617
  766MPD2    H511354   3.286   4.015  15.524
  766MPD2    N111355   3.345   4.266  16.048
  766MPD2    H711356   3.297   4.337  16.102
  767MPD2     C11357   3.006   4.263  15.434
  767MPD2    C111358   3.130   4.252  15.400
  767MPD2    C211359   3.164   4.181  15.290
  767MPD2    C311360   3.069   4.124  15.208
  767MPD2    C411361   2.939   4.124  15.252
  767MPD2    C511362   2.905   4.204  15.367
  767MPD2     H11363   3.267   4.164  15.261
  767MPD2    H111364   2.865   4.068  15.196
  767MPD2    H211365   2.972   4.335  15.509
  767MPD2    H311366   2.804   4.217  15.402
  767MPD2     N11367   3.106   4.057  15.091
  767MPD2    H511368   3.202   4.028  15.083
  767MPD2    N111369   3.227   4.310  15.484
  767MPD2    H711370   3.189   4.369  15.558
  768MPD2     C11371   4.143   3.046  10.760
  768MPD2    C111372   4.082   3.000  10.879
  768MPD2    C211373   4.157   2.937  10.980
  768MPD2    C311374   4.294   2.921  10.959
  768MPD2    C411375   4.349   2.972  10.847
  768MPD2    C511376   4.276   3.032  10.749
  768MPD2     H11377   4.109   2.918  11.075
  768MPD2    H111378   4.455   2.963  10.825
  768MPD2    H211379   4.093   3.090  10.675
  768MPD2    H311380   4.333   3.065  10.663
  768MPD2     N11381   4.387   2.879  11.057
  768MPD2    H511382   4.484   2.899  11.033
  768MPD2    N111383   3.948   3.026  10.905
  768MPD2    H711384   3.901   2.983  10.984
  769MPD2     C11385   0.526   0.521  15.049
  769MPD2    C111386   0.442   0.552  15.153
  769MPD2    C211387   0.511   0.624  15.259
  769MPD2    C311388   0.649   0.642  15.265
  769MPD2    C411389   0.723   0.618  15.150
  769MPD2    C511390   0.660   0.554  15.050
  769MPD2     H11391   0.456   0.653  15.348
  769MPD2    H111392   0.830   0.634  15.149
  769MPD2    H211393   0.489   0.463  14.966
  769MPD2    H311394   0.726   0.528  14.968
  769MPD2     N11395   0.693   0.710  15.379
  769MPD2    H511396   0.622   0.723  15.450
  769MPD2    N111397   0.311   0.519  15.146
  769MPD2    H711398   0.283   0.445  15.083
  770MPD2     C11399   4.358   4.674  15.538
  770MPD2    C111400   4.431   4.644  15.427
  770MPD2    C211401   4.518   4.742  15.376
  770MPD2    C311402   4.546   0.080  15.449
  770MPD2    C411403   4.479   0.095  15.571
  770MPD2    C511404   4.383   0.011  15.608
  770MPD2     H11405   4.562   4.736  15.277
  770MPD2    H111406   4.493   0.178  15.639
  770MPD2    H211407   4.274   4.620  15.579
  770MPD2    H311408   4.324   0.029  15.697
  770MPD2     N11409   4.620   0.179  15.390
  770MPD2    H511410   4.666   0.157  15.303
  770MPD2    N111411   4.412   4.534  15.350
  770MPD2    H711412   4.340   4.471  15.386
  771MPD2     C11413   1.216   3.465  14.244
  771MPD2    C111414   1.169   3.586  14.189
  771MPD2    C211415   1.047   3.586  14.121
  771MPD2    C311416   0.977   3.473  14.101
  771MPD2    C411417   1.027   3.354  14.159
  771MPD2    C511418   1.145   3.350  14.236
  771MPD2     H11419   1.010   3.681  14.086
  771MPD2    H111420   0.973   3.264  14.133
  771MPD2    H211421   1.311   3.463  14.296
  771MPD2    H311422   1.192   3.258  14.269
  771MPD2     N11423   0.858   3.478  14.030
  771MPD2    H511424   0.828   3.575  14.020
  771MPD2    N111425   1.227   3.715  14.216
  771MPD2    H711426   1.184   3.793  14.168
  772MPD2     C11427   0.887   4.220  14.048
  772MPD2    C111428   0.904   4.146  14.161
  772MPD2    C211429   0.791   4.106  14.231
  772MPD2    C311430   0.667   4.138  14.186
  772MPD2    C411431   0.654   4.211  14.070
  772MPD2    C511432   0.765   4.244  14.002
  772MPD2     H11433   0.814   4.043  14.316
  772MPD2    H111434   0.557   4.231  14.028
  772MPD2    H211435   0.966   4.250  13.980
  772MPD2    H311436   0.755   4.292  13.905
  772MPD2     N11437   0.550   4.087  14.231
  772MPD2    H511438   0.462   4.102  14.184
  772MPD2    N111439   1.030   4.114  14.214
  772MPD2    H711440   1.043   4.075  14.306
  773MPD2     C11441   0.393   0.200  18.017
  773MPD2    C111442   0.307   0.093  18.001
  773MPD2    C211443   0.318   4.773  18.096
  773MPD2    C311444   0.414   4.776  18.195
  773MPD2    C411445   0.494   0.104  18.204
  773MPD2    C511446   0.481   0.211  18.118
  773MPD2     H11447   0.243   4.695  18.087
  773MPD2    H111448   0.576   0.111  18.274
  773MPD2    H211449   0.375   0.284  17.950
  773MPD2    H311450   0.554   0.292  18.112
  773MPD2     N11451   0.418   4.666  18.280
  773MPD2    H511452   0.352   4.590  18.270
  773MPD2    N111453   0.214   0.079  17.896
  773MPD2    H711454   0.124   0.037  17.911
  774MPD2     C11455   4.017   3.594  13.792
  774MPD2    C111456   3.981   3.707  13.855
  774MPD2    C211457   4.045   3.827  13.822
  774MPD2    C311458   4.145   3.828  13.727
  774MPD2    C411459   4.176   3.714  13.657
  774MPD2    C511460   4.108   3.605  13.696
  774MPD2     H11461   4.022   3.921  13.871
  774MPD2    H111462   4.257   3.699  13.587
  774MPD2    H211463   3.971   3.501  13.822
  774MPD2    H311464   4.141   3.515  13.644
  774MPD2     N11465   4.217   3.949  13.716
  774MPD2    H511466   4.180   4.030  13.765
  774MPD2    N111467   3.904   3.696  13.972
  774MPD2    H711468   3.874   3.601  13.988
  775MPD2     C11469   0.932   0.373  16.031
  775MPD2    C111470   0.898   0.502  16.062
  775MPD2    C211471   0.990   0.604  16.047
  775MPD2    C311472   1.121   0.574  16.001
  775MPD2    C411473   1.150   0.442  15.975
  775MPD2    C511474   1.060   0.345  15.989
  775MPD2     H11475   0.969   0.709  16.065
  775MPD2    H111476   1.247   0.425  15.931
  775MPD2    H211477   0.856   0.296  16.043
  775MPD2    H311478   1.080   0.241  15.965
  775MPD2     N11479   1.222   0.667  15.985
  775MPD2    H511480   1.303   0.633  15.934
  775MPD2    N111481   0.769   0.523  16.114
  775MPD2    H711482   0.713   0.438  16.108
  776MPD2     C11483   4.586   1.094  12.278
  776MPD2    C111484   4.474   1.130  12.221
  776MPD2    C211485   4.444   1.263  12.189
  776MPD2    C311486   4.533   1.357  12.224
  776MPD2    C411487   4.651   1.314  12.297
  776MPD2    C511488   4.675   1.188  12.320
  776MPD2     H11489   4.352   1.296  12.142
  776MPD2    H111490   4.722   1.391  12.327
  776MPD2    H211491   4.608   0.992  12.307
  776MPD2    H311492   4.762   1.148  12.371
  776MPD2     N11493   4.512   1.494  12.208
  776MPD2    H511494   4.579   1.556  12.252
  776MPD2    N111495   4.394   1.024  12.183
  776MPD2    H711496   4.427   0.936  12.220
  777MPD2     C11497   0.136   3.053  18.878
  777MPD2    C111498   0.017   3.033  18.934
  777MPD2    C211499   4.709   2.953  18.876
  777MPD2    C311500   4.750   2.878  18.765
  777MPD2    C411501   0.094   2.887  18.711
  777MPD2    C511502   0.174   2.979  18.770
  777MPD2     H11503   4.609   2.937  18.915
  777MPD2    H111504   0.131   2.831  18.626
  777MPD2    H211505   0.196   3.131  18.923
  777MPD2    H311506   0.277   2.990  18.738
  777MPD2     N11507   4.647   2.809  18.704
  777MPD2    H511508   4.588   2.773  18.778
  777MPD2    N111509   4.766   3.123  19.035
  777MPD2    H711510   0.061   3.178  19.070
  778MPD2     C11511   0.932   3.431  15.366
  778MPD2    C111512   0.926   3.336  15.265
  778MPD2    C211513   0.949   3.375  15.136
  778MPD2    C311514   0.971   3.511  15.107
  778MPD2    C411515   0.965   3.607  15.208
  778MPD2    C511516   0.940   3.564  15.338
  778MPD2     H11517   0.968   3.297  15.063
  778MPD2    H111518   0.977   3.714  15.194
  778MPD2    H211519   0.918   3.408  15.471
  778MPD2    H311520   0.942   3.632  15.423
  778MPD2     N11521   1.015   3.540  14.976
  778MPD2    H511522   1.023   3.464  14.908
  778MPD2    N111523   0.904   3.197  15.292
  778MPD2    H711524   0.905   3.126  15.220
  779MPD2     C11525   0.707   2.191  14.684
  779MPD2    C111526   0.822   2.204  14.607
  779MPD2    C211527   0.847   2.324  14.563
  779MPD2    C311528   0.773   2.434  14.587
  779MPD2    C411529   0.660   2.417  14.661
  779MPD2    C511530   0.630   2.296  14.704
  779MPD2     H11531   0.933   2.336  14.498
  779MPD2    H111532   0.596   2.496  14.700
  779MPD2    H211533   0.666   2.100  14.728
  779MPD2    H311534   0.539   2.285  14.763
  779MPD2     N11535   0.804   2.549  14.520
  779MPD2    H511536   0.881   2.542  14.453
  779MPD2    N111537   0.910   2.095  14.595
  779MPD2    H711538   0.994   2.107  14.539
  780MPD2     C11539   0.306   2.142  18.993
  780MPD2    C111540   0.276   2.120  18.864
  780MPD2    C211541   0.367   2.160  18.771
  780MPD2    C311542   0.476   2.239  18.806
  780MPD2    C411543   0.504   2.262  18.941
  780MPD2    C511544   0.418   2.214  19.033
  780MPD2     H11545   0.357   2.147  18.664
  780MPD2    H111546   0.589   2.318  18.979
  780MPD2    H211547   0.243   2.103  19.073
  780MPD2    H311548   0.447   2.232  19.136
  780MPD2     N11549   0.557   2.286  18.704
  780MPD2    H511550   0.530   2.269  18.608
  780MPD2    N111551   0.175   2.032  18.842
  780MPD2    H711552   0.120   1.979  18.909
  781MPD2     C11553   2.010   4.111  12.301
  781MPD2    C111554   2.108   4.105  12.401
  781MPD2    C211555   2.230   4.163  12.376
  781MPD2    C311556   2.257   4.223  12.252
  781MPD2    C411557   2.160   4.231  12.160
  781MPD2    C511558   2.037   4.171  12.185
  781MPD2     H11559   2.302   4.175  12.456
  781MPD2    H111560   2.180   4.299  12.078
  781MPD2    H211561   1.908   4.075  12.308
  781MPD2    H311562   1.955   4.199  12.120
  781MPD2     N11563   2.377   4.292  12.230
  781MPD2    H511564   2.388   4.373  12.169
  781MPD2    N111565   2.091   4.041  12.528
  781MPD2    H711566   2.164   4.059  12.596
  782MPD2     C11567   0.157   0.326  10.645
  782MPD2    C111568   0.291   0.286  10.662
  782MPD2    C211569   0.372   0.367  10.741
  782MPD2    C311570   0.313   0.476  10.810
  782MPD2    C411571   0.180   0.512  10.793
  782MPD2    C511572   0.110   0.438  10.705
  782MPD2     H11573   0.468   0.333  10.778
  782MPD2    H111574   0.137   0.602  10.835
  782MPD2    H211575   0.087   0.268  10.586
  782MPD2    H311576   0.002   0.444  10.703
  782MPD2     N11577   0.397   0.560  10.890
  782MPD2    H511578   0.493   0.528  10.900
  782MPD2    N111579   0.326   0.153  10.621
  782MPD2    H711580   0.252   0.090  10.591
  783MPD2     C11581   4.586   4.428  11.073
  783MPD2    C111582   4.664   4.514  11.147
  783MPD2    C211583   0.000   4.555  11.087
  783MPD2    C311584   0.024   4.514  10.958
  783MPD2    C411585   4.733   4.427  10.887
  783MPD2    C511586   4.625   4.378  10.946
  783MPD2     H11587   0.066   4.615  11.148
  783MPD2    H111588   4.760   4.373  10.796
  783MPD2    H211589   4.497   4.397  11.128
  783MPD2    H311590   4.557   4.315  10.891
  783MPD2     N11591   0.150   4.560  10.918
  783MPD2    H511592   0.222   4.582  10.986
  783MPD2    N111593   4.613   4.565  11.270
  783MPD2    H711594   4.518   4.539  11.291
  784MPD2     C11595   2.916   1.006  18.641
  784MPD2    C111596   2.926   0.945  18.766
  784MPD2    C211597   2.815   0.944  18.847
  784MPD2    C311598   2.695   0.990  18.799
  784MPD2    C411599   2.692   1.036  18.668
  784MPD2    C511600   2.797   1.047  18.592
  784MPD2     H11601   2.819   0.898  18.945
  784MPD2    H111602   2.604   1.076  18.618
  784MPD2    H211603   3.004   1.006  18.578
  784MPD2    H311604   2.793   1.090  18.493
  784MPD2     N11605   2.584   0.986  18.884
  784MPD2    H511606   2.590   0.944  18.976
  784MPD2    N111607   3.050   0.898  18.833
  784MPD2    H711608   3.044   0.857  18.925
  785MPD2     C11609   2.884   3.358  11.566
  785MPD2    C111610   2.881   3.429  11.450
  785MPD2    C211611   2.787   3.381  11.353
  785MPD2    C311612   2.706   3.270  11.368
  785MPD2    C411613   2.723   3.199  11.484
  785MPD2    C511614   2.804   3.251  11.581
  785MPD2     H11615   2.756   3.447  11.273
  785MPD2    H111616   2.668   3.115  11.524
  785MPD2    H211617   2.952   3.404  11.638
  785MPD2    H311618   2.799   3.194  11.672
  785MPD2     N11619   2.608   3.248  11.270
  785MPD2    H511620   2.609   3.303  11.185
  785MPD2    N111621   2.941   3.554  11.443
  785MPD2    H711622   2.980   3.591  11.529
  786MPD2     C11623   1.525   1.452  15.125
  786MPD2    C111624   1.634   1.506  15.069
  786MPD2    C211625   1.729   1.570  15.148
  786MPD2    C311626   1.704   1.589  15.280
  786MPD2    C411627   1.591   1.545  15.334
  786MPD2    C511628   1.504   1.467  15.254
  786MPD2     H11629   1.816   1.589  15.087
  786MPD2    H111630   1.571   1.544  15.441
  786MPD2    H211631   1.447   1.395  15.076
  786MPD2    H311632   1.424   1.422  15.313
  786MPD2     N11633   1.800   1.644  15.367
  786MPD2    H511634   1.779   1.647  15.466
  786MPD2    N111635   1.662   1.479  14.938
  786MPD2    H711636   1.759   1.497  14.913
  787MPD2     C11637   1.975   0.948  15.020
  787MPD2    C111638   1.954   0.948  14.880
  787MPD2    C211639   2.004   0.843  14.811
  787MPD2    C311640   2.047   0.727  14.872
  787MPD2    C411641   2.066   0.722  15.008
  787MPD2    C511642   2.026   0.834  15.082
  787MPD2     H11643   1.997   0.857  14.704
  787MPD2    H111644   2.094   0.633  15.064
  787MPD2    H211645   1.939   1.039  15.068
  787MPD2    H311646   2.040   0.833  15.189
  787MPD2     N11647   2.082   0.624  14.780
  787MPD2    H511648   2.037   0.636  14.690
  787MPD2    N111649   1.879   1.057  14.822
  787MPD2    H711650   1.853   1.138  14.877
  788MPD2     C11651   3.542   4.727  19.094
  788MPD2    C111652   3.660   4.707  19.024
  788MPD2    C211653   3.744   0.031  18.994
  788MPD2    C311654   3.685   0.166  19.016
  788MPD2    C411655   3.565   0.177  19.077
  788MPD2    C511656   3.491   0.068  19.114
  788MPD2     H11657   3.834   0.025  18.934
  788MPD2    H111658   3.518   0.272  19.099
  788MPD2    H211659   3.478   4.644  19.120
  788MPD2    H311660   3.394   0.088  19.159
  788MPD2     N11661   3.750   0.282  18.962
  788MPD2    H511662   3.720   0.368  19.007
  788MPD2    N111663   3.706   4.574  18.994
  788MPD2    H711664   3.796   4.570  18.946
  789MPD2     C11665   3.889   4.348  16.629
  789MPD2    C111666   3.842   4.226  16.676
  789MPD2    C211667   3.742   4.226  16.778
  789MPD2    C311668   3.689   4.345  16.819
  789MPD2    C411669   3.746   4.463  16.767
  789MPD2    C511670   3.848   4.467  16.678
  789MPD2     H11671   3.706   4.136  16.826
  789MPD2    H111672   3.703   4.550  16.817
  789MPD2    H211673   3.953   4.348  16.542
  789MPD2    H311674   3.894   4.560  16.644
  789MPD2     N11675   3.577   4.358  16.905
  789MPD2    H511676   3.541   4.452  16.918
  789MPD2    N111677   3.882   4.101  16.619
  789MPD2    H711678   3.807   4.033  16.634
  790MPD2     C11679   4.775   1.388  14.055
  790MPD2    C111680   0.040   1.259  14.053
  790MPD2    C211681   4.769   1.175  13.958
  790MPD2    C311682   4.676   1.211  13.867
  790MPD2    C411683   4.621   1.340  13.875
  790MPD2    C511684   4.669   1.424  13.972
  790MPD2     H11685   0.018   1.071  13.958
  790MPD2    H111686   4.542   1.385  13.816
  790MPD2    H211687   0.032   1.456  14.129
  790MPD2    H311688   4.644   1.529  13.964
  790MPD2     N11689   4.625   1.111  13.781
  790MPD2    H511690   4.674   1.023  13.787
  790MPD2    N111691   0.135   1.228  14.158
  790MPD2    H711692   0.148   1.287  14.240
  791MPD2     C11693   3.983   1.126  13.273
  791MPD2    C111694   4.026   1.001  13.312
  791MPD2    C211695   3.959   0.896  13.268
  791MPD2    C311696   3.840   0.908  13.202
  791MPD2    C411697   3.791   1.034  13.178
  791MPD2    C511698   3.863   1.142  13.213
  791MPD2     H11699   3.994   0.797  13.297
  791MPD2    H111700   3.690   1.057  13.147
  791MPD2    H211701   4.027   1.218  13.311
  791MPD2    H311702   3.831   1.242  13.187
  791MPD2     N11703   3.760   0.797  13.156
  791MPD2    H511704   3.797   0.704  13.166
  791MPD2    N111705   4.141   0.995  13.397
  791MPD2    H711706   4.188   1.080  13.427
  792MPD2     C11707   4.528   1.003  11.821
  792MPD2    C111708   4.423   1.089  11.786
  792MPD2    C211709   4.316   1.034  11.726
  792MPD2    C311710   4.308   0.900  11.708
  792MPD2    C411711   4.413   0.813  11.740
  792MPD2    C511712   4.524   0.870  11.793
  792MPD2     H11713   4.228   1.096  11.709
  792MPD2    H111714   4.421   0.706  11.724
  792MPD2    H211715   4.618   1.042  11.869
  792MPD2    H311716   4.601   0.798  11.816
  792MPD2     N11717   4.193   0.837  11.649
  792MPD2    H511718   4.201   0.736  11.652
  792MPD2    N111719   4.444   1.222  11.813
  792MPD2    H711720   4.540   1.239  11.841
  793MPD2     C11721   3.708   0.802  10.811
  793MPD2    C111722   3.838   0.829  10.852
  793MPD2    C211723   3.862   0.832  10.988
  793MPD2    C311724   3.762   0.796  11.087
  793MPD2    C411725   3.639   0.764  11.037
  793MPD2    C511726   3.612   0.767  10.902
  793MPD2     H11727   3.960   0.856  11.027
  793MPD2    H111728   3.557   0.727  11.097
  793MPD2    H211729   3.679   0.808  10.707
  793MPD2    H311730   3.517   0.729  10.867
  793MPD2     N11731   3.799   0.792  11.222
  793MPD2    H511732   3.891   0.831  11.239
  793MPD2    N111733   3.941   0.863  10.767
  793MPD2    H711734   4.027   0.888  10.813
  794MPD2     C11735   4.422   0.552  17.588
  794MPD2    C111736   4.439   0.461  17.479
  794MPD2    C211737   4.337   0.454  17.386
  794MPD2    C311738   4.231   0.543  17.379
  794MPD2    C411739   4.221   0.626  17.486
  794MPD2    C511740   4.320   0.637  17.581
  794MPD2     H11741   4.360   0.377  17.314
  794MPD2    H111742   4.153   0.708  17.506
  794MPD2    H211743   4.494   0.575  17.666
  794MPD2    H311744   4.301   0.705  17.663
  794MPD2     N11745   4.138   0.561  17.274
  794MPD2    H511746   4.060   0.622  17.296
  794MPD2    N111747   4.548   0.373  17.465
  794MPD2    H711748   4.550   0.310  17.385
  795MPD2     C11749   2.130   2.671  13.758
  795MPD2    C111750   2.083   2.562  13.681
  795MPD2    C211751   2.162   2.452  13.670
  795MPD2    C311752   2.285   2.441  13.730
  795MPD2    C411753   2.332   2.556  13.795
  795MPD2    C511754   2.257   2.668  13.809
  795MPD2     H11755   2.126   2.365  13.617
  795MPD2    H111756   2.425   2.564  13.850
  795MPD2    H211757   2.075   2.763  13.774
  795MPD2    H311758   2.306   2.742  13.872
  795MPD2     N11759   2.368   2.322  13.719
  795MPD2    H511760   2.333   2.227  13.707
  795MPD2    N111761   1.966   2.577  13.611
  795MPD2    H711762   1.933   2.484  13.590
  796MPD2     C11763   1.664   3.862  15.934
  796MPD2    C111764   1.693   3.901  16.064
  796MPD2    C211765   1.692   4.036  16.089
  796MPD2    C311766   1.666   4.133  15.997
  796MPD2    C411767   1.635   4.088  15.869
  796MPD2    C511768   1.639   3.957  15.838
  796MPD2     H11769   1.718   4.084  16.183
  796MPD2    H111770   1.610   4.153  15.786
  796MPD2    H211771   1.662   3.758  15.903
  796MPD2    H311772   1.610   3.932  15.737
  796MPD2     N11773   1.679   4.272  16.019
  796MPD2    H511774   1.739   4.300  16.096
  796MPD2    N111775   1.727   3.806  16.155
  796MPD2    H711776   1.730   3.709  16.126
  797MPD2     C11777   2.317   3.725  17.700
  797MPD2    C111778   2.316   3.860  17.720
  797MPD2    C211779   2.252   3.951  17.635
  797MPD2    C311780   2.163   3.896  17.532
  797MPD2    C411781   2.167   3.761  17.516
  797MPD2    C511782   2.240   3.677  17.596
  797MPD2     H11783   2.260   4.059  17.643
  797MPD2    H111784   2.105   3.712  17.443
  797MPD2    H211785   2.373   3.662  17.768
  797MPD2    H311786   2.227   3.570  17.586
  797MPD2     N11787   2.110   3.986  17.436
  797MPD2    H511788   2.073   3.957  17.346
  797MPD2    N111789   2.408   3.925  17.813
  797MPD2    H711790   2.420   4.025  17.819
  798MPD2     C11791   2.242   4.604  17.748
  798MPD2    C111792   2.302   4.521  17.657
  798MPD2    C211793   2.407   4.435  17.689
  798MPD2    C311794   2.453   4.433  17.815
  798MPD2    C411795   2.402   4.521  17.908
  798MPD2    C511796   2.296   4.608  17.875
  798MPD2     H11797   2.443   4.360  17.620
  798MPD2    H111798   2.435   4.528  18.011
  798MPD2    H211799   2.158   4.670  17.728
  798MPD2    H311800   2.245   4.672  17.946
  798MPD2     N11801   2.557   4.336  17.839
  798MPD2    H511802   2.588   4.282  17.758
  798MPD2    N111803   2.237   4.526  17.533
  798MPD2    H711804   2.141   4.560  17.535
  799MPD2     C11805   1.751   0.417  15.007
  799MPD2    C111806   1.661   0.339  14.934
  799MPD2    C211807   1.600   0.397  14.824
  799MPD2    C311808   1.628   0.528  14.791
  799MPD2    C411809   1.707   0.609  14.869
  799MPD2    C511810   1.769   0.548  14.979
  799MPD2     H11811   1.524   0.337  14.776
  799MPD2    H111812   1.722   0.711  14.837
  799MPD2    H211813   1.800   0.370  15.091
  799MPD2    H311814   1.827   0.608  15.049
  799MPD2     N11815   1.563   0.581  14.678
  799MPD2    H511816   1.559   0.682  14.667
  799MPD2    N111817   1.633   0.205  14.964
  799MPD2    H711818   1.575   0.156  14.897
  800MPD2     C11819   1.709   1.643  13.825
  800MPD2    C111820   1.811   1.606  13.913
  800MPD2    C211821   1.863   1.478  13.895
  800MPD2    C311822   1.826   1.390  13.798
  800MPD2    C411823   1.717   1.430  13.722
  800MPD2    C511824   1.655   1.545  13.748
  800MPD2     H11825   1.963   1.453  13.930
  800MPD2    H111826   1.680   1.371  13.638
  800MPD2    H211827   1.656   1.738  13.822
  800MPD2    H311828   1.567   1.566  13.689
  800MPD2     N11829   1.904   1.272  13.789
  800MPD2    H511830   1.982   1.261  13.852
  800MPD2    N111831   1.882   1.705  13.991
  800MPD2    H711832   1.855   1.803  13.983
  801MPD2     C11833   2.088   2.403  14.035
  801MPD2    C111834   2.010   2.298  14.069
  801MPD2    C211835   1.889   2.317  14.126
  801MPD2    C311836   1.842   2.441  14.155
  801MPD2    C411837   1.927   2.549  14.142
  801MPD2    C511838   2.047   2.532  14.070
  801MPD2     H11839   1.839   2.221  14.127
  801MPD2    H111840   1.902   2.646  14.183
  801MPD2    H211841   2.184   2.393  13.986
  801MPD2    H311842   2.102   2.623  14.052
  801MPD2     N11843   1.725   2.457  14.235
  801MPD2    H511844   1.710   2.546  14.281
  801MPD2    N111845   2.058   2.161  14.048
  801MPD2    H711846   1.990   2.086  14.054
  802MPD2     C11847   1.317   3.211  17.750
  802MPD2    C111848   1.352   3.146  17.866
  802MPD2    C211849   1.388   3.015  17.876
  802MPD2    C311850   1.377   2.938  17.763
  802MPD2    C411851   1.312   2.989  17.652
  802MPD2    C511852   1.286   3.124  17.642
  802MPD2     H11853   1.430   2.969  17.965
  802MPD2    H111854   1.283   2.925  17.569
  802MPD2    H211855   1.285   3.314  17.742
  802MPD2    H311856   1.248   3.171  17.552
  802MPD2     N11857   1.416   2.806  17.772
  802MPD2    H511858   1.475   2.781  17.850
  802MPD2    N111859   1.371   3.213  17.990
  802MPD2    H711860   1.382   3.153  18.071
  803MPD2     C11861   2.537   1.182  12.422
  803MPD2    C111862   2.639   1.197  12.508
  803MPD2    C211863   2.637   1.146  12.635
  803MPD2    C311864   2.528   1.073  12.677
  803MPD2    C411865   2.425   1.055  12.589
  803MPD2    C511866   2.428   1.113  12.468
  803MPD2     H11867   2.720   1.151  12.705
  803MPD2    H111868   2.341   0.992  12.617
  803MPD2    H211869   2.550   1.221  12.322
  803MPD2    H311870   2.343   1.100  12.402
  803MPD2     N11871   2.504   1.044  12.814
  803MPD2    H511872   2.411   1.015  12.843
  803MPD2    N111873   2.761   1.260  12.474
  803MPD2    H711874   2.839   1.250  12.538
  804MPD2     C11875   2.115   2.114  16.994
  804MPD2    C111876   2.087   2.118  17.125
  804MPD2    C211877   2.138   2.226  17.194
  804MPD2    C311878   2.222   2.322  17.140
  804MPD2    C411879   2.256   2.309  17.006
  804MPD2    C511880   2.199   2.205  16.938
  804MPD2     H11881   2.114   2.235  17.299
  804MPD2    H111882   2.310   2.382  16.947
  804MPD2    H211883   2.069   2.043  16.926
  804MPD2    H311884   2.208   2.199  16.830
  804MPD2     N11885   2.297   2.404  17.227
  804MPD2    H511886   2.253   2.440  17.311
  804MPD2    N111887   2.006   2.019  17.195
  804MPD2    H711888   2.000   2.021  17.296
  805MPD2     C11889   1.445   0.366  15.672
  805MPD2    C111890   1.508   0.489  15.672
  805MPD2    C211891   1.614   0.510  15.758
  805MPD2    C311892   1.669   0.404  15.819
  805MPD2    C411893   1.624   0.279  15.807
  805MPD2    C511894   1.510   0.266  15.730
  805MPD2     H11895   1.663   0.607  15.760
  805MPD2    H111896   1.692   0.199  15.833
  805MPD2    H211897   1.357   0.339  15.616
  805MPD2    H311898   1.473   0.164  15.716
  805MPD2     N11899   1.792   0.436  15.887
  805MPD2    H511900   1.829   0.529  15.868
  805MPD2    N111901   1.463   0.594  15.580
  805MPD2    H711902   1.530   0.669  15.566
  806MPD2     C11903   1.603   4.745  19.102
  806MPD2    C111904   1.725   0.026  19.126
  806MPD2    C211905   1.818   0.040  19.026
  806MPD2    C311906   1.784   0.005  18.895
  806MPD2    C411907   1.655   4.733  18.870
  806MPD2    C511908   1.574   4.704  18.975
  806MPD2     H11909   1.915   0.083  19.047
  806MPD2    H111910   1.620   4.708  18.770
  806MPD2    H211911   1.531   4.723  19.179
  806MPD2    H311912   1.476   4.659  18.961
  806MPD2     N11913   1.878   0.031  18.788
  806MPD2    H511914   1.972   0.043  18.823
  806MPD2    N111915   1.746   0.082  19.257
  806MPD2    H711916   1.662   0.096  19.313
  807MPD2     C11917   2.071   4.220  19.480
  807MPD2    C111918   1.967   4.299  19.447
  807MPD2    C211919   1.840   4.254  19.477
  807MPD2    C311920   1.818   4.129  19.538
  807MPD2    C411921   1.924   4.047  19.561
  807MPD2    C511922   2.051   4.099  19.531
  807MPD2     H11923   1.756   4.318  19.449
  807MPD2    H111924   1.927   3.947  19.602
  807MPD2    H211925   2.174   4.248  19.461
  807MPD2    H311926   2.133   4.032  19.555
  807MPD2     N11927   1.691   4.099  19.590
  807MPD2    H511928   1.615   4.150  19.545
  807MPD2    N111929   1.976   4.429  19.389
  807MPD2    H711930   1.890   4.476  19.359
  808MPD2     C11931   1.971   1.559   9.803
  808MPD2    C111932   2.004   1.580   9.936
  808MPD2    C211933   2.088   1.691   9.970
  808MPD2    C311934   2.128   1.773   9.861
  808MPD2    C411935   2.103   1.744   9.738
  808MPD2    C511936   2.012   1.643   9.710
  808MPD2     H11937   2.108   1.711  10.075
  808MPD2    H111938   2.150   1.804   9.660
  808MPD2    H211939   1.897   1.481   9.787
  808MPD2    H311940   1.973   1.637   9.609
  808MPD2     N11941   2.222   1.884   9.882
  808MPD2    H511942   2.243   1.937   9.798
  808MPD2    N111943   1.946   1.522  10.050
  808MPD2    H711944   1.971   1.562  10.140
  809MPD2     C11945   2.807   2.643   9.561
  809MPD2    C111946   2.839   2.511   9.583
  809MPD2    C211947   2.752   2.425   9.635
  809MPD2    C311948   2.626   2.480   9.679
  809MPD2    C411949   2.600   2.610   9.677
  809MPD2    C511950   2.687   2.695   9.612
  809MPD2     H11951   2.785   2.325   9.659
  809MPD2    H111952   2.508   2.648   9.718
  809MPD2    H211953   2.873   2.716   9.516
  809MPD2    H311954   2.658   2.798   9.592
  809MPD2     N11955   2.536   2.398   9.751
  809MPD2    H511956   2.451   2.438   9.789
  809MPD2    N111957   2.968   2.467   9.553
  809MPD2    H711958   2.992   2.371   9.576
  810MPD2     C11959   2.090   1.514  10.853
  810MPD2    C111960   2.006   1.462  10.948
  810MPD2    C211961   1.983   1.529  11.063
  810MPD2    C311962   2.039   1.659  11.082
  810MPD2    C411963   2.129   1.702  10.993
  810MPD2    C511964   2.162   1.627  10.882
  810MPD2     H11965   1.927   1.484  11.144
  810MPD2    H111966   2.183   1.792  11.022
  810MPD2    H211967   2.115   1.453  10.767
  810MPD2    H311968   2.226   1.671  10.807
  810MPD2     N11969   2.014   1.741  11.195
  810MPD2    H511970   2.077   1.816  11.220
  810MPD2    N111971   1.949   1.330  10.922
  810MPD2    H711972   1.979   1.278  10.841
  811MPD2     C11973   1.343   1.024  10.428
  811MPD2    C111974   1.410   1.125  10.501
  811MPD2    C211975   1.387   1.258  10.465
  811MPD2    C311976   1.283   1.298  10.384
  811MPD2    C411977   1.216   1.200  10.327
  811MPD2    C511978   1.245   1.065  10.339
  811MPD2     H11979   1.445   1.339  10.509
  811MPD2    H111980   1.132   1.220  10.262
  811MPD2    H211981   1.363   0.918  10.436
  811MPD2    H311982   1.188   0.988  10.288
  811MPD2     N11983   1.265   1.436  10.351
  811MPD2    H511984   1.313   1.509  10.403
  811MPD2    N111985   1.511   1.082  10.593
  811MPD2    H711986   1.513   0.984  10.621
  812MPD2     C11987   0.243   1.193  12.411
  812MPD2    C111988   0.258   1.258  12.525
  812MPD2    C211989   0.293   1.191  12.637
  812MPD2    C311990   0.305   1.045  12.635
  812MPD2    C411991   0.274   0.978  12.516
  812MPD2    C511992   0.243   1.060  12.409
  812MPD2     H11993   0.306   1.253  12.725
  812MPD2    H111994   0.267   0.870  12.507
  812MPD2    H211995   0.228   1.246  12.317
  812MPD2    H311996   0.209   1.002  12.323
  812MPD2     N11997   0.339   0.978  12.759
  812MPD2    H511998   0.335   1.026  12.848
  812MPD2    N111999   0.240   1.395  12.515
  812MPD2    H712000   0.233   1.431  12.420
  813MPD2     C12001   4.444   3.026  13.187
  813MPD2    C112002   4.539   2.984  13.275
  813MPD2    C212003   4.502   2.942  13.397
  813MPD2    C312004   4.372   2.948  13.441
  813MPD2    C412005   4.271   2.970  13.348
  813MPD2    C512006   4.308   3.008  13.221
  813MPD2     H12007   4.574   2.909  13.472
  813MPD2    H112008   4.165   2.960  13.372
  813MPD2    H212009   4.473   3.058  13.088
  813MPD2    H312010   4.243   3.025  13.135
  813MPD2     N12011   4.356   2.937  13.583
  813MPD2    H512012   4.441   2.917  13.634
  813MPD2    N112013   4.668   3.023  13.240
  813MPD2    H712014   4.686   3.086  13.163
  814MPD2     C12015   0.032   4.105  12.871
  814MPD2    C112016   0.017   4.173  12.754
  814MPD2    C212017   0.054   4.308  12.750
  814MPD2    C312018   0.093   4.376  12.863
  814MPD2    C412019   0.120   4.303  12.979
  814MPD2    C512020   0.091   4.168  12.979
  814MPD2     H12021   0.052   4.364  12.657
  814MPD2    H112022   0.178   4.354  13.055
  814MPD2    H212023   0.034   3.998  12.880
  814MPD2    H312024   0.105   4.109  13.069
  814MPD2     N12025   0.142   4.506  12.871
  814MPD2    H512026   0.167   4.546  12.961
  814MPD2    N112027   4.762   4.112  12.632
  814MPD2    H712028   4.755   4.171  12.549
  815MPD2     C12029   0.698   3.038  12.008
  815MPD2    C112030   0.650   2.912  12.020
  815MPD2    C212031   0.518   2.890  12.061
  815MPD2    C312032   0.441   2.992  12.097
  815MPD2    C412033   0.480   3.121  12.087
  815MPD2    C512034   0.614   3.146  12.053
  815MPD2     H12035   0.478   2.791  12.047
  815MPD2    H112036   0.412   3.199  12.117
  815MPD2    H212037   0.795   3.064  11.967
  815MPD2    H312038   0.660   3.243  12.043
  815MPD2     N12039   0.305   2.953  12.141
  815MPD2    H512040   0.286   2.853  12.145
  815MPD2    N112041   0.740   2.806  11.970
  815MPD2    H712042   0.816   2.831  11.907
  816MPD2     C12043   0.470   1.559  17.469
  816MPD2    C112044   0.553   1.667  17.492
  816MPD2    C212045   0.685   1.659  17.459
  816MPD2    C312046   0.740   1.537  17.409
  816MPD2    C412047   0.653   1.425  17.380
  816MPD2    C512048   0.515   1.442  17.409
  816MPD2     H12049   0.750   1.746  17.463
  816MPD2    H112050   0.679   1.327  17.343
  816MPD2    H212051   0.364   1.543  17.478
  816MPD2    H312052   0.442   1.363  17.400
  816MPD2     N12053   0.872   1.520  17.363
  816MPD2    H512054   0.936   1.598  17.347
  816MPD2    N112055   0.494   1.792  17.528
  816MPD2    H712056   0.394   1.812  17.530
  817MPD2     C12057   0.430   3.608  10.255
  817MPD2    C112058   0.352   3.562  10.151
  817MPD2    C212059   0.274   3.655  10.087
  817MPD2    C312060   0.267   3.794  10.130
  817MPD2    C412061   0.340   3.827  10.243
  817MPD2    C512062   0.419   3.733  10.306
  817MPD2     H12063   0.209   3.620  10.008
  817MPD2    H112064   0.331   3.924  10.291
  817MPD2    H212065   0.506   3.553  10.309
  817MPD2    H312066   0.482   3.747  10.394
  817MPD2     N12067   0.201   3.884  10.041
  817MPD2    H512068   0.129   3.838   9.985
  817MPD2    N112069   0.348   3.429  10.104
  817MPD2    H712070   0.297   3.407  10.019
  818MPD2     C12071   3.923   3.543  10.229
  818MPD2    C112072   3.800   3.527  10.288
  818MPD2    C212073   3.735   3.404  10.280
  818MPD2    C312074   3.787   3.295  10.212
  818MPD2    C412075   3.911   3.317  10.146
  818MPD2    C512076   3.973   3.441  10.159
  818MPD2     H12077   3.636   3.407  10.323
  818MPD2    H112078   3.976   3.250  10.089
  818MPD2    H212079   3.986   3.630  10.238
  818MPD2    H312080   4.060   3.465  10.098
  818MPD2     N12081   3.731   3.171  10.200
  818MPD2    H512082   3.781   3.098  10.150
  818MPD2    N112083   3.728   3.630  10.359
  818MPD2    H712084   3.632   3.607  10.383
  819MPD2     C12085   2.212   0.239  15.812
  819MPD2    C112086   2.214   0.098  15.833
  819MPD2    C212087   2.317   0.040  15.904
  819MPD2    C312088   2.418   0.116  15.957
  819MPD2    C412089   2.409   0.255  15.945
  819MPD2    C512090   2.309   0.316  15.867
  819MPD2     H12091   2.326   4.718  15.929
  819MPD2    H112092   2.489   0.312  15.991
  819MPD2    H212093   2.127   0.296  15.778
  819MPD2    H312094   2.312   0.424  15.868
  819MPD2     N12095   2.515   0.043  16.031
  819MPD2    H512096   2.522   4.727  16.010
  819MPD2    N112097   2.111   0.033  15.761
  819MPD2    H712098   2.041   0.093  15.719
  820MPD2     C12099   1.310   0.126  15.221
  820MPD2    C112100   1.417   0.190  15.262
  820MPD2    C212101   1.517   0.129  15.342
  820MPD2    C312102   1.488   0.003  15.391
  820MPD2    C412103   1.362   4.728  15.358
  820MPD2    C512104   1.280   0.005  15.275
  820MPD2     H12105   1.604   0.193  15.352
  820MPD2    H112106   1.347   4.627  15.394
  820MPD2    H212107   1.244   0.183  15.157
  820MPD2    H312108   1.185   4.739  15.258
  820MPD2     N12109   1.566   4.712  15.492
  820MPD2    H512110   1.525   4.628  15.531
  820MPD2    N112111   1.433   0.323  15.212
  820MPD2    H712112   1.374   0.352  15.135
  821MPD2     C12113   2.474   1.346  13.286
  821MPD2    C112114   2.466   1.346  13.421
  821MPD2    C212115   2.557   1.424  13.488
  821MPD2    C312116   2.651   1.493  13.419
  821MPD2    C412117   2.658   1.491  13.278
  821MPD2    C512118   2.559   1.422  13.213
  821MPD2     H12119   2.543   1.442  13.594
  821MPD2    H112120   2.725   1.556  13.222
  821MPD2    H212121   2.407   1.295  13.218
  821MPD2    H312122   2.552   1.414  13.105
  821MPD2     N12123   2.763   1.550  13.485
  821MPD2    H512124   2.833   1.605  13.436
  821MPD2    N112125   2.372   1.280  13.497
  821MPD2    H712126   2.375   1.299  13.597
  822MPD2     C12127   3.074   1.554  16.024
  822MPD2    C112128   3.017   1.515  16.146
  822MPD2    C212129   2.898   1.580  16.181
  822MPD2    C312130   2.839   1.684  16.107
  822MPD2    C412131   2.900   1.716  15.992
  822MPD2    C512132   3.011   1.651  15.951
  822MPD2     H12133   2.842   1.561  16.272
  822MPD2    H112134   2.863   1.798  15.932
  822MPD2    H212135   3.171   1.521  15.989
  822MPD2    H312136   3.069   1.695  15.871
  822MPD2     N12137   2.726   1.746  16.161
  822MPD2    H512138   2.703   1.705  16.251
  822MPD2    N112139   3.065   1.425  16.242
  822MPD2    H712140   3.009   1.400  16.322
  823MPD2     C12141   2.329   1.864  16.909
  823MPD2    C112142   2.398   1.796  16.804
  823MPD2    C212143   2.461   1.679  16.839
  823MPD2    C312144   2.460   1.634  16.968
  823MPD2    C412145   2.388   1.698  17.066
  823MPD2    C512146   2.322   1.817  17.031
  823MPD2     H12147   2.507   1.611  16.768
  823MPD2    H112148   2.389   1.665  17.169
  823MPD2    H212149   2.273   1.955  16.889
  823MPD2    H312150   2.261   1.868  17.105
  823MPD2     N12151   2.531   1.521  17.008
  823MPD2    H512152   2.491   1.477  17.090
  823MPD2    N112153   2.391   1.854  16.669
  823MPD2    H712154   2.341   1.941  16.650
  824MPD2     C12155   3.663   0.847  16.532
  824MPD2    C112156   3.611   0.883  16.404
  824MPD2    C212157   3.677   0.845  16.290
  824MPD2    C312158   3.789   0.766  16.297
  824MPD2    C412159   3.840   0.735  16.419
  824MPD2    C512160   3.767   0.773  16.533
  824MPD2     H12161   3.633   0.869  16.194
  824MPD2    H112162   3.926   0.673  16.444
  824MPD2    H212163   3.615   0.873  16.626
  824MPD2    H312164   3.816   0.746  16.626
  824MPD2     N12165   3.867   0.734  16.176
  824MPD2    H512166   3.821   0.764  16.091
  824MPD2    N112167   3.500   0.972  16.394
  824MPD2    H712168   3.480   1.014  16.304
  825MPD2     C12169   4.378   1.016  15.777
  825MPD2    C112170   4.252   0.987  15.732
  825MPD2    C212171   4.179   1.073  15.652
  825MPD2    C312172   4.227   1.199  15.632
  825MPD2    C412173   4.358   1.225  15.669
  825MPD2    C512174   4.434   1.141  15.739
  825MPD2     H12175   4.079   1.045  15.624
  825MPD2    H112176   4.400   1.322  15.643
  825MPD2    H212177   4.443   0.954  15.837
  825MPD2    H312178   4.533   1.170  15.772
  825MPD2     N12179   4.157   1.298  15.563
  825MPD2    H512180   4.198   1.387  15.539
  825MPD2    N112181   4.195   0.864  15.782
  825MPD2    H712182   4.237   0.831  15.868
  826MPD2     C12183   3.833   0.507  14.390
  826MPD2    C112184   3.824   0.588  14.271
  826MPD2    C212185   3.747   0.700  14.265
  826MPD2    C312186   3.658   0.727  14.368
  826MPD2    C412187   3.671   0.650  14.482
  826MPD2    C512188   3.760   0.548  14.492
  826MPD2     H12189   3.730   0.737  14.165
  826MPD2    H112190   3.612   0.674  14.570
  826MPD2    H212191   3.888   0.414  14.380
  826MPD2    H312192   3.766   0.498  14.588
  826MPD2     N12193   3.556   0.825  14.374
  826MPD2    H512194   3.509   0.830  14.463
  826MPD2    N112195   3.892   0.548  14.155
  826MPD2    H712196   3.948   0.465  14.172
  827MPD2     C12197   4.224   2.585  10.239
  827MPD2    C112198   4.218   2.456  10.281
  827MPD2    C212199   4.159   2.359  10.202
  827MPD2    C312200   4.100   2.394  10.085
  827MPD2    C412201   4.116   2.518  10.026
  827MPD2    C512202   4.174   2.610  10.109
  827MPD2     H12203   4.160   2.254  10.230
  827MPD2    H112204   4.080   2.550   9.929
  827MPD2    H212205   4.271   2.667  10.292
  827MPD2    H312206   4.190   2.715  10.088
  827MPD2     N12207   4.016   2.294  10.033
  827MPD2    H512208   4.046   2.199  10.048
  827MPD2    N112209   4.294   2.427  10.395
  827MPD2    H712210   4.357   2.499  10.430
  828MPD2     C12211   3.023   2.141  12.599
  828MPD2    C112212   2.904   2.176  12.537
  828MPD2    C212213   2.906   2.243  12.421
  828MPD2    C312214   3.028   2.263  12.352
  828MPD2    C412215   3.147   2.217  12.409
  828MPD2    C512216   3.145   2.171  12.537
  828MPD2     H12217   2.810   2.277  12.384
  828MPD2    H112218   3.237   2.219  12.349
  828MPD2    H212219   3.023   2.083  12.690
  828MPD2    H312220   3.239   2.151  12.586
  828MPD2     N12221   3.034   2.310  12.220
  828MPD2    H512222   3.116   2.296  12.162
  828MPD2    N112223   2.777   2.135  12.595
  828MPD2    H712224   2.693   2.150  12.539
  829MPD2     C12225   2.210   1.930  12.040
  829MPD2    C112226   2.130   1.938  12.154
  829MPD2    C212227   2.204   1.927  12.269
  829MPD2    C312228   2.341   1.910  12.272
  829MPD2    C412229   2.416   1.922  12.154
  829MPD2    C512230   2.346   1.928  12.041
  829MPD2     H12231   2.154   1.943  12.363
  829MPD2    H112232   2.524   1.918  12.150
  829MPD2    H212233   2.167   1.934  11.940
  829MPD2    H312234   2.391   1.931  11.943
  829MPD2     N12235   2.405   1.912  12.390
  829MPD2    H512236   2.503   1.937  12.395
  829MPD2    N112237   1.987   1.945  12.144
  829MPD2    H712238   1.955   2.008  12.071
  830MPD2     C12239   3.168   4.518  16.268
  830MPD2    C112240   3.062   4.540  16.187
  830MPD2    C212241   3.079   4.610  16.070
  830MPD2    C312242   3.206   4.671  16.050
  830MPD2    C412243   3.308   4.658  16.138
  830MPD2    C512244   3.285   4.580  16.245
  830MPD2     H12245   2.991   4.628  16.009
  830MPD2    H112246   3.408   4.698  16.127
  830MPD2    H212247   3.157   4.468  16.363
  830MPD2    H312248   3.358   4.575  16.324
  830MPD2     N12249   3.233   4.759  15.940
  830MPD2    H512250   3.319   0.030  15.940
  830MPD2    N112251   2.937   4.488  16.220
  830MPD2    H712252   2.909   4.460  16.313
  831MPD2     C12253   2.937   1.949  16.525
  831MPD2    C112254   2.999   1.839  16.473
  831MPD2    C212255   2.935   1.716  16.485
  831MPD2    C312256   2.816   1.696  16.549
  831MPD2    C412257   2.759   1.814  16.615
  831MPD2    C512258   2.826   1.933  16.604
  831MPD2     H12259   2.975   1.633  16.428
  831MPD2    H112260   2.669   1.804  16.674
  831MPD2    H212261   2.962   2.053  16.506
  831MPD2    H312262   2.787   2.024  16.647
  831MPD2     N12263   2.731   1.576  16.553
  831MPD2    H512264   2.634   1.593  16.578
  831MPD2    N112265   3.109   1.853  16.388
  831MPD2    H712266   3.123   1.944  16.343
  832MPD2     C12267   1.522   2.754  17.341
  832MPD2    C112268   1.490   2.888  17.341
  832MPD2    C212269   1.373   2.923  17.268
  832MPD2    C312270   1.289   2.829  17.210
  832MPD2    C412271   1.341   2.691  17.207
  832MPD2    C512272   1.459   2.657  17.267
  832MPD2     H12273   1.346   3.028  17.271
  832MPD2    H112274   1.293   2.615  17.146
  832MPD2    H212275   1.613   2.720  17.389
  832MPD2    H312276   1.514   2.566  17.248
  832MPD2     N12277   1.159   2.853  17.155
  832MPD2    H512278   1.112   2.769  17.124
  832MPD2    N112279   1.577   2.987  17.393
  832MPD2    H712280   1.656   2.952  17.445
  833MPD2     C12281   3.481   4.746  13.051
  833MPD2    C112282   3.514   0.048  12.955
  833MPD2    C212283   3.601   0.018  12.850
  833MPD2    C312284   3.669   4.679  12.857
  833MPD2    C412285   3.632   4.596  12.956
  833MPD2    C512286   3.550   4.626  13.061
  833MPD2     H12287   3.608   0.077  12.760
  833MPD2    H112288   3.665   4.494  12.966
  833MPD2    H212289   3.398   4.756  13.121
  833MPD2    H312290   3.536   4.555  13.142
  833MPD2     N12291   3.735   4.629  12.741
  833MPD2    H512292   3.745   4.528  12.734
  833MPD2    N112293   3.428   0.153  12.941
  833MPD2    H712294   3.355   0.156  13.012
  834MPD2     C12295   3.285   4.207  12.007
  834MPD2    C112296   3.362   4.292  11.929
  834MPD2    C212297   3.456   4.364  11.992
  834MPD2    C312298   3.483   4.347  12.125
  834MPD2    C412299   3.402   4.263  12.199
  834MPD2    C512300   3.304   4.195  12.143
  834MPD2     H12301   3.525   4.423  11.933
  834MPD2    H112302   3.406   4.246  12.306
  834MPD2    H212303   3.208   4.145  11.963
  834MPD2    H312304   3.238   4.137  12.206
  834MPD2     N12305   3.590   4.431  12.182
  834MPD2    H512306   3.647   4.480  12.114
  834MPD2    N112307   3.329   4.295  11.790
  834MPD2    H712308   3.258   4.232  11.753
  835MPD2     C12309   3.410   2.250  11.463
  835MPD2    C112310   3.406   2.377  11.512
  835MPD2    C212311   3.472   2.408  11.629
  835MPD2    C312312   3.543   2.316  11.692
  835MPD2    C412313   3.559   2.193  11.640
  835MPD2    C512314   3.500   2.163  11.521
  835MPD2     H12315   3.445   2.507  11.664
  835MPD2    H112316   3.613   2.114  11.691
  835MPD2    H212317   3.365   2.222  11.368
  835MPD2    H312318   3.511   2.065  11.475
  835MPD2     N12319   3.593   2.342  11.821
  835MPD2    H512320   3.637   2.263  11.868
  835MPD2    N112321   3.314   2.476  11.467
  835MPD2    H712322   3.316   2.566  11.514
  836MPD2     C12323   3.089   2.720  12.220
  836MPD2    C112324   3.166   2.635  12.297
  836MPD2    C212325   3.121   2.603  12.420
  836MPD2    C312326   2.990   2.644  12.458
  836MPD2    C412327   2.918   2.732  12.382
  836MPD2    C512328   2.966   2.769  12.259
  836MPD2     H12329   3.168   2.528  12.483
  836MPD2    H112330   2.822   2.774  12.410
  836MPD2    H212331   3.115   2.746  12.118
  836MPD2    H312332   2.903   2.836  12.202
  836MPD2     N12333   2.922   2.601  12.572
  836MPD2    H512334   2.823   2.621  12.577
  836MPD2    N112335   3.293   2.585  12.252
  836MPD2    H712336   3.311   2.609  12.155
  837MPD2     C12337   1.502   2.160  10.108
  837MPD2    C112338   1.389   2.112  10.050
  837MPD2    C212339   1.323   2.192   9.959
  837MPD2    C312340   1.370   2.321   9.923
  837MPD2    C412341   1.499   2.354   9.963
  837MPD2    C512342   1.560   2.275  10.059
  837MPD2     H12343   1.228   2.149   9.929
  837MPD2    H112344   1.537   2.454   9.947
  837MPD2    H212345   1.562   2.100  10.176
  837MPD2    H312346   1.659   2.307  10.086
  837MPD2     N12347   1.284   2.401   9.850
  837MPD2    H512348   1.194   2.366   9.818
  837MPD2    N112349   1.319   1.994  10.090
  837MPD2    H712350   1.242   1.970  10.030
  838MPD2     C12351   0.129   0.270  12.166
  838MPD2    C112352   0.143   0.244  12.301
  838MPD2    C212353   0.037   0.203  12.369
  838MPD2    C312354   4.707   0.161  12.296
  838MPD2    C412355   4.695   0.189  12.161
  838MPD2    C512356   0.013   0.248  12.097
  838MPD2     H12357   0.043   0.186  12.476
  838MPD2    H112358   4.598   0.175  12.114
  838MPD2    H212359   0.211   0.307  12.105
  838MPD2    H312360   4.780   0.281  11.995
  838MPD2     N12361   4.605   0.107  12.372
  838MPD2    H512362   4.619   0.101  12.473
  838MPD2    N112363   0.264   0.271  12.377
  838MPD2    H712364   0.256   0.284  12.477
  839MPD2     C12365   4.617   4.470  12.086
  839MPD2    C112366   4.705   4.453  11.980
  839MPD2    C212367   0.042   4.530  11.994
  839MPD2    C312368   0.079   4.599  12.113
  839MPD2    C412369   4.771   4.609  12.213
  839MPD2    C512370   4.651   4.546  12.201
  839MPD2     H12371   0.109   4.524  11.908
  839MPD2    H112372   0.028   4.652  12.304
  839MPD2    H212373   4.517   4.427  12.091
  839MPD2    H312374   4.583   4.552  12.286
  839MPD2     N12375   0.192   4.681  12.124
  839MPD2    H512376   0.212   4.698  12.222
  839MPD2    N112377   4.684   4.377  11.872
  839MPD2    H712378   4.766   4.380  11.812
  840MPD2     C12379   0.074   2.670  10.492
  840MPD2    C112380   0.053   2.596  10.609
  840MPD2    C212381   0.148   2.591  10.713
  840MPD2    C312382   0.264   2.665  10.699
  840MPD2    C412383   0.286   2.752  10.590
  840MPD2    C512384   0.191   2.746  10.489
  840MPD2     H12385   0.130   2.548  10.811
  840MPD2    H112386   0.378   2.807  10.579
  840MPD2    H212387   0.004   2.684  10.410
  840MPD2    H312388   0.209   2.820  10.411
  840MPD2     N12389   0.368   2.669  10.797
  840MPD2    H512390   0.425   2.753  10.785
  840MPD2    N112391   4.712   2.526  10.606
  840MPD2    H712392   4.654   2.551  10.527
  841MPD2     C12393   4.289   1.830  15.490
  841MPD2    C112394   4.289   1.821  15.351
  841MPD2    C212395   4.320   1.933  15.276
  841MPD2    C312396   4.358   2.051  15.334
  841MPD2    C412397   4.353   2.061  15.474
  841MPD2    C512398   4.308   1.953  15.554
  841MPD2     H12399   4.322   1.932  15.168
  841MPD2    H112400   4.382   2.153  15.524
  841MPD2    H212401   4.267   1.742  15.549
  841MPD2    H312402   4.304   1.955  15.662
  841MPD2     N12403   4.400   2.153  15.249
  841MPD2    H512404   4.390   2.135  15.149
  841MPD2    N112405   4.284   1.698  15.272
  841MPD2    H712406   4.253   1.699  15.176
  842MPD2     C12407   0.638   3.276  17.169
  842MPD2    C112408   0.525   3.199  17.154
  842MPD2    C212409   0.498   3.114  17.256
  842MPD2    C312410   0.582   3.091  17.361
  842MPD2    C412411   0.700   3.168  17.367
  842MPD2    C512412   0.725   3.261  17.273
  842MPD2     H12413   0.398   3.072  17.264
  842MPD2    H112414   0.775   3.164  17.446
  842MPD2    H212415   0.653   3.359  17.100
  842MPD2    H312416   0.806   3.331  17.289
  842MPD2     N12417   0.548   3.030  17.483
  842MPD2    H512418   0.571   3.072  17.573
  842MPD2    N112419   0.437   3.229  17.043
  842MPD2    H712420   0.450   3.317  16.994
  843MPD2     C12421   2.205   4.143  18.096
  843MPD2    C112422   2.278   4.052  18.160
  843MPD2    C212423   2.378   4.088  18.249
  843MPD2    C312424   2.407   4.227  18.254
  843MPD2    C412425   2.334   4.319  18.185
  843MPD2    C512426   2.237   4.274  18.101
  843MPD2     H12427   2.442   4.014  18.295
  843MPD2    H112428   2.363   4.421  18.205
  843MPD2    H212429   2.120   4.108  18.037
  843MPD2    H312430   2.172   4.345  18.053
  843MPD2     N12431   2.522   4.277  18.318
  843MPD2    H512432   2.563   4.366  18.292
  843MPD2    N112433   2.228   3.915  18.153
  843MPD2    H712434   2.141   3.903  18.102
  844MPD2     C12435   0.974   2.638  16.739
  844MPD2    C112436   1.095   2.574  16.732
  844MPD2    C212437   1.220   2.638  16.766
  844MPD2    C312438   1.213   2.771  16.803
  844MPD2    C412439   1.088   2.840  16.808
  844MPD2    C512440   0.975   2.771  16.781
  844MPD2     H12441   1.316   2.592  16.747
  844MPD2    H112442   1.088   2.943  16.842
  844MPD2    H212443   0.880   2.599  16.702
  844MPD2    H312444   0.882   2.826  16.780
  844MPD2     N12445   1.335   2.836  16.835
  844MPD2    H512446   1.414   2.774  16.818
  844MPD2    N112447   1.104   2.444  16.675
  844MPD2    H712448   1.198   2.409  16.660
  845MPD2     C12449   1.550   3.812  17.050
  845MPD2    C112450   1.494   3.726  17.138
  845MPD2    C212451   1.483   3.594  17.111
  845MPD2    C312452   1.554   3.538  17.009
  845MPD2    C412453   1.618   3.628  16.917
  845MPD2    C512454   1.606   3.763  16.932
  845MPD2     H12455   1.444   3.529  17.189
  845MPD2    H112456   1.662   3.587  16.828
  845MPD2    H212457   1.537   3.919  17.059
  845MPD2    H312458   1.656   3.828  16.862
  845MPD2     N12459   1.551   3.398  16.987
  845MPD2    H512460   1.482   3.338  17.031
  845MPD2    N112461   1.450   3.788  17.262
  845MPD2    H712462   1.436   3.889  17.265
  846MPD2     C12463   2.770   3.759  14.006
  846MPD2    C112464   2.704   3.881  14.022
  846MPD2    C212465   2.674   3.916  14.159
  846MPD2    C312466   2.724   3.833  14.263
  846MPD2    C412467   2.790   3.718  14.237
  846MPD2    C512468   2.806   3.682  14.107
  846MPD2     H12469   2.626   4.013  14.171
  846MPD2    H112470   2.839   3.657  14.312
  846MPD2    H212471   2.801   3.734  13.905
  846MPD2    H312472   2.860   3.591  14.083
  846MPD2     N12473   2.680   3.876  14.394
  846MPD2    H512474   2.603   3.940  14.408
  846MPD2    N112475   2.677   3.974  13.915
  846MPD2    H712476   2.657   4.067  13.950
  847MPD2     C12477   2.700   0.221  14.547
  847MPD2    C112478   2.729   0.179  14.672
  847MPD2    C212479   2.823   0.076  14.685
  847MPD2    C312480   2.902   0.039  14.578
  847MPD2    C412481   2.871   0.083  14.452
  847MPD2    C512482   2.772   0.177  14.439
  847MPD2     H12483   2.834   0.043  14.788
  847MPD2    H112484   2.925   0.055  14.362
  847MPD2    H212485   2.624   0.294  14.522
  847MPD2    H312486   2.741   0.218  14.344
  847MPD2     N12487   3.005   4.733  14.593
  847MPD2    H512488   3.079   4.730  14.523
  847MPD2    N112489   2.667   0.224  14.788
  847MPD2    H712490   2.689   0.173  14.874
  848MPD2     C12491   0.717   3.239  16.597
  848MPD2    C112492   0.805   3.278  16.697
  848MPD2    C212493   0.872   3.404  16.687
  848MPD2    C312494   0.852   3.490  16.578
  848MPD2    C412495   0.776   3.442  16.476
  848MPD2    C512496   0.712   3.321  16.486
  848MPD2     H12497   0.940   3.427  16.768
  848MPD2    H112498   0.766   3.492  16.381
  848MPD2    H212499   0.662   3.145  16.602
  848MPD2    H312500   0.671   3.285  16.392
  848MPD2     N12501   0.911   3.617  16.568
  848MPD2    H512502   0.898   3.674  16.485
  848MPD2    N112503   0.826   3.210  16.819
  848MPD2    H712504   0.909   3.228  16.875
  849MPD2     C12505   4.281   2.827  14.716
  849MPD2    C112506   4.398   2.897  14.721
  849MPD2    C212507   4.507   2.853  14.797
  849MPD2    C312508   4.515   2.720  14.839
  849MPD2    C412509   4.398   2.645  14.823
  849MPD2    C512510   4.285   2.698  14.768
  849MPD2     H12511   4.596   2.914  14.801
  849MPD2    H112512   4.398   2.544  14.863
  849MPD2    H212513   4.190   2.848  14.661
  849MPD2    H312514   4.194   2.640  14.759
  849MPD2     N12515   4.642   2.666  14.875
  849MPD2    H512516   4.653   2.565  14.873
  849MPD2    N112517   4.412   3.018  14.646
  849MPD2    H712518   4.342   3.043  14.577
  850MPD2     C12519   2.988   0.882  14.887
  850MPD2    C112520   2.962   0.969  14.985
  850MPD2    C212521   3.067   1.036  15.048
  850MPD2    C312522   3.197   0.993  15.022
  850MPD2    C412523   3.224   0.894  14.931
  850MPD2    C512524   3.113   0.837  14.866
  850MPD2     H12525   3.057   1.125  15.109
  850MPD2    H112526   3.323   0.872  14.893
  850MPD2    H212527   2.896   0.843  14.845
  850MPD2    H312528   3.123   0.751  14.800
  850MPD2     N12529   3.309   1.039  15.091
  850MPD2    H512530   3.394   1.038  15.036
  850MPD2    N112531   2.826   1.001  15.014
  850MPD2    H712532   2.757   0.972  14.946
  851MPD2     C12533   3.339   0.913  15.724
  851MPD2    C112534   3.265   0.855  15.622
  851MPD2    C212535   3.267   0.715  15.618
  851MPD2    C312536   3.341   0.632  15.703
  851MPD2    C412537   3.427   0.693  15.792
  851MPD2    C512538   3.421   0.830  15.802
  851MPD2     H12539   3.195   0.670  15.551
  851MPD2    H112540   3.490   0.652  15.871
  851MPD2    H212541   3.335   1.018  15.747
  851MPD2    H312542   3.478   0.890  15.872
  851MPD2     N12543   3.330   0.497  15.684
  851MPD2    H512544   3.262   0.472  15.613
  851MPD2    N112545   3.173   0.939  15.553
  851MPD2    H712546   3.166   1.032  15.594
  852MPD2     C12547   2.511   3.350  10.544
  852MPD2    C112548   2.487   3.442  10.645
  852MPD2    C212549   2.486   3.571  10.608
  852MPD2    C312550   2.505   3.605  10.469
  852MPD2    C412551   2.507   3.505  10.374
  852MPD2    C512552   2.523   3.378  10.413
  852MPD2     H12553   2.479   3.654  10.678
  852MPD2    H112554   2.529   3.520  10.268
  852MPD2    H212555   2.514   3.245  10.568
  852MPD2    H312556   2.533   3.292  10.348
  852MPD2     N12557   2.530   3.747  10.442
  852MPD2    H512558   2.504   3.810  10.517
  852MPD2    N112559   2.458   3.416  10.777
  852MPD2    H712560   2.473   3.495  10.838
  853MPD2     C12561   4.524   3.180  12.784
  853MPD2    C112562   4.456   3.300  12.750
  853MPD2    C212563   4.415   3.317  12.622
  853MPD2    C312564   4.462   3.232  12.520
  853MPD2    C412565   4.532   3.125  12.552
  853MPD2    C512566   4.559   3.094  12.684
  853MPD2     H12567   4.354   3.403  12.595
  853MPD2    H112568   4.576   3.053  12.484
  853MPD2    H212569   4.556   3.166  12.887
  853MPD2    H312570   4.617   3.005  12.705
  853MPD2     N12571   4.435   3.254  12.375
  853MPD2    H512572   4.457   3.177  12.312
  853MPD2    N112573   4.409   3.379  12.860
  853MPD2    H712574   4.470   3.374  12.940
  854MPD2     C12575   1.069   3.317  13.146
  854MPD2    C112576   1.139   3.424  13.105
  854MPD2    C212577   1.269   3.436  13.155
  854MPD2    C312578   1.319   3.336  13.240
  854MPD2    C412579   1.246   3.228  13.279
  854MPD2    C512580   1.117   3.217  13.221
  854MPD2     H12581   1.338   3.516  13.131
  854MPD2    H112582   1.291   3.144  13.329
  854MPD2    H212583   0.966   3.318  13.113
  854MPD2    H312584   1.059   3.128  13.241
  854MPD2     N12585   1.451   3.335  13.291
  854MPD2    H512586   1.492   3.252  13.333
  854MPD2    N112587   1.074   3.520  13.018
  854MPD2    H712588   0.975   3.514  12.998
  855MPD2     C12589   1.230   3.280  13.886
  855MPD2    C112590   1.357   3.233  13.910
  855MPD2    C212591   1.463   3.283  13.838
  855MPD2    C312592   1.449   3.387  13.756
  855MPD2    C412593   1.324   3.434  13.723
  855MPD2    C512594   1.217   3.389  13.800
  855MPD2     H12595   1.555   3.227  13.852
  855MPD2    H112596   1.299   3.516  13.657
  855MPD2    H212597   1.146   3.264  13.953
  855MPD2    H312598   1.119   3.436  13.790
  855MPD2     N12599   1.559   3.441  13.685
  855MPD2    H512600   1.553   3.521  13.622
  855MPD2    N112601   1.385   3.130  14.005
  855MPD2    H712602   1.482   3.100  14.008
  856MPD2     C12603   3.857   3.931  14.609
  856MPD2    C112604   3.907   4.023  14.519
  856MPD2    C212605   3.821   4.116  14.465
  856MPD2    C312606   3.678   4.107  14.495
  856MPD2    C412607   3.637   4.015  14.589
  856MPD2    C512608   3.723   3.929  14.636
  856MPD2     H12609   3.864   4.191  14.399
  856MPD2    H112610   3.531   4.008  14.614
  856MPD2    H212611   3.921   3.851  14.646
  856MPD2    H312612   3.689   3.857  14.709
  856MPD2     N12613   3.585   4.204  14.444
  856MPD2    H512614   3.492   4.189  14.482
  856MPD2    N112615   4.043   4.049  14.497
  856MPD2    H712616   4.061   4.120  14.427
  857MPD2     C12617   0.248   1.822  13.447
  857MPD2    C112618   0.351   1.827  13.360
  857MPD2    C212619   0.392   1.955  13.314
  857MPD2    C312620   0.316   2.067  13.346
  857MPD2    C412621   0.209   2.059  13.426
  857MPD2    C512622   0.178   1.936  13.486
  857MPD2     H12623   0.471   1.967  13.240
  857MPD2    H112624   0.159   2.148  13.461
  857MPD2    H212625   0.210   1.726  13.479
  857MPD2    H312626   0.092   1.922  13.550
  857MPD2     N12627   0.362   2.187  13.297
  857MPD2    H512628   0.430   2.183  13.222
  857MPD2    N112629   0.426   1.712  13.331
  857MPD2    H712630   0.390   1.633  13.384
  858MPD2     C12631   1.243   0.578  17.099
  858MPD2    C112632   1.377   0.596  17.075
  858MPD2    C212633   1.448   0.682  17.152
  858MPD2    C312634   1.378   0.750  17.256
  858MPD2    C412635   1.244   0.742  17.270
  858MPD2    C512636   1.177   0.653  17.196
  858MPD2     H12637   1.554   0.691  17.132
  858MPD2    H112638   1.184   0.795  17.343
  858MPD2    H212639   1.190   0.503  17.042
  858MPD2    H312640   1.070   0.644  17.213
  858MPD2     N12641   1.444   0.843  17.335
  858MPD2    H512642   1.375   0.895  17.389
  858MPD2    N112643   1.422   0.535  16.955
  858MPD2    H712644   1.347   0.485  16.908
  859MPD2     C12645   0.190   2.463  15.922
  859MPD2    C112646   0.114   2.480  15.808
  859MPD2    C212647   0.070   2.365  15.739
  859MPD2    C312648   0.098   2.236  15.781
  859MPD2    C412649   0.161   2.223  15.900
  859MPD2    C512650   0.212   2.332  15.967
  859MPD2     H12651   0.006   2.380  15.653
  859MPD2    H112652   0.184   2.124  15.937
  859MPD2    H212653   0.221   2.550  15.979
  859MPD2    H312654   0.264   2.318  16.061
  859MPD2     N12655   0.051   2.119  15.714
  859MPD2    H512656   0.062   2.033  15.767
  859MPD2    N112657   0.088   2.607  15.764
  859MPD2    H712658   0.154   2.682  15.785
  860MPD2     C12659   2.424   3.015  11.954
  860MPD2    C112660   2.457   3.046  12.088
  860MPD2    C212661   2.369   3.026  12.194
  860MPD2    C312662   2.245   2.962  12.167
  860MPD2    C412663   2.226   2.907  12.040
  860MPD2    C512664   2.309   2.946  11.940
  860MPD2     H12665   2.389   3.065  12.293
  860MPD2    H112666   2.151   2.838  12.002
  860MPD2    H212667   2.481   3.035  11.864
  860MPD2    H312668   2.287   2.914  11.838
  860MPD2     N12669   2.147   2.949  12.268
  860MPD2    H512670   2.179   2.978  12.360
  860MPD2    N112671   2.585   3.101  12.127
  860MPD2    H712672   2.606   3.116  12.225
  861MPD2     C12673   0.977   1.370  11.558
  861MPD2    C112674   0.883   1.440  11.636
  861MPD2    C212675   0.779   1.503  11.563
  861MPD2    C312676   0.761   1.481  11.428
  861MPD2    C412677   0.858   1.417  11.357
  861MPD2    C512678   0.965   1.364  11.425
  861MPD2     H12679   0.713   1.566  11.621
  861MPD2    H112680   0.843   1.408  11.250
  861MPD2    H212681   1.070   1.329  11.596
  861MPD2    H312682   1.046   1.314  11.372
  861MPD2     N12683   0.656   1.538  11.353
  861MPD2    H512684   0.668   1.542  11.252
  861MPD2    N112685   0.899   1.456  11.775
  861MPD2    H712686   0.855   1.535  11.821
  862MPD2     C12687   0.639   1.505  10.750
  862MPD2    C112688   0.544   1.452  10.834
  862MPD2    C212689   0.517   1.314  10.824
  862MPD2    C312690   0.588   1.232  10.734
  862MPD2    C412691   0.685   1.287  10.655
  862MPD2    C512692   0.703   1.422  10.661
  862MPD2     H12693   0.447   1.269  10.893
  862MPD2    H112694   0.747   1.224  10.593
  862MPD2    H212695   0.682   1.604  10.757
  862MPD2    H312696   0.781   1.462  10.598
  862MPD2     N12697   0.565   1.094  10.702
  862MPD2    H512698   0.612   1.062  10.618
  862MPD2    N112699   0.484   1.525  10.938
  862MPD2    H712700   0.414   1.468  10.984
  863MPD2     C12701   4.483   4.208  17.197
  863MPD2    C112702   4.507   4.341  17.224
  863MPD2    C212703   4.606   4.363  17.320
  863MPD2    C312704   4.677   4.256  17.369
  863MPD2    C412705   4.658   4.124  17.333
  863MPD2    C512706   4.546   4.104  17.255
  863MPD2     H12707   4.622   4.467  17.347
  863MPD2    H112708   4.724   4.042  17.354
  863MPD2    H212709   4.410   4.180  17.122
  863MPD2    H312710   4.529   4.007  17.210
  863MPD2     N12711   0.004   4.270  17.455
  863MPD2    H512712   0.037   4.185  17.500
  863MPD2    N112713   4.441   4.431  17.145
  863MPD2    H712714   4.363   4.394  17.093
  864MPD2     C12715   4.740   1.367  17.221
  864MPD2    C112716   0.033   1.260  17.175
  864MPD2    C212717   0.160   1.288  17.131
  864MPD2    C312718   0.212   1.410  17.127
  864MPD2    C412719   0.137   1.519  17.174
  864MPD2    C512720   0.020   1.484  17.230
  864MPD2     H12721   0.218   1.205  17.092
  864MPD2    H112722   0.177   1.619  17.183
  864MPD2    H212723   4.645   1.349  17.269
  864MPD2    H312724   4.744   1.564  17.272
  864MPD2     N12725   0.345   1.434  17.086
  864MPD2    H512726   0.376   1.523  17.048
  864MPD2    N112727   4.754   1.140  17.193
  864MPD2    H712728   4.666   1.131  17.245
  865MPD2     C12729   0.107   1.150  16.370
  865MPD2    C112730   0.233   1.093  16.373
  865MPD2    C212731   0.318   1.158  16.462
  865MPD2    C312732   0.285   1.282  16.523
  865MPD2    C412733   0.157   1.326  16.524
  865MPD2    C512734   0.071   1.264  16.432
  865MPD2     H12735   0.414   1.115  16.491
  865MPD2    H112736   0.127   1.424  16.559
  865MPD2    H212737   0.038   1.097  16.304
  865MPD2    H312738   4.750   1.298  16.436
  865MPD2     N12739   0.367   1.335  16.627
  865MPD2    H512740   0.318   1.404  16.683
  865MPD2    N112741   0.270   0.976  16.303
  865MPD2    H712742   0.198   0.941  16.240
  866MPD2     C12743   1.515   1.758  12.106
  866MPD2    C112744   1.495   1.694  11.983
  866MPD2    C212745   1.384   1.719  11.904
  866MPD2    C312746   1.289   1.802  11.953
  866MPD2    C412747   1.304   1.848  12.077
  866MPD2    C512748   1.417   1.832  12.153
  866MPD2     H12749   1.376   1.676  11.804
  866MPD2    H112750   1.226   1.902  12.128
  866MPD2    H212751   1.600   1.737  12.170
  866MPD2    H312752   1.424   1.876  12.252
  866MPD2     N12753   1.171   1.840  11.881
  866MPD2    H512754   1.126   1.925  11.913
  866MPD2    N112755   1.613   1.636  11.926
  866MPD2    H712756   1.691   1.629  11.991
  867MPD2     C12757   3.600   1.076  16.894
  867MPD2    C112758   3.702   1.045  16.967
  867MPD2    C212759   3.766   1.143  17.042
  867MPD2    C312760   3.721   1.274  17.041
  867MPD2    C412761   3.611   1.308  16.956
  867MPD2    C512762   3.551   1.204  16.886
  867MPD2     H12763   3.844   1.120  17.114
  867MPD2    H112764   3.569   1.408  16.968
  867MPD2    H212765   3.549   1.000  16.837
  867MPD2    H312766   3.473   1.228  16.815
  867MPD2     N12767   3.781   1.388  17.108
  867MPD2    H512768   3.737   1.478  17.095
  867MPD2    N112769   3.740   0.906  16.970
  867MPD2    H712770   3.683   0.851  16.907
  868MPD2     C12771   0.787   4.158  13.410
  868MPD2    C112772   0.879   4.264  13.426
  868MPD2    C212773   0.833   4.373  13.497
  868MPD2    C312774   0.701   4.393  13.533
  868MPD2    C412775   0.608   4.286  13.509
  868MPD2    C512776   0.656   4.175  13.441
  868MPD2     H12777   0.907   4.448  13.524
  868MPD2    H112778   0.502   4.292  13.531
  868MPD2    H212779   0.826   4.065  13.370
  868MPD2    H312780   0.596   4.086  13.427
  868MPD2     N12781   0.677   4.509  13.597
  868MPD2    H512782   0.758   4.560  13.629
  868MPD2    N112783   1.007   4.254  13.372
  868MPD2    H712784   1.025   4.169  13.319
  869MPD2     C12785   1.876   2.660  19.331
  869MPD2    C112786   1.915   2.687  19.203
  869MPD2    C212787   2.040   2.748  19.187
  869MPD2    C312788   2.121   2.776  19.294
  869MPD2    C412789   2.078   2.738  19.423
  869MPD2    C512790   1.960   2.687  19.438
  869MPD2     H12791   2.064   2.789  19.089
  869MPD2    H112792   2.153   2.742  19.502
  869MPD2    H212793   1.791   2.593  19.337
  869MPD2    H312794   1.936   2.647  19.535
  869MPD2     N12795   2.248   2.840  19.278
  869MPD2    H512796   2.299   2.833  19.366
  869MPD2    N112797   1.813   2.688  19.104
  869MPD2    H712798   1.715   2.667  19.123
  870MPD2     C12799   2.042   1.919  19.323
  870MPD2    C112800   1.908   1.914  19.339
  870MPD2    C212801   1.825   1.938  19.228
  870MPD2    C312802   1.877   1.955  19.101
  870MPD2    C412803   2.011   1.985  19.088
  870MPD2    C512804   2.092   1.953  19.195
  870MPD2     H12805   1.717   1.931  19.235
  870MPD2    H112806   2.073   2.022  19.007
  870MPD2    H212807   2.106   1.898  19.408
  870MPD2    H312808   2.198   1.972  19.184
  870MPD2     N12809   1.785   1.986  18.995
  870MPD2    H512810   1.691   1.991  19.034
  870MPD2    N112811   1.851   1.884  19.470
  870MPD2    H712812   1.915   1.886  19.548
  871MPD2     C12813   2.919   1.048  16.536
  871MPD2    C112814   2.925   0.991  16.664
  871MPD2    C212815   2.995   0.878  16.684
  871MPD2    C312816   3.069   0.821  16.584
  871MPD2    C412817   3.070   0.876  16.459
  871MPD2    C512818   2.994   0.985  16.439
  871MPD2     H12819   3.007   0.831  16.781
  871MPD2    H112820   3.129   0.849  16.372
  871MPD2    H212821   2.855   1.132  16.511
  871MPD2    H312822   2.991   1.026  16.338
  871MPD2     N12823   3.156   0.722  16.623
  871MPD2    H512824   3.147   0.692  16.719
  871MPD2    N112825   2.841   1.058  16.759
  871MPD2    H712826   2.806   1.148  16.729
  872MPD2     C12827   3.655   3.296  14.519
  872MPD2    C112828   3.609   3.415  14.468
  872MPD2    C212829   3.475   3.452  14.464
  872MPD2    C312830   3.395   3.369  14.534
  872MPD2    C412831   3.438   3.250  14.595
  872MPD2    C512832   3.567   3.214  14.583
  872MPD2     H12833   3.444   3.552  14.435
  872MPD2    H112834   3.376   3.184  14.656
  872MPD2    H212835   3.760   3.268  14.514
  872MPD2    H312836   3.592   3.116  14.622
  872MPD2     N12837   3.266   3.411  14.561
  872MPD2    H512838   3.206   3.343  14.608
  872MPD2    N112839   3.695   3.522  14.427
  872MPD2    H712840   3.664   3.618  14.417
  873MPD2     C12841   0.979   3.304  18.729
  873MPD2    C112842   0.854   3.290  18.783
  873MPD2    C212843   0.791   3.164  18.788
  873MPD2    C312844   0.859   3.046  18.752
  873MPD2    C412845   0.989   3.067  18.710
  873MPD2    C512846   1.043   3.190  18.681
  873MPD2     H12847   0.696   3.155  18.840
  873MPD2    H112848   1.037   2.984  18.660
  873MPD2    H212849   1.027   3.400  18.711
  873MPD2    H312850   1.143   3.193  18.641
  873MPD2     N12851   0.805   2.923  18.758
  873MPD2    H512852   0.869   2.844  18.748
  873MPD2    N112853   0.794   3.407  18.840
  873MPD2    H712854   0.846   3.493  18.846
  874MPD2     C12855   0.351   3.639  16.325
  874MPD2    C112856   0.402   3.612  16.447
  874MPD2    C212857   0.510   3.692  16.493
  874MPD2    C312858   0.565   3.803  16.431
  874MPD2    C412859   0.512   3.826  16.300
  874MPD2    C512860   0.409   3.745  16.257
  874MPD2     H12861   0.563   3.678  16.586
  874MPD2    H112862   0.551   3.907  16.240
  874MPD2    H212863   0.278   3.577  16.275
  874MPD2    H312864   0.356   3.781  16.169
  874MPD2     N12865   0.669   3.874  16.491
  874MPD2    H512866   0.684   3.841  16.586
  874MPD2    N112867   0.352   3.503  16.521
  874MPD2    H712868   0.305   3.434  16.463
  875MPD2     C12869   1.623   1.857  14.713
  875MPD2    C112870   1.499   1.870  14.775
  875MPD2    C212871   1.485   1.894  14.910
  875MPD2    C312872   1.604   1.889  14.996
  875MPD2    C412873   1.727   1.869  14.927
  875MPD2    C512874   1.730   1.845  14.790
  875MPD2     H12875   1.385   1.910  14.949
  875MPD2    H112876   1.824   1.883  14.973
  875MPD2    H212877   1.629   1.831  14.608
  875MPD2    H312878   1.826   1.844  14.739
  875MPD2     N12879   1.595   1.901  15.133
  875MPD2    H512880   1.676   1.929  15.188
  875MPD2    N112881   1.380   1.863  14.702
  875MPD2    H712882   1.302   1.863  14.766
  876MPD2     C12883   0.089   3.002  16.408
  876MPD2    C112884   0.221   2.971  16.392
  876MPD2    C212885   0.271   2.854  16.458
  876MPD2    C312886   0.192   2.763  16.523
  876MPD2    C412887   0.056   2.802  16.537
  876MPD2    C512888   0.011   2.922  16.487
  876MPD2     H12889   0.374   2.821  16.448
  876MPD2    H112890   4.758   2.743  16.581
  876MPD2    H212891   0.053   3.095  16.365
  876MPD2    H312892   4.690   2.952  16.500
  876MPD2     N12893   0.231   2.629  16.553
  876MPD2    H512894   0.330   2.609  16.557
  876MPD2    N112895   0.298   3.066  16.314
  876MPD2    H712896   0.244   3.146  16.286
  877MPD2     C12897   0.088   3.526  15.817
  877MPD2    C112898   0.218   3.487  15.785
  877MPD2    C212899   0.252   3.511  15.650
  877MPD2    C312900   0.175   3.574  15.558
  877MPD2    C412901   0.048   3.600  15.590
  877MPD2    C512902   0.008   3.593  15.722
  877MPD2     H12903   0.339   3.460  15.610
  877MPD2    H112904   4.764   3.654  15.524
  877MPD2    H212905   0.062   3.532  15.922
  877MPD2    H312906   4.692   3.625  15.752
  877MPD2     N12907   0.220   3.590  15.423
  877MPD2    H512908   0.151   3.616  15.354
  877MPD2    N112909   0.308   3.434  15.873
  877MPD2    H712910   0.403   3.417  15.840
  878MPD2     C12911   4.665   2.867  13.721
  878MPD2    C112912   4.754   2.968  13.752
  878MPD2    C212913   4.754   3.036  13.876
  878MPD2    C312914   4.652   3.000  13.964
  878MPD2    C412915   4.564   2.896  13.933
  878MPD2    C512916   4.574   2.827  13.818
  878MPD2     H12917   0.045   3.102  13.919
  878MPD2    H112918   4.492   2.861  14.007
  878MPD2    H212919   4.673   2.810  13.630
  878MPD2    H312920   4.505   2.748  13.794
  878MPD2     N12921   4.662   3.056  14.095
  878MPD2    H512922   4.751   3.098  14.121
  878MPD2    N112923   0.066   2.999  13.650
  878MPD2    H712924   0.074   2.936  13.571
  879MPD2     C12925   0.539   4.496  17.463
  879MPD2    C112926   0.564   4.371  17.516
  879MPD2    C212927   0.513   4.264  17.445
  879MPD2    C312928   0.446   4.271  17.319
  879MPD2    C412929   0.410   4.403  17.284
  879MPD2    C512930   0.456   4.506  17.349
  879MPD2     H12931   0.538   4.164  17.479
  879MPD2    H112932   0.352   4.418  17.194
  879MPD2    H212933   0.573   4.586  17.513
  879MPD2    H312934   0.429   4.606  17.318
  879MPD2     N12935   0.408   4.167  17.238
  879MPD2    H512936   0.373   4.188  17.145
  879MPD2    N112937   0.649   4.360  17.624
  879MPD2    H712938   0.705   4.444  17.637
  880MPD2     C12939   1.589   1.173  18.753
  880MPD2    C112940   1.694   1.193  18.664
  880MPD2    C212941   1.822   1.154  18.696
  880MPD2    C312942   1.834   1.071  18.815
  880MPD2    C412943   1.731   1.051  18.896
  880MPD2    C512944   1.612   1.109  18.870
  880MPD2     H12945   1.900   1.162  18.621
  880MPD2    H112946   1.735   0.997  18.990
  880MPD2    H212947   1.490   1.215  18.737
  880MPD2    H312948   1.536   1.082  18.943
  880MPD2     N12949   1.969   1.029  18.845
  880MPD2    H512950   2.044   1.044  18.778
  880MPD2    N112951   1.665   1.284  18.561
  880MPD2    H712952   1.574   1.328  18.560
  881MPD2     C12953   1.709   2.037  17.754
  881MPD2    C112954   1.756   1.912  17.740
  881MPD2    C212955   1.739   1.829  17.846
  881MPD2    C312956   1.701   1.868  17.969
  881MPD2    C412957   1.684   2.004  17.991
  881MPD2    C512958   1.675   2.080  17.876
  881MPD2     H12959   1.749   1.725  17.816
  881MPD2    H112960   1.640   2.041  18.083
  881MPD2    H212961   1.745   2.108  17.681
  881MPD2    H312962   1.654   2.186  17.886
  881MPD2     N12963   1.679   1.788  18.081
  881MPD2    H512964   1.653   1.827  18.172
  881MPD2    N112965   1.817   1.872  17.616
  881MPD2    H712966   1.796   1.936  17.540
  882MPD2     C12967   0.203   3.497  14.556
  882MPD2    C112968   0.146   3.509  14.681
  882MPD2    C212969   0.007   3.499  14.686
  882MPD2    C312970   4.712   3.485  14.570
  882MPD2    C412971   4.772   3.481  14.446
  882MPD2    C512972   0.124   3.481  14.441
  882MPD2     H12973   4.737   3.500  14.781
  882MPD2    H112974   4.708   3.469  14.359
  882MPD2    H212975   0.310   3.501  14.538
  882MPD2    H312976   0.174   3.463  14.346
  882MPD2     N12977   4.568   3.482  14.577
  882MPD2    H512978   4.527   3.419  14.510
  882MPD2    N112979   0.233   3.531  14.794
  882MPD2    H712980   0.331   3.534  14.771
  883MPD2     C12981   2.280   3.511  16.763
  883MPD2    C112982   2.317   3.538  16.630
  883MPD2    C212983   2.433   3.617  16.612
  883MPD2    C312984   2.508   3.660  16.720
  883MPD2    C412985   2.473   3.623  16.849
  883MPD2    C512986   2.355   3.554  16.871
  883MPD2     H12987   2.467   3.621  16.509
  883MPD2    H112988   2.530   3.655  16.935
  883MPD2    H212989   2.186   3.460  16.780
  883MPD2    H312990   2.311   3.539  16.969
  883MPD2     N12991   2.622   3.744  16.692
  883MPD2    H512992   2.646   3.748  16.593
  883MPD2    N112993   2.252   3.496  16.516
  883MPD2    H712994   2.299   3.523  16.430
  884MPD2     C12995   4.213   4.108  15.741
  884MPD2    C112996   4.173   4.152  15.612
  884MPD2    C212997   4.045   4.195  15.599
  884MPD2    C312998   3.952   4.199  15.705
  884MPD2    C412999   3.989   4.146  15.826
  884MPD2    C513000   4.121   4.105  15.846
  884MPD2     H13001   4.014   4.234  15.503
  884MPD2    H113002   3.916   4.131  15.905
  884MPD2    H213003   4.306   4.056  15.760
  884MPD2    H313004   4.142   4.065  15.945
  884MPD2     N13005   3.819   4.241  15.682
  884MPD2    H513006   3.804   4.262  15.584
  884MPD2    N113007   4.258   4.151  15.503
  884MPD2    H713008   4.236   4.196  15.415
  885MPD2     C13009   2.463   4.652  18.396
  885MPD2    C113010   2.585   4.718  18.384
  885MPD2    C213011   2.601   0.001  18.266
  885MPD2    C313012   2.506   4.773  18.169
  885MPD2    C413013   2.377   4.726  18.191
  885MPD2    C513014   2.365   4.656  18.305
  885MPD2     H13015   2.685   0.066  18.241
  885MPD2    H113016   2.298   4.728  18.116
  885MPD2    H213017   2.441   4.602  18.490
  885MPD2    H313018   2.275   4.611  18.345
  885MPD2     N13019   2.542   0.043  18.040
  885MPD2    H513020   2.642   0.042  18.020
  885MPD2    N113021   2.681   4.701  18.490
  885MPD2    H713022   2.659   4.626  18.555
  886MPD2     C13023   3.760   2.984  15.623
  886MPD2    C113024   3.879   3.046  15.584
  886MPD2    C213025   3.893   3.178  15.623
  886MPD2    C313026   3.780   3.253  15.649
  886MPD2    C413027   3.660   3.195  15.676
  886MPD2    C513028   3.659   3.058  15.674
  886MPD2     H13029   3.987   3.229  15.605
  886MPD2    H113030   3.573   3.248  15.711
  886MPD2    H213031   3.763   2.879  15.651
  886MPD2    H313032   3.568   3.010  15.709
  886MPD2     N13033   3.779   3.392  15.652
  886MPD2    H513034   3.693   3.436  15.620
  886MPD2    N113035   3.994   2.976  15.563
  886MPD2    H713036   4.085   3.017  15.544
  887MPD2     C13037   4.558   2.846  15.923
  887MPD2    C113038   4.498   2.939  15.840
  887MPD2    C213039   4.505   3.075  15.861
  887MPD2    C313040   4.570   3.125  15.968
  887MPD2    C413041   4.635   3.040  16.052
  887MPD2    C513042   4.626   2.903  16.026
  887MPD2     H13043   4.462   3.140  15.786
  887MPD2    H113044   4.687   3.068  16.143
  887MPD2    H213045   4.550   2.738  15.924
  887MPD2    H313046   4.674   2.843  16.102
  887MPD2     N13047   4.554   3.263  15.998
  887MPD2    H513048   4.489   3.318  15.943
  887MPD2    N113049   4.421   2.893  15.726
  887MPD2    H713050   4.398   2.962  15.655
  888MPD2     C13051   1.311   2.954  15.064
  888MPD2    C113052   1.299   2.975  15.198
  888MPD2    C213053   1.374   3.068  15.266
  888MPD2    C313054   1.467   3.147  15.206
  888MPD2    C413055   1.478   3.125  15.068
  888MPD2    C513056   1.403   3.035  14.995
  888MPD2     H13057   1.364   3.083  15.373
  888MPD2    H113058   1.553   3.183  15.016
  888MPD2    H213059   1.265   2.877  15.004
  888MPD2    H313060   1.422   3.018  14.890
  888MPD2     N13061   1.528   3.254  15.274
  888MPD2    H513062   1.506   3.259  15.373
  888MPD2    N113063   1.216   2.886  15.273
  888MPD2    H713064   1.227   2.898  15.373
  889MPD2     C13065   0.468   3.060  13.205
  889MPD2    C113066   0.501   2.992  13.315
  889MPD2    C213067   0.536   3.064  13.431
  889MPD2    C313068   0.528   3.203  13.433
  889MPD2    C413069   0.499   3.269  13.313
  889MPD2    C513070   0.466   3.196  13.200
  889MPD2     H13071   0.577   3.003  13.512
  889MPD2    H113072   0.495   3.377  13.302
  889MPD2    H213073   0.422   3.009  13.122
  889MPD2    H313074   0.423   3.237  13.109
  889MPD2     N13075   0.559   3.267  13.550
  889MPD2    H513076   0.598   3.220  13.632
  889MPD2    N113077   0.513   2.852  13.325
  889MPD2    H713078   0.543   2.811  13.413
  890MPD2     C13079   0.341   4.155  14.939
  890MPD2    C113080   0.451   4.214  14.994
  890MPD2    C213081   0.486   4.190  15.126
  890MPD2    C313082   0.408   4.108  15.205
  890MPD2    C413083   0.294   4.051  15.155
  890MPD2    C513084   0.263   4.076  15.021
  890MPD2     H13085   0.569   4.242  15.172
  890MPD2    H113086   0.223   4.007  15.225
  890MPD2    H213087   0.319   4.170  14.834
  890MPD2    H313088   0.169   4.040  14.982
  890MPD2     N13089   0.451   4.093  15.339
  890MPD2    H513090   0.537   4.138  15.370
  890MPD2    N113091   0.530   4.290  14.908
  890MPD2    H713092   0.509   4.313  14.811
  891MPD2     C13093   2.790   2.559  16.711
  891MPD2    C113094   2.809   2.675  16.636
  891MPD2    C213095   2.932   2.747  16.650
  891MPD2    C313096   3.026   2.703  16.741
  891MPD2    C413097   2.993   2.595  16.825
  891MPD2    C513098   2.874   2.525  16.814
  891MPD2     H13099   2.946   2.838  16.593
  891MPD2    H113100   3.054   2.547  16.901
  891MPD2    H213101   2.694   2.510  16.723
  891MPD2    H313102   2.835   2.452  16.883
  891MPD2     N13103   3.133   2.784  16.763
  891MPD2    H513104   3.134   2.879  16.725
  891MPD2    N113105   2.712   2.722  16.552
  891MPD2    H713106   2.624   2.670  16.559
  892MPD2     C13107   4.159   3.840  15.367
  892MPD2    C113108   4.066   3.833  15.272
  892MPD2    C213109   4.095   3.781  15.153
  892MPD2    C313110   4.224   3.730  15.128
  892MPD2    C413111   4.324   3.740  15.218
  892MPD2    C513112   4.293   3.808  15.337
  892MPD2     H13113   4.014   3.789  15.082
  892MPD2    H113114   4.425   3.704  15.200
  892MPD2    H213115   4.135   3.872  15.468
  892MPD2    H313116   4.371   3.812  15.412
  892MPD2     N13117   4.255   3.652  15.011
  892MPD2    H513118   4.352   3.657  14.981
  892MPD2    N113119   3.931   3.870  15.295
  892MPD2    H713120   3.859   3.872  15.222
  893MPD2     C13121   0.597   2.010  19.340
  893MPD2    C113122   0.642   2.139  19.307
  893MPD2    C213123   0.595   2.248  19.394
  893MPD2    C313124   0.519   2.223  19.510
  893MPD2    C413125   0.477   2.092  19.526
  893MPD2    C513126   0.510   1.986  19.446
  893MPD2     H13127   0.623   2.350  19.371
  893MPD2    H113128   0.403   2.062  19.600
  893MPD2    H213129   0.638   1.923  19.290
  893MPD2    H313130   0.470   1.888  19.468
  893MPD2     N13131   0.480   2.321  19.598
  893MPD2    H513132   0.418   2.293  19.673
  893MPD2    N113133   0.735   2.157  19.204
  893MPD2    H713134   0.753   2.081  19.140
  894MPD2     C13135   4.190   0.246  19.161
  894MPD2    C113136   4.080   0.297  19.224
  894MPD2    C213137   4.088   0.426  19.272
  894MPD2    C313138   4.202   0.505  19.243
  894MPD2    C413139   4.304   0.455  19.177
  894MPD2    C513140   4.298   0.322  19.138
  894MPD2     H13141   3.998   0.465  19.320
  894MPD2    H113142   4.380   0.522  19.139
  894MPD2    H213143   4.187   0.140  19.141
  894MPD2    H313144   4.371   0.280  19.070
  894MPD2     N13145   4.197   0.637  19.288
  894MPD2    H513146   4.109   0.668  19.329
  894MPD2    N113147   3.969   0.222  19.268
  894MPD2    H713148   3.890   0.278  19.299
  895MPD2     C13149   3.257   3.212  14.182
  895MPD2    C113150   3.240   3.082  14.135
  895MPD2    C213151   3.348   2.996  14.140
  895MPD2    C313152   3.475   3.035  14.189
  895MPD2    C413153   3.486   3.164  14.230
  895MPD2    C513154   3.384   3.253  14.216
  895MPD2     H13155   3.336   2.890  14.118
  895MPD2    H113156   3.587   3.198  14.251
  895MPD2    H213157   3.182   3.290  14.177
  895MPD2    H313158   3.396   3.360  14.231
  895MPD2     N13159   3.593   2.967  14.199
  895MPD2    H513160   3.659   3.022  14.253
  895MPD2    N113161   3.123   3.042  14.076
  895MPD2    H713162   3.132   2.951  14.032
  896MPD2     C13163   0.687   1.096  19.738
  896MPD2    C113164   0.708   0.985  19.663
  896MPD2    C213165   0.596   0.922  19.600
  896MPD2    C313166   0.475   0.983  19.598
  896MPD2    C413167   0.458   1.096  19.679
  896MPD2    C513168   0.562   1.144  19.749
  896MPD2     H13169   0.602   0.835  19.535
  896MPD2    H113170   0.367   1.147  19.707
  896MPD2    H213171   0.766   1.152  19.787
  896MPD2    H313172   0.547   1.222  19.822
  896MPD2     N13173   0.361   0.938  19.522
  896MPD2    H513174   0.368   0.848  19.475
  896MPD2    N113175   0.840   0.940  19.635
  896MPD2    H713176   0.917   0.989  19.680
  897MPD2     C13177   1.976   2.092  10.899
  897MPD2    C113178   1.936   2.220  10.928
  897MPD2    C213179   1.837   2.249  11.025
  897MPD2    C313180   1.762   2.139  11.069
  897MPD2    C413181   1.815   2.011  11.046
  897MPD2    C513182   1.919   1.988  10.965
  897MPD2     H13183   1.796   2.348  11.046
  897MPD2    H113184   1.765   1.924  11.086
  897MPD2    H213185   2.057   2.062  10.832
  897MPD2    H313186   1.965   1.893  10.941
  897MPD2     N13187   1.637   2.164  11.131
  897MPD2    H513188   1.609   2.262  11.137
  897MPD2    N113189   1.999   2.322  10.866
  897MPD2    H713190   2.038   2.280  10.782
  898MPD2     C13191   3.741   2.982  17.739
  898MPD2    C113192   3.823   3.029  17.637
  898MPD2    C213193   3.812   3.158  17.594
  898MPD2    C313194   3.708   3.236  17.625
  898MPD2    C413195   3.614   3.185  17.716
  898MPD2    C513196   3.631   3.059  17.764
  898MPD2     H13197   3.896   3.198  17.537
  898MPD2    H113198   3.534   3.243  17.759
  898MPD2    H213199   3.758   2.891  17.795
  898MPD2    H313200   3.561   3.020  17.837
  898MPD2     N13201   3.697   3.369  17.584
  898MPD2    H513202   3.774   3.409  17.531
  898MPD2    N113203   3.951   2.979  17.610
  898MPD2    H713204   4.024   3.034  17.566
  899MPD2     C13205   0.180   3.812  17.856
  899MPD2    C113206   0.160   3.925  17.933
  899MPD2    C213207   0.135   3.911  18.068
  899MPD2    C313208   0.115   3.785  18.120
  899MPD2    C413209   0.137   3.672  18.041
  899MPD2    C513210   0.176   3.687  17.914
  899MPD2     H13211   0.135   4.005  18.121
  899MPD2    H113212   0.125   3.573  18.082
  899MPD2    H213213   0.197   3.808  17.749
  899MPD2    H313214   0.212   3.604  17.853
  899MPD2     N13215   0.079   3.745  18.255
  899MPD2    H513216   0.089   3.647  18.278
  899MPD2    N113217   0.173   4.046  17.860
  899MPD2    H713218   0.174   4.039  17.759
  900MPD2     C13219   4.164   0.936  12.971
  900MPD2    C113220   4.098   0.812  12.974
  900MPD2    C213221   3.996   0.788  12.882
  900MPD2    C313222   3.946   0.884  12.800
  900MPD2    C413223   4.009   1.009  12.805
  900MPD2    C513224   4.119   1.025  12.885
  900MPD2     H13225   3.942   0.694  12.896
  900MPD2    H113226   3.980   1.088  12.737
  900MPD2    H213227   4.247   0.955  13.038
  900MPD2    H313228   4.176   1.117  12.875
  900MPD2     N13229   3.845   0.849  12.718
  900MPD2    H513230   3.786   0.774  12.752
  900MPD2    N113231   4.144   0.724  13.073
  900MPD2    H713232   4.236   0.746  13.109
  901MPD2     C13233   4.023   4.478  13.196
  901MPD2    C113234   4.157   4.493  13.209
  901MPD2    C213235   4.215   4.619  13.239
  901MPD2    C313236   4.133   4.727  13.244
  901MPD2    C413237   4.000   4.715  13.216
  901MPD2    C513238   3.944   4.588  13.199
  901MPD2     H13239   4.322   4.628  13.251
  901MPD2    H113240   3.929   0.015  13.215
  901MPD2    H213241   3.982   4.380  13.174
  901MPD2    H313242   3.839   4.584  13.171
  901MPD2     N13243   4.191   0.069  13.276
  901MPD2    H513244   4.291   0.086  13.274
  901MPD2    N113245   4.235   4.380  13.204
  901MPD2    H713246   4.185   4.296  13.178
  902MPD2     C13247   3.275   3.644  13.473
  902MPD2    C113248   3.200   3.698  13.368
  902MPD2    C213249   3.247   3.686  13.236
  902MPD2    C313250   3.377   3.649  13.208
  902MPD2    C413251   3.451   3.598  13.315
  902MPD2    C513252   3.403   3.595  13.441
  902MPD2     H13253   3.186   3.726  13.156
  902MPD2    H113254   3.553   3.572  13.289
  902MPD2    H213255   3.246   3.646  13.577
  902MPD2    H313256   3.460   3.553  13.523
  902MPD2     N13257   3.428   3.642  13.080
  902MPD2    H513258   3.517   3.594  13.071
  902MPD2    N113259   3.071   3.750  13.407
  902MPD2    H713260   3.038   3.719  13.498
  903MPD2     C13261   3.145   3.927  12.378
  903MPD2    C113262   3.236   3.835  12.413
  903MPD2    C213263   3.229   3.704  12.357
  903MPD2    C313264   3.120   3.671  12.275
  903MPD2    C413265   3.030   3.771  12.239
  903MPD2    C513266   3.054   3.897  12.282
  903MPD2     H13267   3.291   3.624  12.398
  903MPD2    H113268   2.939   3.753  12.183
  903MPD2    H213269   3.151   4.029  12.415
  903MPD2    H313270   2.984   3.971  12.245
  903MPD2     N13271   3.076   3.537  12.257
  903MPD2    H513272   3.124   3.465  12.310
  903MPD2    N113273   3.331   3.871  12.510
  903MPD2    H713274   3.324   3.951  12.572
  904MPD2     C13275   3.011   2.545  14.147
  904MPD2    C113276   3.003   2.443  14.233
  904MPD2    C213277   3.105   2.425  14.319
  904MPD2    C313278   3.208   2.512  14.320
  904MPD2    C413279   3.217   2.625  14.240
  904MPD2    C513280   3.111   2.639  14.154
  904MPD2     H13281   3.090   2.338  14.381
  904MPD2    H113282   3.293   2.702  14.245
  904MPD2    H213283   2.923   2.555  14.084
  904MPD2    H313284   3.097   2.710  14.074
  904MPD2     N13285   3.314   2.476  14.414
  904MPD2    H513286   3.317   2.381  14.450
  904MPD2    N113287   2.894   2.350  14.235
  904MPD2    H713288   2.922   2.261  14.275
  905MPD2     C13289   2.863   2.550  13.631
  905MPD2    C113290   2.887   2.629  13.742
  905MPD2    C213291   3.013   2.680  13.767
  905MPD2    C313292   3.115   2.637  13.693
  905MPD2    C413293   3.098   2.552  13.585
  905MPD2    C513294   2.972   2.518  13.559
  905MPD2     H13295   3.033   2.713  13.868
  905MPD2    H113296   3.178   2.528  13.515
  905MPD2    H213297   2.769   2.511  13.595
  905MPD2    H313298   2.952   2.457  13.472
  905MPD2     N13299   3.249   2.663  13.735
  905MPD2    H513300   3.324   2.609  13.694
  905MPD2    N113301   2.773   2.643  13.825
  905MPD2    H713302   2.689   2.591  13.800
  906MPD2     C13303   0.487   2.739  11.627
  906MPD2    C113304   0.448   2.638  11.544
  906MPD2    C213305   0.356   2.542  11.587
  906MPD2    C313306   0.290   2.561  11.709
  906MPD2    C413307   0.328   2.665  11.784
  906MPD2    C513308   0.420   2.758  11.748
  906MPD2     H13309   0.318   2.471  11.514
  906MPD2    H113310   0.275   2.685  11.876
  906MPD2    H213311   0.562   2.811  11.598
  906MPD2    H313312   0.428   2.838  11.821
  906MPD2     N13313   0.183   2.476  11.749
  906MPD2    H513314   0.134   2.509  11.831
  906MPD2    N113315   0.492   2.628  11.412
  906MPD2    H713316   0.496   2.536  11.372
  907MPD2     C13317   3.835   1.812  15.866
  907MPD2    C113318   3.949   1.761  15.815
  907MPD2    C213319   4.058   1.749  15.891
  907MPD2    C313320   4.059   1.782  16.027
  907MPD2    C413321   3.943   1.833  16.083
  907MPD2    C513322   3.833   1.840  16.005
  907MPD2     H13323   4.144   1.686  15.870
  907MPD2    H113324   3.945   1.857  16.189
  907MPD2    H213325   3.747   1.828  15.805
  907MPD2    H313326   3.743   1.869  16.059
  907MPD2     N13327   4.182   1.756  16.099
  907MPD2    H513328   4.262   1.736  16.040
  907MPD2    N113329   3.955   1.714  15.682
  907MPD2    H713330   4.043   1.669  15.658
  908MPD2     C13331   1.930   2.397   9.988
  908MPD2    C113332   1.918   2.295  10.088
  908MPD2    C213333   1.938   2.320  10.225
  908MPD2    C313334   1.972   2.449  10.263
  908MPD2    C413335   1.978   2.549  10.171
  908MPD2    C513336   1.951   2.520  10.040
  908MPD2     H13337   1.928   2.236  10.292
  908MPD2    H113338   1.999   2.654  10.185
  908MPD2    H213339   1.916   2.384   9.882
  908MPD2    H313340   1.946   2.608   9.976
  908MPD2     N13341   1.988   2.474  10.406
  908MPD2    H513342   1.991   2.393  10.467
  908MPD2    N113343   1.886   2.162  10.029
  908MPD2    H713344   1.856   2.171   9.933
  909MPD2     C13345   2.215   0.564  11.904
  909MPD2    C113346   2.225   0.699  11.891
  909MPD2    C213347   2.213   0.776  12.003
  909MPD2    C313348   2.209   0.718  12.134
  909MPD2    C413349   2.208   0.581  12.146
  909MPD2    C513350   2.213   0.510  12.030
  909MPD2     H13351   2.207   0.885  11.999
  909MPD2    H113352   2.198   0.523  12.237
  909MPD2    H213353   2.203   0.496  11.821
  909MPD2    H313354   2.215   0.402  12.043
  909MPD2     N13355   2.194   0.808  12.236
  909MPD2    H513356   2.180   0.908  12.226
  909MPD2    N113357   2.249   0.762  11.767
  909MPD2    H713358   2.239   0.863  11.759
  910MPD2     C13359   3.430   2.552  16.605
  910MPD2    C113360   3.476   2.428  16.555
  910MPD2    C213361   3.441   2.395  16.425
  910MPD2    C313362   3.369   2.482  16.346
  910MPD2    C413363   3.335   2.609  16.394
  910MPD2    C513364   3.362   2.640  16.526
  910MPD2     H13365   3.468   2.296  16.392
  910MPD2    H113366   3.281   2.686  16.340
  910MPD2    H213367   3.447   2.572  16.710
  910MPD2    H313368   3.337   2.740  16.560
  910MPD2     N13369   3.325   2.454  16.214
  910MPD2    H513370   3.262   2.520  16.169
  910MPD2    N113371   3.541   2.336  16.639
  910MPD2    H713372   3.559   2.242  16.604
  911MPD2     C13373   1.448   2.589  16.348
  911MPD2    C113374   1.472   2.650  16.469
  911MPD2    C213375   1.391   2.762  16.501
  911MPD2    C313376   1.296   2.813  16.412
  911MPD2    C413377   1.271   2.739  16.305
  911MPD2    C513378   1.350   2.633  16.267
  911MPD2     H13379   1.417   2.812  16.593
  911MPD2    H113380   1.206   2.789  16.234
  911MPD2    H213381   1.508   2.517  16.294
  911MPD2    H313382   1.316   2.583  16.177
  911MPD2     N13383   1.214   2.924  16.442
  911MPD2    H513384   1.126   2.925  16.390
  911MPD2    N113385   1.568   2.589  16.539
  911MPD2    H713386   1.630   2.527  16.487
  912MPD2     C13387   1.056   2.839  16.016
  912MPD2    C113388   0.978   2.838  16.129
  912MPD2    C213389   0.960   2.712  16.183
  912MPD2    C313390   1.023   2.600  16.131
  912MPD2    C413391   1.092   2.611  16.013
  912MPD2    C513392   1.113   2.732  15.961
  912MPD2     H13393   0.901   2.692  16.271
  912MPD2    H113394   1.156   2.538  15.965
  912MPD2    H213395   1.089   2.936  15.979
  912MPD2    H313396   1.176   2.751  15.875
  912MPD2     N13397   1.011   2.481  16.210
  912MPD2    H513398   0.951   2.493  16.291
  912MPD2    N113399   0.962   2.953  16.207
  912MPD2    H713400   0.985   3.038  16.157
  913MPD2     C13401   1.643   3.953  11.120
  913MPD2    C113402   1.733   4.050  11.145
  913MPD2    C213403   1.736   4.167  11.074
  913MPD2    C313404   1.653   4.180  10.963
  913MPD2    C413405   1.560   4.081  10.939
  913MPD2    C513406   1.547   3.973  11.021
  913MPD2     H13407   1.801   4.249  11.102
  913MPD2    H113408   1.493   4.091  10.854
  913MPD2    H213409   1.648   3.867  11.186
  913MPD2    H313410   1.473   3.895  11.004
  913MPD2     N13411   1.660   4.288  10.875
  913MPD2    H513412   1.608   4.265  10.791
  913MPD2    N113413   1.822   4.023  11.260
  913MPD2    H713414   1.816   3.928  11.293
  914MPD2     C13415   4.332   4.205  12.418
  914MPD2    C113416   4.292   4.302  12.507
  914MPD2    C213417   4.313   4.276  12.643
  914MPD2    C313418   4.361   4.156  12.687
  914MPD2    C413419   4.395   4.054  12.598
  914MPD2    C513420   4.381   4.082  12.464
  914MPD2     H13421   4.295   4.352  12.717
  914MPD2    H113422   4.424   3.952  12.619
  914MPD2    H213423   4.323   4.206  12.310
  914MPD2    H313424   4.415   4.003  12.398
  914MPD2     N13425   4.376   4.137  12.823
  914MPD2    H513426   4.367   4.223  12.876
  914MPD2    N113427   4.255   4.427  12.454
  914MPD2    H713428   4.268   4.460  12.359
  915MPD2     C13429   2.772   3.945  15.763
  915MPD2    C113430   2.665   4.023  15.720
  915MPD2    C213431   2.576   4.087  15.806
  915MPD2    C313432   2.595   4.066  15.941
  915MPD2    C413433   2.706   3.993  15.986
  915MPD2    C513434   2.794   3.933  15.896
  915MPD2     H13435   2.498   4.151  15.767
  915MPD2    H113436   2.736   3.976  16.089
  915MPD2    H213437   2.839   3.897  15.693
  915MPD2    H313438   2.887   3.890  15.931
  915MPD2     N13439   2.505   4.131  16.033
  915MPD2    H513440   2.442   4.196  15.986
  915MPD2    N113441   2.646   4.028  15.576
  915MPD2    H713442   2.701   3.962  15.523
  916MPD2     C13443   0.558   2.398  16.116
  916MPD2    C113444   0.543   2.283  16.184
  916MPD2    C213445   0.614   2.167  16.160
  916MPD2    C313446   0.704   2.171  16.050
  916MPD2    C413447   0.726   2.295  15.990
  916MPD2    C513448   0.661   2.413  16.026
  916MPD2     H13449   0.603   2.074  16.215
  916MPD2    H113450   0.806   2.304  15.918
  916MPD2    H213451   0.499   2.484  16.148
  916MPD2    H313452   0.683   2.512  15.987
  916MPD2     N13453   0.773   2.050  16.008
  916MPD2    H513454   0.779   1.966  16.064
  916MPD2    N113455   0.443   2.288  16.288
  916MPD2    H713456   0.401   2.377  16.310
  917MPD2     C13457   0.840   0.087  11.728
  917MPD2    C113458   0.881   0.130  11.854
  917MPD2    C213459   0.943   0.258  11.862
  917MPD2    C313460   0.962   0.336  11.748
  917MPD2    C413461   0.904   0.296  11.626
  917MPD2    C513462   0.857   0.171  11.615
  917MPD2     H13463   1.001   0.286  11.950
  917MPD2    H113464   0.916   0.355  11.535
  917MPD2    H213465   0.778   4.781  11.718
  917MPD2    H313466   0.822   0.140  11.517
  917MPD2     N13467   1.014   0.465  11.745
  917MPD2    H513468   1.023   0.514  11.657
  917MPD2    N113469   0.850   0.047  11.959
  917MPD2    H713470   0.806   4.747  11.919
  918MPD2     C13471   0.786   0.456  12.832
  918MPD2    C113472   0.897   0.380  12.807
  918MPD2    C213473   0.891   0.264  12.736
  918MPD2    C313474   0.765   0.219  12.683
  918MPD2    C413475   0.657   0.292  12.712
  918MPD2    C513476   0.667   0.411  12.784
  918MPD2     H13477   0.977   0.199  12.725
  918MPD2    H113478   0.558   0.267  12.675
  918MPD2    H213479   0.792   0.554  12.879
  918MPD2    H313480   0.581   0.473  12.806
  918MPD2     N13481   0.764   0.111  12.592
  918MPD2    H513482   0.853   0.065  12.575
  918MPD2    N113483   1.027   0.427  12.836
  918MPD2    H713484   1.113   0.375  12.818
  919MPD2     C13485   1.587   3.761  12.317
  919MPD2    C113486   1.527   3.652  12.252
  919MPD2    C213487   1.555   3.648  12.119
  919MPD2    C313488   1.618   3.752  12.053
  919MPD2    C413489   1.660   3.867  12.119
  919MPD2    C513490   1.642   3.867  12.256
  919MPD2     H13491   1.520   3.570  12.053
  919MPD2    H113492   1.694   3.952  12.061
  919MPD2    H213493   1.581   3.772  12.425
  919MPD2    H313494   1.656   3.962  12.306
  919MPD2     N13495   1.633   3.756  11.913
  919MPD2    H513496   1.664   3.845  11.874
  919MPD2    N113497   1.471   3.542  12.314
  919MPD2    H713498   1.416   3.486  12.249
  920MPD2     C13499   1.440   4.448  11.253
  920MPD2    C113500   1.348   4.347  11.220
  920MPD2    C213501   1.368   4.222  11.257
  920MPD2    C313502   1.475   4.187  11.342
  920MPD2    C413503   1.569   4.281  11.369
  920MPD2    C513504   1.546   4.412  11.334
  920MPD2     H13505   1.309   4.151  11.201
  920MPD2    H113506   1.662   4.261  11.421
  920MPD2    H213507   1.434   4.550  11.217
  920MPD2    H313508   1.615   4.489  11.366
  920MPD2     N13509   1.472   4.060  11.399
  920MPD2    H513510   1.404   3.995  11.362
  920MPD2    N113511   1.234   4.374  11.135
  920MPD2    H713512   1.196   4.296  11.083
  921MPD2     C13513   2.240   3.037  16.859
  921MPD2    C113514   2.226   2.936  16.768
  921MPD2    C213515   2.162   2.819  16.799
  921MPD2    C313516   2.096   2.808  16.922
  921MPD2    C413517   2.102   2.916  17.005
  921MPD2    C513518   2.174   3.027  16.975
  921MPD2     H13519   2.163   2.734  16.731
  921MPD2    H113520   2.058   2.912  17.104
  921MPD2    H213521   2.305   3.120  16.835
  921MPD2    H313522   2.167   3.111  17.043
  921MPD2     N13523   2.007   2.696  16.952
  921MPD2    H513524   1.925   2.708  17.011
  921MPD2    N113525   2.282   2.954  16.645
  921MPD2    H713526   2.332   3.040  16.627
  922MPD2     C13527   3.243   0.763  17.518
  922MPD2    C113528   3.129   0.800  17.585
  922MPD2    C213529   3.048   0.704  17.636
  922MPD2    C313530   3.068   0.571  17.623
  922MPD2    C413531   3.173   0.531  17.539
  922MPD2    C513532   3.263   0.625  17.499
  922MPD2     H13533   2.956   0.737  17.683
  922MPD2    H113534   3.194   0.431  17.504
  922MPD2    H213535   3.313   0.834  17.476
  922MPD2    H313536   3.332   0.583  17.426
  922MPD2     N13537   2.956   0.488  17.657
  922MPD2    H513538   2.873   0.529  17.698
  922MPD2    N113539   3.092   0.930  17.612
  922MPD2    H713540   3.029   0.940  17.691
  923MPD2     C13541   4.306   3.011   9.044
  923MPD2    C113542   4.255   3.070   9.158
  923MPD2    C213543   4.327   3.051   9.278
  923MPD2    C313544   4.446   2.983   9.277
  923MPD2    C413545   4.480   2.915   9.170
  923MPD2    C513546   4.417   2.932   9.053
  923MPD2     H13547   4.274   3.080   9.368
  923MPD2    H113548   4.585   2.885   9.173
  923MPD2    H213549   4.255   3.016   8.949
  923MPD2    H313550   4.445   2.886   8.959
  923MPD2     N13551   4.513   2.960   9.400
  923MPD2    H513552   4.593   2.897   9.389
  923MPD2    N113553   4.147   3.161   9.140
  923MPD2    H713554   4.078   3.131   9.072
  924MPD2     C13555   4.062   1.036  16.158
  924MPD2    C113556   4.129   1.068  16.275
  924MPD2    C213557   4.230   1.167  16.278
  924MPD2    C313558   4.270   1.218  16.157
  924MPD2    C413559   4.200   1.190  16.040
  924MPD2    C513560   4.095   1.100  16.048
  924MPD2     H13561   4.280   1.205  16.366
  924MPD2    H113562   4.231   1.234  15.946
  924MPD2    H213563   3.978   0.967  16.161
  924MPD2    H313564   4.041   1.082  15.956
  924MPD2     N13565   4.360   1.327  16.152
  924MPD2    H513566   4.363   1.371  16.060
  924MPD2    N113567   4.089   1.002  16.395
  924MPD2    H713568   4.000   0.954  16.406
  925MPD2     C13569   3.267   3.624  15.213
  925MPD2    C113570   3.137   3.646  15.172
  925MPD2    C213571   3.055   3.687  15.272
  925MPD2    C313572   3.091   3.696  15.403
  925MPD2    C413573   3.215   3.669  15.443
  925MPD2    C513574   3.305   3.639  15.341
  925MPD2     H13575   2.948   3.685  15.258
  925MPD2    H113576   3.238   3.664  15.549
  925MPD2    H213577   3.339   3.585  15.141
  925MPD2    H313578   3.410   3.624  15.364
  925MPD2     N13579   2.993   3.698  15.507
  925MPD2    H513580   3.018   3.681  15.604
  925MPD2    N113581   3.084   3.620  15.041
  925MPD2    H713582   2.986   3.645  15.031
  926MPD2     C13583   1.825   1.994  13.501
  926MPD2    C113584   1.736   2.103  13.481
  926MPD2    C213585   1.779   2.209  13.407
  926MPD2    C313586   1.907   2.216  13.356
  926MPD2    C413587   1.988   2.109  13.377
  926MPD2    C513588   1.949   1.997  13.449
  926MPD2     H13589   1.702   2.285  13.396
  926MPD2    H113590   2.091   2.105  13.343
  926MPD2    H213591   1.792   1.900  13.544
  926MPD2    H313592   2.022   1.920  13.470
  926MPD2     N13593   1.963   2.326  13.283
  926MPD2    H513594   2.059   2.306  13.257
  926MPD2    N113595   1.602   2.098  13.525
  926MPD2    H713596   1.543   2.174  13.495
  927MPD2     C13597   1.164   4.239  18.237
  927MPD2    C113598   1.274   4.309  18.259
  927MPD2    C213599   1.370   4.322  18.165
  927MPD2    C313600   1.359   4.259  18.044
  927MPD2    C413601   1.258   4.161  18.032
  927MPD2    C513602   1.161   4.154  18.132
  927MPD2     H13603   1.459   4.381  18.180
  927MPD2    H113604   1.241   4.097  17.947
  927MPD2    H213605   1.087   4.219  18.311
  927MPD2    H313606   1.073   4.092  18.119
  927MPD2     N13607   1.445   4.288  17.935
  927MPD2    H513608   1.504   4.370  17.946
  927MPD2    N113609   1.277   4.378  18.389
  927MPD2    H713610   1.190   4.375  18.442
  928MPD2     C13611   3.698   2.527  18.748
  928MPD2    C113612   3.771   2.648  18.757
  928MPD2    C213613   3.898   2.655  18.704
  928MPD2    C313614   3.958   2.541  18.642
  928MPD2    C413615   3.879   2.428  18.625
  928MPD2    C513616   3.753   2.421  18.685
  928MPD2     H13617   3.959   2.744  18.704
  928MPD2    H113618   3.918   2.338  18.579
  928MPD2    H213619   3.603   2.527  18.801
  928MPD2    H313620   3.698   2.328  18.681
  928MPD2     N13621   4.087   2.543  18.586
  928MPD2    H513622   4.122   2.479  18.516
  928MPD2    N113623   3.708   2.751  18.825
  928MPD2    H713624   3.624   2.739  18.881
  929MPD2     C13625   4.090   2.956  10.113
  929MPD2    C113626   4.009   2.876  10.188
  929MPD2    C213627   3.901   2.808  10.126
  929MPD2    C313628   3.877   2.830   9.993
  929MPD2    C413629   3.964   2.901   9.920
  929MPD2    C513630   4.069   2.962   9.983
  929MPD2     H13631   3.819   2.761  10.179
  929MPD2    H113632   3.944   2.905   9.813
  929MPD2    H213633   4.161   3.017  10.168
  929MPD2    H313634   4.130   3.026   9.920
  929MPD2     N13635   3.757   2.788   9.926
  929MPD2    H513636   3.752   2.792   9.824
  929MPD2    N113637   4.018   2.877  10.328
  929MPD2    H713638   4.105   2.916  10.365
  930MPD2     C13639   1.195   4.721  14.318
  930MPD2    C113640   1.304   4.745  14.239
  930MPD2    C213641   1.320   4.667  14.127
  930MPD2    C313642   1.234   4.558  14.104
  930MPD2    C413643   1.121   4.545  14.178
  930MPD2    C513644   1.103   4.622  14.287
  930MPD2     H13645   1.418   4.684  14.083
  930MPD2    H113646   1.042   4.474  14.155
  930MPD2    H213647   1.166   0.002  14.401
  930MPD2    H313648   1.007   4.625  14.336
  930MPD2     N13649   1.264   4.449  14.022
  930MPD2    H513650   1.203   4.369  14.035
  930MPD2    N113651   1.372   0.079  14.273
  930MPD2    H713652   1.375   0.113  14.368
  931MPD2     C13653   1.854   4.386  18.983
  931MPD2    C113654   1.724   4.321  18.974
  931MPD2    C213655   1.706   4.207  19.053
  931MPD2    C313656   1.805   4.161  19.135
  931MPD2    C413657   1.935   4.219  19.127
  931MPD2    C513658   1.949   4.336  19.060
  931MPD2     H13659   1.613   4.153  19.069
  931MPD2    H113660   2.008   4.202  19.205
  931MPD2    H213661   1.871   4.476  18.926
  931MPD2    H313662   2.053   4.367  19.050
  931MPD2     N13663   1.792   4.046  19.218
  931MPD2    H513664   1.876   4.018  19.267
  931MPD2    N113665   1.628   4.372  18.888
  931MPD2    H713666   1.661   4.430  18.812
  932MPD2     C13667   2.910   4.059  11.781
  932MPD2    C113668   3.011   4.017  11.695
  932MPD2    C213669   3.068   3.895  11.719
  932MPD2    C313670   3.022   3.809  11.820
  932MPD2    C413671   2.915   3.851  11.892
  932MPD2    C513672   2.861   3.975  11.879
  932MPD2     H13673   3.160   3.860  11.673
  932MPD2    H113674   2.865   3.792  11.968
  932MPD2    H213675   2.863   4.156  11.787
  932MPD2    H313676   2.787   4.019  11.945
  932MPD2     N13677   3.077   3.681  11.844
  932MPD2    H513678   3.083   3.651  11.941
  932MPD2    N113679   3.067   4.103  11.595
  932MPD2    H713680   3.157   4.075  11.558
  933MPD2     C13681   3.802   3.641  19.104
  933MPD2    C113682   3.819   3.534  19.019
  933MPD2    C213683   3.895   3.569  18.907
  933MPD2    C313684   3.943   3.695  18.881
  933MPD2    C413685   3.929   3.796  18.973
  933MPD2    C513686   3.849   3.770  19.082
  933MPD2     H13687   3.922   3.494  18.834
  933MPD2    H113688   3.967   3.896  18.956
  933MPD2    H213689   3.745   3.636  19.196
  933MPD2    H313690   3.815   3.851  19.145
  933MPD2     N13691   4.010   3.714  18.751
  933MPD2    H513692   4.022   3.632  18.693
  933MPD2    N113693   3.771   3.410  19.050
  933MPD2    H713694   3.734   3.394  19.144
  934MPD2     C13695   0.863   1.074  20.267
  934MPD2    C113696   0.908   0.971  20.188
  934MPD2    C213697   0.815   0.894  20.116
  934MPD2    C313698   0.686   0.932  20.114
  934MPD2    C413699   0.641   1.042  20.187
  934MPD2    C513700   0.729   1.102  20.262
  934MPD2     H13701   0.855   0.811  20.059
  934MPD2    H113702   0.537   1.074  20.183
  934MPD2    H213703   0.929   1.133  20.329
  934MPD2    H313704   0.708   1.194  20.316
  934MPD2     N13705   0.581   0.859  20.041
  934MPD2    H513706   0.501   0.919  20.023
  934MPD2    N113707   1.051   0.940  20.181
  934MPD2    H713708   1.081   0.866  20.117
  935MPD2     C13709   0.596   4.728  19.602
  935MPD2    C113710   0.487   0.013  19.551
  935MPD2    C213711   0.442   0.125  19.623
  935MPD2    C313712   0.506   0.173  19.739
  935MPD2    C413713   0.626   0.108  19.775
  935MPD2    C513714   0.664   4.779  19.704
  935MPD2     H13715   0.356   0.182  19.590
  935MPD2    H113716   0.688   0.153  19.851
  935MPD2    H213717   0.642   4.651  19.541
  935MPD2    H313718   0.759   4.738  19.736
  935MPD2     N13719   0.468   0.294  19.807
  935MPD2    H513720   0.538   0.322  19.875
  935MPD2    N113721   0.396   4.748  19.452
  935MPD2    H713722   0.314   0.018  19.425
  936MPD2     C13723   3.698   1.627  12.836
  936MPD2    C113724   3.815   1.676  12.889
  936MPD2    C213725   3.876   1.782  12.830
  936MPD2    C313726   3.818   1.847  12.726
  936MPD2    C413727   3.696   1.802  12.681
  936MPD2    C513728   3.643   1.690  12.732
  936MPD2     H13729   3.971   1.811  12.874
  936MPD2    H113730   3.657   1.841  12.587
  936MPD2    H213731   3.650   1.540  12.880
  936MPD2    H313732   3.549   1.655  12.690
  936MPD2     N13733   3.863   1.975  12.683
  936MPD2    H513734   3.803   2.034  12.628
  936MPD2    N113735   3.889   1.628  12.999
  936MPD2    H713736   3.980   1.667  13.021
  937MPD2     C13737   1.528   2.880  12.164
  937MPD2    C113738   1.554   3.015  12.178
  937MPD2    C213739   1.637   3.071  12.090
  937MPD2    C313740   1.696   2.994  11.990
  937MPD2    C413741   1.674   2.861  11.983
  937MPD2    C513742   1.599   2.802  12.073
  937MPD2     H13743   1.659   3.177  12.090
  937MPD2    H113744   1.728   2.792  11.919
  937MPD2    H213745   1.461   2.829  12.232
  937MPD2    H313746   1.591   2.694  12.066
  937MPD2     N13747   1.795   3.063  11.917
  937MPD2    H513748   1.825   3.153  11.953
  937MPD2    N113749   1.492   3.103  12.267
  937MPD2    H713750   1.512   3.202  12.274
  938MPD2     C13751   4.637   4.256  18.882
  938MPD2    C113752   4.585   4.379  18.930
  938MPD2    C213753   4.492   4.371  19.034
  938MPD2    C313754   4.470   4.252  19.098
  938MPD2    C413755   4.531   4.139  19.053
  938MPD2    C513756   4.606   4.140  18.942
  938MPD2     H13757   4.433   4.455  19.070
  938MPD2    H113758   4.509   4.043  19.098
  938MPD2    H213759   4.702   4.251  18.795
  938MPD2    H313760   4.651   4.047  18.907
  938MPD2     N13761   4.379   4.234  19.208
  938MPD2    H513762   4.351   4.142  19.238
  938MPD2    N113763   4.608   4.505  18.877
  938MPD2    H713764   4.567   4.580  18.931
  939MPD2     C13765   0.885   0.580  19.190
  939MPD2    C113766   0.851   0.701  19.119
  939MPD2    C213767   0.901   0.722  18.994
  939MPD2    C313768   0.985   0.634  18.935
  939MPD2    C413769   1.014   0.514  19.000
  939MPD2    C513770   0.960   0.489  19.124
  939MPD2     H13771   0.872   0.815  18.946
  939MPD2    H113772   1.076   0.446  18.942
  939MPD2    H213773   0.857   0.554  19.291
  939MPD2    H313774   0.965   0.394  19.176
  939MPD2     N13775   1.038   0.672  18.809
  939MPD2    H513776   0.990   0.749  18.764
  939MPD2    N113777   0.759   0.788  19.183
  939MPD2    H713778   0.736   0.776  19.282
  940MPD2     C13779   4.516   2.184  13.712
  940MPD2    C113780   4.469   2.058  13.711
  940MPD2    C213781   4.486   1.975  13.598
  940MPD2    C313782   4.552   2.022  13.483
  940MPD2    C413783   4.592   2.152  13.487
  940MPD2    C513784   4.576   2.231  13.600
  940MPD2     H13785   4.467   1.868  13.604
  940MPD2    H113786   4.638   2.199  13.401
  940MPD2    H213787   4.514   2.254  13.795
  940MPD2    H313788   4.596   2.338  13.598
  940MPD2     N13789   4.575   1.960  13.363
  940MPD2    H513790   4.630   2.005  13.290
  940MPD2    N113791   4.408   2.003  13.836
  940MPD2    H713792   4.374   1.907  13.843
  941MPD2     C13793   3.455   1.260   9.935
  941MPD2    C113794   3.552   1.192  10.001
  941MPD2    C213795   3.518   1.073  10.069
  941MPD2    C313796   3.391   1.018  10.059
  941MPD2    C413797   3.299   1.086   9.991
  941MPD2    C513798   3.330   1.205   9.934
  941MPD2     H13799   3.598   1.024  10.123
  941MPD2    H113800   3.201   1.042   9.973
  941MPD2    H213801   3.463   1.363   9.902
  941MPD2    H313802   3.263   1.252   9.864
  941MPD2     N13803   3.351   0.892  10.117
  941MPD2    H513804   3.252   0.868  10.119
  941MPD2    N113805   3.684   1.244  10.017
  941MPD2    H713806   3.744   1.187  10.075
  942MPD2     C13807   2.949   3.094   9.265
  942MPD2    C113808   2.979   2.990   9.177
  942MPD2    C213809   3.109   2.953   9.150
  942MPD2    C313810   3.212   3.045   9.188
  942MPD2    C413811   3.183   3.159   9.261
  942MPD2    C513812   3.051   3.175   9.309
  942MPD2     H13813   3.138   2.860   9.105
  942MPD2    H113814   3.261   3.220   9.305
  942MPD2    H213815   2.850   3.113   9.304
  942MPD2    H313816   3.040   3.258   9.378
  942MPD2     N13817   3.347   3.017   9.158
  942MPD2    H513818   3.414   3.086   9.190
  942MPD2    N113819   2.891   2.880   9.164
  942MPD2    H713820   2.911   2.800   9.105
  943MPD2     C13821   1.946   0.730  10.064
  943MPD2    C113822   2.075   0.773  10.087
  943MPD2    C213823   2.107   0.906  10.056
  943MPD2    C313824   2.008   0.999  10.025
  943MPD2    C413825   1.878   0.954  10.000
  943MPD2    C513826   1.851   0.821  10.036
  943MPD2     H13827   2.209   0.935  10.080
  943MPD2    H113828   1.800   1.024   9.975
  943MPD2    H213829   1.914   0.629  10.087
  943MPD2    H313830   1.755   0.790   9.997
  943MPD2     N13831   2.045   1.130   9.990
  943MPD2    H513832   1.967   1.194   9.978
  943MPD2    N113833   2.170   0.691  10.153
  943MPD2    H713834   2.133   0.598  10.170
  944MPD2     C13835   1.753   4.748  11.452
  944MPD2    C113836   1.845   0.064  11.439
  944MPD2    C213837   1.819   0.193  11.502
  944MPD2    C313838   1.695   0.208  11.571
  944MPD2    C413839   1.597   0.110  11.565
  944MPD2    C513840   1.627   4.773  11.506
  944MPD2     H13841   1.887   0.277  11.509
  944MPD2    H113842   1.496   0.107  11.605
  944MPD2    H213843   1.772   4.650  11.410
  944MPD2    H313844   1.558   4.690  11.509
  944MPD2     N13845   1.674   0.333  11.634
  944MPD2    H513846   1.749   0.401  11.631
  944MPD2    N113847   1.960   0.030  11.376
  944MPD2    H713848   1.978   4.715  11.353
    1TCq1    O113849   0.502   0.385  14.665
    1TCq1    C113850   0.546   0.466  14.560
    1TCq1    O213851   0.471   0.533  14.493
    1TCq1    C213852   0.682   0.511  14.596
    1TCq1    C313853   0.787   0.427  14.576
    1TCq1    C413854   0.909   0.471  14.629
    1TCq1    C513855   0.919   0.586  14.695
    1TCq1    C613856   0.810   0.661  14.717
    1TCq1    C713857   0.682   0.624  14.677
    1TCq1    C813858   0.834   0.767  14.814
    1TCq1    O413859   0.933   0.760  14.883
    1TCq1    C913860   1.032   0.394  14.601
    1TCq1    O513861   1.129   0.418  14.673
    1TCq1    O613862   1.026   0.282  14.541
    1TCq1    H113863   0.573   0.351  14.723
    1TCq1    H213864   0.788   0.333  14.520
    1TCq1    H313865   1.020   0.615  14.723
    1TCq1    H413866   0.585   0.660  14.708
    2MPD2     C13867   0.686   1.178  15.065
    2MPD2    C113868   0.634   1.190  14.938
    2MPD2    C213869   0.655   1.094  14.846
    2MPD2    C313870   0.729   0.981  14.887
    2MPD2    C413871   0.771   0.968  15.014
    2MPD2    C513872   0.756   1.072  15.103
    2MPD2     H13873   0.635   1.106  14.740
    2MPD2    H113874   0.821   0.882  15.057
    2MPD2    H213875   0.672   1.260  15.134
    2MPD2    H313876   0.792   1.062  15.205
    2MPD2     N13877   0.744   0.872  14.797
    2MPD2    H513878   0.693   0.877  14.709
    2MPD2    N113879   0.566   1.311  14.914
    2MPD2    H713880   0.547   1.373  14.992
    3TMC2    C113881   0.448   1.481  14.789
    3TMC2    C213882   0.513   1.585  14.852
    3TMC2    C313883   0.506   1.711  14.799
    3TMC2    C413884   0.371   1.507  14.676
    3TMC2    C513885   0.365   1.637  14.632
    3TMC2    C613886   0.438   1.735  14.683
    3TMC2     C13887   0.508   1.350  14.792
    3TMC2     O13888   0.491   1.285  14.690
    3TMC2     H13889   0.575   1.563  14.938
    3TMC2    H113890   0.327   1.439  14.604
    3TMC2    H213891   0.428   1.839  14.653
    3TMC2    C713892   0.267   1.678  14.531
    3TMC2    C813893   0.554   1.820  14.871
    3TMC2    O113894   0.162   1.614  14.523
    3TMC2    O213895   0.508   1.932  14.857
    3TMC2    O513896   0.680   1.787  14.927
    3TMC2    H513897   0.718   1.711  14.879
    4TMC2    C113898   0.266   2.508  14.014
    4TMC2    C213899   0.386   2.568  13.997
    4TMC2    C313900   0.496   2.493  14.021
    4TMC2    C413901   0.250   2.384  14.049
    4TMC2    C513902   0.366   2.305  14.055
    4TMC2    C613903   0.489   2.357  14.037
    4TMC2     C13904   0.151   2.593  14.054
    4TMC2     O13905   0.172   2.687  14.135
    4TMC2     H13906   0.389   2.676  13.984
    4TMC2    H113907   0.152   2.348  14.076
    4TMC2    H213908   0.577   2.299  14.060
    4TMC2    C713909   0.356   2.171  14.123
    4TMC2    C813910   0.625   2.555  14.009
    4TMC2    O113911   0.460   2.138  14.180
    4TMC2    O213912   0.641   2.670  13.963
    4TMC2    O513913   0.711   2.495  14.091
    4TMC2    H513914   0.668   2.433  14.153
    5MPD2     C13915   4.436   2.601  14.127
    5MPD2    C113916   4.457   2.552  13.999
    5MPD2    C213917   4.591   2.534  13.957
    5MPD2    C313918   4.694   2.573  14.036
    5MPD2    C413919   4.669   2.630  14.163
    5MPD2    C513920   4.547   2.631  14.208
    5MPD2     H13921   4.602   2.479  13.864
    5MPD2    H113922   4.741   2.673  14.231
    5MPD2    H213923   4.336   2.608  14.167
    5MPD2    H313924   4.525   2.654  14.312
    5MPD2     N13925   0.039   2.553  13.993
    5MPD2    H513926   0.035   2.476  13.927
    5MPD2    N113927   4.344   2.516  13.922
    5MPD2    H713928   4.259   2.501  13.975
    6MPD1     C13929   3.363   3.903  13.780
    6MPD1    C113930   3.473   3.901  13.694
    6MPD1    C213931   3.557   3.793  13.689
    6MPD1    C313932   3.511   3.677  13.748
    6MPD1    C413933   3.397   3.675  13.824
    6MPD1    C513934   3.324   3.787  13.834
    6MPD1     H13935   3.654   3.809  13.643
    6MPD1    H113936   3.353   3.580  13.851
    6MPD1    H213937   3.301   3.991  13.781
    6MPD1    H313938   3.233   3.796  13.892
    6MPD1     N13939   3.593   3.559  13.749
    6MPD1    H513940   3.557   3.481  13.804
    6MPD1    N113941   3.516   4.026  13.645
    6MPD1    H613942   3.438   4.090  13.628
    6MPD1    H713943   3.553   4.009  13.552
    7MPD2     C13944   3.658   2.924  13.713
    7MPD2    C113945   3.758   2.897  13.794
    7MPD2    C213946   3.784   2.763  13.820
    7MPD2    C313947   3.749   2.662  13.730
    7MPD2    C413948   3.654   2.694  13.632
    7MPD2    C513949   3.607   2.823  13.625
    7MPD2     H13950   3.854   2.743  13.900
    7MPD2    H113951   3.618   2.617  13.565
    7MPD2    H213952   3.614   3.023  13.699
    7MPD2    H313953   3.530   2.849  13.553
    7MPD2     N13954   3.797   2.530  13.736
    7MPD2    H513955   3.778   2.470  13.656
    7MPD2    N113956   3.794   2.990  13.901
    7MPD2    H713957   3.835   2.952  13.986
    8TMC3    C113958   3.995   2.417  13.753
    8TMC3    C213959   4.118   2.419  13.812
    8TMC3    C313960   4.232   2.436  13.734
    8TMC3    C413961   3.983   2.424  13.613
    8TMC3    C513962   4.098   2.438  13.542
    8TMC3    C613963   4.222   2.452  13.597
    8TMC3     C13964   3.899   2.496  13.823
    8TMC3     O13965   3.944   2.539  13.924
    8TMC3     H13966   4.123   2.411  13.920
    8TMC3    H113967   3.885   2.400  13.573
    8TMC3    H213968   4.304   2.483  13.533
    8TMC3    C713969   4.079   2.546  13.451
    8TMC3    C813970   4.348   2.494  13.785
    8TMC3    O113971   4.167   2.633  13.456
    8TMC3    O213972   4.439   2.514  13.710
    9TMC3    C113973   3.742   3.395  13.656
    9TMC3    C213974   3.823   3.349  13.547
    9TMC3    C313975   3.878   3.223  13.559
    9TMC3    C413976   3.719   3.317  13.765
    9TMC3    C513977   3.787   3.198  13.771
    9TMC3    C613978   3.866   3.155  13.674
    9TMC3     C13979   3.692   3.530  13.659
    9TMC3     O13980   3.742   3.598  13.570
    9TMC3     H13981   3.837   3.420  13.467
    9TMC3    H113982   3.653   3.339  13.848
    9TMC3    H213983   3.914   3.058  13.680
    9TMC3    C713984   3.777   3.123  13.900
    9TMC3    C813985   3.841   3.140  13.445
    9TMC3    O113986   3.776   3.198  13.996
    9TMC3    O213987   3.753   3.174  13.363
   10MPD2     C13988   3.780   2.657  13.272
   10MPD2    C113989   3.889   2.660  13.353
   10MPD2    C213990   3.930   2.785  13.395
   10MPD2    C313991   3.873   2.904  13.364
   10MPD2    C413992   3.755   2.893  13.293
   10MPD2    C513993   3.712   2.772  13.244
   10MPD2     H13994   4.008   2.795  13.470
   10MPD2    H113995   3.697   2.978  13.260
   10MPD2    H213996   3.739   2.561  13.243
   10MPD2    H313997   3.618   2.769  13.189
   10MPD2     N13998   3.910   3.022  13.440
   10MPD2    H513999   3.980   3.009  13.513
   10MPD2    N114000   3.956   2.547  13.395
   10MPD2    H714001   3.898   2.463  13.389
   11MPD2     C14002   0.112   1.759  14.290
   11MPD2    C114003   0.225   1.818  14.332
   11MPD2    C214004   0.270   1.929  14.257
   11MPD2    C314005   0.207   1.983  14.150
   11MPD2    C414006   0.088   1.930  14.122
   11MPD2    C514007   0.036   1.818  14.190
   11MPD2     H14008   0.362   1.978  14.289
   11MPD2    H114009   0.030   1.983  14.047
   11MPD2    H214010   0.060   1.679  14.341
   11MPD2    H314011   4.717   1.782  14.180
   11MPD2     N14012   0.240   2.102  14.089
   11MPD2    H514013   0.167   2.145  14.035
   11MPD2    N114014   0.299   1.780  14.444
   11MPD2    H714015   0.386   1.831  14.458
    1MPD1     C14016   2.335   2.963  17.438
    1MPD1    C114017   2.394   3.085  17.438
    1MPD1    C214018   2.465   3.133  17.329
    1MPD1    C314019   2.463   3.065  17.210
    1MPD1    C414020   2.391   2.948  17.195
    1MPD1    C514021   2.335   2.900  17.313
    1MPD1     H14022   2.536   3.212  17.352
    1MPD1    H114023   2.391   2.898  17.099
    1MPD1    H214024   2.298   2.915  17.527
    1MPD1    H314025   2.272   2.812  17.306
    1MPD1     N14026   2.525   3.113  17.088
    1MPD1    H514027   2.506   3.057  17.005
    1MPD1    N114028   2.410   3.143  17.565
    1MPD1    H614029   2.346   3.122  17.642
    1MPD1    H714030   2.436   3.241  17.571
    2MPD1     C14031   3.216   3.846  17.032
    2MPD1    C114032   3.102   3.840  17.106
    2MPD1    C214033   3.009   3.741  17.084
    2MPD1    C314034   3.014   3.666  16.968
    2MPD1    C414035   3.117   3.684  16.887
    2MPD1    C514036   3.224   3.760  16.925
    2MPD1     H14037   2.931   3.723  17.157
    2MPD1    H114038   3.128   3.630  16.794
    2MPD1    H214039   3.301   3.909  17.055
    2MPD1    H314040   3.316   3.755  16.868
    2MPD1     N14041   2.912   3.569  16.934
    2MPD1    H514042   2.845   3.558  17.010
    2MPD1    N114043   3.099   3.919  17.220
    2MPD1    H614044   3.161   3.998  17.205
    2MPD1    H714045   3.003   3.950  17.236
    3TMC3    C114046   2.777   3.423  16.827
    3TMC3    C214047   2.715   3.394  16.710
    3TMC3    C314048   2.627   3.289  16.715
    3TMC3    C414049   2.751   3.358  16.946
    3TMC3    C514050   2.655   3.260  16.946
    3TMC3    C614051   2.597   3.220  16.830
    3TMC3     C14052   2.896   3.502  16.814
    3TMC3     O14053   2.953   3.517  16.707
    3TMC3     H14054   2.727   3.460  16.625
    3TMC3    H114055   2.811   3.374  17.035
    3TMC3    H214056   2.521   3.143  16.827
    3TMC3    C714057   2.608   3.221  17.078
    3TMC3    C814058   2.550   3.254  16.596
    3TMC3    O114059   2.631   3.308  17.164
    3TMC3    O214060   2.458   3.177  16.614
    4MPD1     C14061   2.435   3.356  16.114
    4MPD1    C114062   2.557   3.408  16.132
    4MPD1    C214063   2.611   3.389  16.256
    4MPD1    C314064   2.539   3.323  16.357
    4MPD1    C414065   2.418   3.267  16.332
    4MPD1    C514066   2.371   3.284  16.208
    4MPD1     H14067   2.709   3.432  16.272
    4MPD1    H114068   2.357   3.224  16.411
    4MPD1    H214069   2.377   3.367  16.023
    4MPD1    H314070   2.276   3.238  16.183
    4MPD1     N14071   2.597   3.317  16.486
    4MPD1    H514072   2.687   3.362  16.497
    4MPD1    N114073   2.604   3.494  16.037
    4MPD1    H614074   2.705   3.501  16.023
    4MPD1    H714075   2.562   3.485  15.944
    1TCq1    O114076   4.257   2.899  11.775
    1TCq1    C114077   4.167   2.981  11.830
    1TCq1    O214078   4.161   3.014  11.945
    1TCq1    C214079   4.077   3.023  11.722
    1TCq1    C314080   4.048   2.945  11.613
    1TCq1    C414081   3.965   2.990  11.516
    1TCq1    C514082   3.903   3.110  11.528
    1TCq1    C614083   3.923   3.183  11.640
    1TCq1    C714084   4.010   3.143  11.737
    1TCq1    C814085   3.837   3.297  11.677
    1TCq1    O414086   3.851   3.330  11.794
    1TCq1    C914087   3.901   2.896  11.423
    1TCq1    O514088   3.806   2.937  11.353
    1TCq1    O614089   3.942   2.776  11.427
    1TCq1    H114090   4.273   2.900  11.678
    1TCq1    H214091   4.059   2.837  11.615
    1TCq1    H314092   3.829   3.144  11.457
    1TCq1    H414093   4.038   3.204  11.822
    2MPD1     C14094   3.462   3.654  11.627
    2MPD1    C114095   3.464   3.564  11.525
    2MPD1    C214096   3.556   3.464  11.511
    2MPD1    C314097   3.651   3.444  11.610
    2MPD1    C414098   3.643   3.523  11.723
    2MPD1    C514099   3.552   3.628  11.727
    2MPD1     H14100   3.553   3.394  11.428
    2MPD1    H114101   3.711   3.505  11.805
    2MPD1    H214102   3.385   3.729  11.640
    2MPD1    H314103   3.546   3.696  11.811
    2MPD1     N14104   3.751   3.341  11.583
    2MPD1    H514105   3.741   3.302  11.490
    2MPD1    N114106   3.372   3.586  11.419
    2MPD1    H614107   3.373   3.500  11.365
    2MPD1    H714108   3.276   3.596  11.450
    1TCq1    O114109   1.666   4.102  20.140
    1TCq1    C114110   1.702   4.184  20.040
    1TCq1    O214111   1.642   4.287  20.020
    1TCq1    C214112   1.835   4.160  19.980
    1TCq1    C314113   1.883   4.033  19.976
    1TCq1    C414114   1.990   4.008  19.900
    1TCq1    C514115   2.072   4.113  19.865
    1TCq1    C614116   2.015   4.238  19.850
    1TCq1    C714117   1.887   4.260  19.904
    1TCq1    C814118   2.096   4.351  19.803
    1TCq1    O414119   2.211   4.325  19.786
    1TCq1    C914120   2.053   3.882  19.905
    1TCq1    O514121   2.178   3.874  19.899
    1TCq1    O614122   1.981   3.782  19.935
    1TCq1    H114123   1.743   4.048  20.168
    1TCq1    H214124   1.825   3.945  20.002
    1TCq1    H314125   2.169   4.093  19.820
    1TCq1    H414126   1.844   4.359  19.901
    2MPD1     C14127   2.138   0.040  19.603
    2MPD1    C114128   2.015   0.027  19.665
    2MPD1    C214129   1.977   4.689  19.718
    2MPD1    C314130   2.062   4.582  19.715
    2MPD1    C414131   2.183   4.587  19.649
    2MPD1    C514132   2.218   4.710  19.594
    2MPD1     H14133   1.884   4.681  19.772
    2MPD1    H114134   2.244   4.498  19.645
    2MPD1    H214135   2.174   0.136  19.568
    2MPD1    H314136   2.313   4.720  19.543
    2MPD1     N14137   2.020   4.456  19.767
    2MPD1    H514138   1.926   4.449  19.804
    2MPD1    N114139   1.937   0.140  19.686
    2MPD1    H614140   1.949   0.206  19.609
    2MPD1    H714141   1.838   0.114  19.690
    1MPD1     C14142   0.295   2.670  12.654
    1MPD1    C114143   0.377   2.646  12.548
    1MPD1    C214144   0.440   2.756  12.485
    1MPD1    C314145   0.406   2.887  12.520
    1MPD1    C414146   0.337   2.908  12.639
    1MPD1    C514147   0.289   2.799  12.706
    1MPD1     H14148   0.500   2.737  12.396
    1MPD1    H114149   0.341   3.000  12.696
    1MPD1    H214150   0.252   2.585  12.707
    1MPD1    H314151   0.241   2.815  12.801
    1MPD1     N14152   0.470   2.990  12.451
    1MPD1    H514153   0.540   2.963  12.383
    1MPD1    N114154   0.388   2.525  12.492
    1MPD1    H614155   0.374   2.451  12.560
    1MPD1    H714156   0.472   2.508  12.437
    2MPD1     C14157   0.102   3.545  11.929
    2MPD1    C114158   0.066   3.557  11.794
    2MPD1    C214159   0.125   3.471  11.703
    2MPD1    C314160   0.220   3.380  11.747
    2MPD1    C414161   0.259   3.370  11.881
    2MPD1    C514162   0.198   3.453  11.972
    2MPD1     H14163   0.097   3.467  11.599
    2MPD1    H114164   0.326   3.292  11.914
    2MPD1    H214165   0.067   3.621  11.997
    2MPD1    H314166   0.225   3.445  12.076
    2MPD1     N14167   0.275   3.282  11.655
    2MPD1    H514168   0.348   3.227  11.698
    2MPD1    N114169   4.773   3.666  11.751
    2MPD1    H614170   4.725   3.650  11.662
    2MPD1    H714171   4.702   3.699  11.817
    3MPD1     C14172   4.754   2.898  10.794
    3MPD1    C114173   4.741   2.810  10.900
    3MPD1    C214174   0.047   2.820  11.008
    3MPD1    C314175   0.156   2.906  11.007
    3MPD1    C414176   0.171   2.979  10.891
    3MPD1    C514177   0.090   2.971  10.780
    3MPD1     H14178   0.034   2.764  11.100
    3MPD1    H114179   0.255   3.046  10.879
    3MPD1    H214180   4.676   2.894  10.719
    3MPD1    H314181   0.085   3.049  10.706
    3MPD1     N14182   0.223   2.942  11.127
    3MPD1    H514183   0.193   2.916  11.221
    3MPD1    N114184   4.618   2.741  10.918
    3MPD1    H614185   4.627   2.662  10.981
    3MPD1    H714186   4.577   2.705  10.832
    4MPD2     C14187   0.604   3.491  11.920
    4MPD2    C114188   0.693   3.540  12.017
    4MPD2    C214189   0.813   3.591  11.971
    4MPD2    C314190   0.864   3.541  11.852
    4MPD2    C414191   0.776   3.490  11.764
    4MPD2    C514192   0.643   3.469  11.790
    4MPD2     H14193   0.874   3.641  12.046
    4MPD2    H114194   0.804   3.459  11.664
    4MPD2    H214195   0.507   3.450  11.946
    4MPD2    H314196   0.580   3.421  11.715
    4MPD2     N14197   0.989   3.558  11.809
    4MPD2    H514198   1.021   3.504  11.729
    4MPD2    N114199   0.666   3.535  12.157
    4MPD2    H714200   0.739   3.573  12.218
    5TMC3    C114201   0.597   3.432  12.353
    5TMC3    C214202   0.511   3.336  12.390
    5TMC3    C314203   0.548   3.208  12.416
    5TMC3    C414204   0.732   3.405  12.356
    5TMC3    C514205   0.777   3.276  12.385
    5TMC3    C614206   0.684   3.174  12.399
    5TMC3     C14207   0.561   3.477  12.219
    5TMC3     O14208   0.456   3.432  12.177
    5TMC3     H14209   0.405   3.354  12.403
    5TMC3    H114210   0.805   3.485  12.357
    5TMC3    H214211   0.707   3.076  12.438
    5TMC3    C714212   0.911   3.244  12.336
    5TMC3    C814213   0.444   3.125  12.472
    5TMC3    O114214   0.990   3.338  12.316
    5TMC3    O214215   0.362   3.183  12.542
    6TMC3    C114216   0.342   3.187  11.451
    6TMC3    C214217   0.296   3.118  11.345
    6TMC3    C314218   0.383   3.068  11.256
    6TMC3    C414219   0.471   3.219  11.471
    6TMC3    C514220   0.557   3.165  11.379
    6TMC3    C614221   0.518   3.082  11.281
    6TMC3     C14222   0.246   3.269  11.517
    6TMC3     O14223   0.145   3.299  11.458
    6TMC3     H14224   0.190   3.109  11.327
    6TMC3    H114225   0.508   3.292  11.543
    6TMC3    H214226   0.581   3.038  11.205
    6TMC3    C714227   0.696   3.184  11.405
    6TMC3    C814228   0.339   3.020  11.132
    6TMC3    O114229   0.731   3.299  11.435
    6TMC3    O214230   0.421   3.048  11.046
    7MPD2     C14231   1.186   2.950  12.015
    7MPD2    C114232   1.201   3.090  12.045
    7MPD2    C214233   1.116   3.144  12.136
    7MPD2    C314234   1.015   3.067  12.198
    7MPD2    C414235   1.013   2.929  12.173
    7MPD2    C514236   1.095   2.870  12.086
    7MPD2     H14237   1.128   3.249  12.160
    7MPD2    H114238   0.928   2.867  12.201
    7MPD2    H214239   1.248   2.894  11.946
    7MPD2    H314240   1.086   2.766  12.056
    7MPD2     N14241   0.910   3.119  12.281
    7MPD2    H514242   0.855   3.045  12.324
    7MPD2    N114243   1.300   3.160  11.974
    7MPD2    H714244   1.343   3.111  11.896
    8TMC3    C114245   1.334   3.377  11.897
    8TMC3    C214246   1.341   3.327  11.768
    8TMC3    C314247   1.274   3.405  11.674
    8TMC3    C414248   1.289   3.505  11.929
    8TMC3    C514249   1.225   3.578  11.831
    8TMC3    C614250   1.223   3.527  11.708
    8TMC3     C14251   1.336   3.290  12.015
    8TMC3     O14252   1.342   3.335  12.129
    8TMC3     H14253   1.393   3.233  11.750
    8TMC3    H114254   1.263   3.523  12.033
    8TMC3    H214255   1.180   3.591  11.631
    8TMC3    C714256   1.089   3.618  11.878
    8TMC3    C814257   1.175   3.332  11.602
    8TMC3    O114258   1.087   3.679  11.986
    8TMC3    O214259   1.089   3.411  11.569
    9MPD2     C14260   1.133   2.969  11.550
    9MPD2    C114261   1.100   3.103  11.540
    9MPD2    C214262   0.983   3.141  11.477
    9MPD2    C314263   0.893   3.044  11.442
    9MPD2    C414264   0.930   2.912  11.443
    9MPD2    C514265   1.050   2.877  11.501
    9MPD2     H14266   0.947   3.243  11.468
    9MPD2    H114267   0.866   2.832  11.407
    9MPD2    H214268   1.225   2.931  11.594
    9MPD2    H314269   1.084   2.775  11.497
    9MPD2     N14270   0.759   3.069  11.402
    9MPD2    H514271   0.711   2.982  11.378
    9MPD2    N114272   1.194   3.198  11.598
    9MPD2    H714273   1.280   3.152  11.628
    1MPD1     C14274   0.765   2.271  17.151
    1MPD1    C114275   0.787   2.286  17.015
    1MPD1    C214276   0.726   2.202  16.917
    1MPD1    C314277   0.635   2.109  16.962
    1MPD1    C414278   0.613   2.096  17.102
    1MPD1    C514279   0.676   2.181  17.192
    1MPD1     H14280   0.754   2.208  16.813
    1MPD1    H114281   0.546   2.028  17.155
    1MPD1    H214282   0.818   2.326  17.228
    1MPD1    H314283   0.652   2.175  17.298
    1MPD1     N14284   0.560   2.018  16.878
    1MPD1    H514285   0.514   1.942  16.926
    1MPD1    N114286   0.898   2.361  16.973
    1MPD1    H614287   0.904   2.448  17.026
    1MPD1    H714288   0.889   2.393  16.877
    2TMC2    C114289   0.444   1.740  16.517
    2TMC2    C214290   0.351   1.677  16.587
    2TMC2    C314291   0.324   1.727  16.706
    2TMC2    C414292   0.516   1.851  16.564
    2TMC2    C514293   0.483   1.899  16.688
    2TMC2    C614294   0.383   1.838  16.764
    2TMC2     C14295   0.470   1.699  16.378
    2TMC2     O14296   0.461   1.580  16.358
    2TMC2     H14297   0.293   1.593  16.549
    2TMC2    H114298   0.597   1.891  16.504
    2TMC2    H214299   0.368   1.869  16.866
    2TMC2    C714300   0.554   2.015  16.739
    2TMC2    C814301   0.223   1.649  16.778
    2TMC2    O114302   0.614   2.089  16.661
    2TMC2    O214303   0.222   1.528  16.763
    2TMC2    O514304   0.137   1.731  16.845
    2TMC2    H514305   0.138   1.817  16.799
    3MPD1     C14306   0.533   1.759  15.890
    3MPD1    C114307   0.491   1.880  15.936
    3MPD1    C214308   0.459   1.891  16.072
    3MPD1    C314309   0.501   1.785  16.155
    3MPD1    C414310   0.546   1.667  16.103
    3MPD1    C514311   0.566   1.659  15.969
    3MPD1     H14312   0.418   1.986  16.102
    3MPD1    H114313   0.579   1.580  16.158
    3MPD1    H214314   0.542   1.735  15.785
    3MPD1    H314315   0.585   1.557  15.935
    3MPD1     N14316   0.480   1.802  16.294
    3MPD1    H514317   0.464   1.896  16.331
    3MPD1    N114318   0.441   1.976  15.841
    3MPD1    H614319   0.447   2.071  15.876
    3MPD1    H714320   0.496   1.977  15.755
    1TCq1    O114321   3.095   0.994  13.280
    1TCq1    C114322   3.083   0.885  13.364
    1TCq1    O214323   2.998   0.798  13.365
    1TCq1    C214324   3.156   0.918  13.487
    1TCq1    C314325   3.100   0.880  13.603
    1TCq1    C414326   3.182   0.856  13.706
    1TCq1    C514327   3.316   0.884  13.706
    1TCq1    C614328   3.369   0.922  13.585
    1TCq1    C714329   3.290   0.936  13.477
    1TCq1    C814330   3.519   0.937  13.563
    1TCq1    O414331   3.565   0.951  13.453
    1TCq1    C914332   3.121   0.802  13.829
    1TCq1    O514333   3.198   0.794  13.928
    1TCq1    O614334   3.006   0.759  13.815
    1TCq1    H114335   3.163   1.062  13.300
    1TCq1    H214336   2.994   0.859  13.611
    1TCq1    H314337   3.377   0.868  13.794
    1TCq1    H414338   3.333   0.974  13.385
    2MPD2     C14339   3.785   1.047  13.594
    2MPD2    C114340   3.724   0.973  13.695
    2MPD2    C214341   3.785   0.953  13.817
    2MPD2    C314342   3.908   1.010  13.844
    2MPD2    C414343   3.963   1.092  13.747
    2MPD2    C514344   3.906   1.103  13.623
    2MPD2     H14345   3.736   0.889  13.890
    2MPD2    H114346   4.056   1.145  13.763
    2MPD2    H214347   3.752   1.076  13.495
    2MPD2    H314348   3.966   1.155  13.550
    2MPD2     N14349   3.978   0.977  13.962
    2MPD2    H514350   3.949   0.892  14.009
    2MPD2    N114351   3.588   0.941  13.690
    2MPD2    H714352   3.551   0.877  13.759
    3TCq1    O114353   4.438   1.243  14.237
    3TCq1    C114354   4.455   1.112  14.250
    3TCq1    O214355   4.536   1.045  14.185
    3TCq1    C214356   4.323   1.056  14.282
    3TCq1    C314357   4.332   0.928  14.310
    3TCq1    C414358   4.243   0.835  14.261
    3TCq1    C514359   4.138   0.874  14.175
    3TCq1    C614360   4.141   1.010  14.143
    3TCq1    C714361   4.225   1.104  14.202
    3TCq1    C814362   4.086   1.049  14.011
    3TCq1    O414363   4.136   1.153  13.967
    3TCq1    C914364   4.265   0.694  14.290
    3TCq1    O514365   4.226   0.613  14.200
    3TCq1    O614366   4.333   0.667  14.393
    3TCq1    H114367   4.368   1.281  14.295
    3TCq1    H214368   4.412   0.890  14.373
    3TCq1    H314369   4.069   0.801  14.134
    3TCq1    H414370   4.221   1.209  14.179
    1MPD2     C14371   2.992   2.221  15.157
    1MPD2    C114372   2.924   2.095  15.151
    1MPD2    C214373   2.989   1.988  15.101
    1MPD2    C314374   3.119   1.998  15.057
    1MPD2    C414375   3.188   2.114  15.071
    1MPD2    C514376   3.125   2.223  15.127
    1MPD2     H14377   2.945   1.889  15.091
    1MPD2    H114378   3.291   2.123  15.038
    1MPD2    H214379   2.949   2.306  15.209
    1MPD2    H314380   3.187   2.309  15.150
    1MPD2     N14381   3.193   1.885  15.012
    1MPD2    H514382   3.294   1.896  15.005
    1MPD2    N114383   2.790   2.082  15.208
    1MPD2    H714384   2.757   2.173  15.239
    2TMC3    C114385   2.575   1.974  15.231
    2TMC3    C214386   2.519   1.850  15.229
    2TMC3    C314387   2.418   1.826  15.139
    2TMC3    C414388   2.528   2.082  15.160
    2TMC3    C514389   2.431   2.048  15.067
    2TMC3    C614390   2.375   1.924  15.060
    2TMC3     C14391   2.723   1.963  15.224
    2TMC3     O14392   2.752   1.846  15.207
    2TMC3     H14393   2.560   1.774  15.294
    2TMC3    H114394   2.573   2.180  15.175
    2TMC3    H214395   2.307   1.907  14.978
    2TMC3    C714396   2.393   2.142  14.965
    2TMC3    C814397   2.432   1.696  15.080
    2TMC3    O114398   2.303   2.111  14.891
    2TMC3    O214399   2.333   1.648  15.026
    3TCq1    O114400   2.937   3.189  14.629
    3TCq1    C114401   3.031   3.141  14.710
    3TCq1    O214402   3.136   3.196  14.743
    3TCq1    C214403   2.973   3.019  14.776
    3TCq1    C314404   3.041   2.977  14.885
    3TCq1    C414405   2.995   2.868  14.957
    3TCq1    C514406   2.890   2.793  14.903
    3TCq1    C614407   2.836   2.829  14.779
    3TCq1    C714408   2.870   2.947  14.718
    3TCq1    C814409   2.718   2.758  14.723
    3TCq1    O414410   2.642   2.816  14.648
    3TCq1    C914411   3.050   2.830  15.086
    3TCq1    O514412   3.134   2.911  15.138
    3TCq1    O614413   3.013   2.725  15.136
    3TCq1    H114414   2.861   3.130  14.608
    3TCq1    H214415   3.123   3.031  14.930
    3TCq1    H314416   2.845   2.723  14.973
    3TCq1    H414417   2.826   2.974  14.623
    4MPD2     C14418   2.493   2.563  14.680
    4MPD2    C114419   2.593   2.547  14.772
    4MPD2    C214420   2.584   2.438  14.860
    4MPD2    C314421   2.485   2.344  14.851
    4MPD2    C414422   2.384   2.370  14.759
    4MPD2    C514423   2.391   2.476  14.673
    4MPD2     H14424   2.657   2.428  14.939
    4MPD2    H114425   2.296   2.308  14.754
    4MPD2    H214426   2.496   2.641  14.604
    4MPD2    H314427   2.320   2.493  14.594
    4MPD2     N14428   2.481   2.239  14.949
    4MPD2    H514429   2.563   2.235  15.010
    4MPD2    N114430   2.705   2.635  14.782
    4MPD2    H714431   2.775   2.610  14.851
    5MPD2     C14432   2.542   1.443  14.967
    5MPD2    C114433   2.613   1.527  15.045
    5MPD2    C214434   2.745   1.505  15.061
    5MPD2    C314435   2.808   1.393  15.002
    5MPD2    C414436   2.736   1.313  14.917
    5MPD2    C514437   2.601   1.340  14.903
    5MPD2     H14438   2.802   1.576  15.118
    5MPD2    H114439   2.779   1.232  14.860
    5MPD2    H214440   2.441   1.468  14.938
    5MPD2    H314441   2.548   1.284  14.827
    5MPD2     N14442   2.947   1.369  15.020
    5MPD2    H514443   3.001   1.335  14.941
    5MPD2    N114444   2.562   1.648  15.102
    5MPD2    H714445   2.626   1.699  15.162
    6TCq2    C114446   3.019   1.435  15.113
    6TCq2    O214447   2.991   1.452  15.233
    6TCq2    C214448   3.155   1.458  15.071
    6TCq2    C314449   3.242   1.469  15.176
    6TCq2    C414450   3.330   1.573  15.165
    6TCq2    C514451   3.320   1.667  15.064
    6TCq2    C614452   3.222   1.658  14.972
    6TCq2    C714453   3.149   1.548  14.966
    6TCq2    C814454   3.133   1.773  14.960
    6TCq2    O414455   3.023   1.751  14.913
    6TCq2    C914456   3.429   1.604  15.263
    6TCq2    O514457   3.536   1.658  15.226
    6TCq2    O614458   3.399   1.574  15.383
    6TCq2    H214459   3.237   1.411  15.267
    6TCq2    H314460   3.375   1.759  15.084
    6TCq2    H414461   3.075   1.532  14.889
  945SOL     OW14462   2.312   3.649  19.924
  945SOL    HW114463   2.359   3.648  19.840
  945SOL    HW214464   2.256   3.726  19.919
  946SOL     OW14465   1.217   3.445   4.127
  946SOL    HW114466   1.226   3.352   4.143
  946SOL    HW214467   1.297   3.484   4.162
  947SOL     OW14468   0.768   0.498  23.375
  947SOL    HW114469   0.774   0.409  23.340
  947SOL    HW214470   0.744   0.552  23.299
  948SOL     OW14471   0.077   1.183  28.505
  948SOL    HW114472   0.026   1.104  28.522
  948SOL    HW214473   0.064   1.237   0.052
  949SOL     OW14474   0.334   2.802  21.088
  949SOL    HW114475   0.275   2.736  21.125
  949SOL    HW214476   0.287   2.835  21.011
  950SOL     OW14477   3.714   1.988   8.686
  950SOL    HW114478   3.695   2.026   8.600
  950SOL    HW214479   3.809   1.974   8.686
  951SOL     OW14480   3.285   4.089  21.448
  951SOL    HW114481   3.318   4.000  21.454
  951SOL    HW214482   3.290   4.122  21.538
  952SOL     OW14483   0.783   3.241  10.741
  952SOL    HW114484   0.701   3.246  10.791
  952SOL    HW214485   0.757   3.203  10.657
  953SOL     OW14486   4.381   0.011   2.194
  953SOL    HW114487   4.296   0.033   2.155
  953SOL    HW214488   4.362   0.001   2.288
  954SOL     OW14489   2.012   2.883  26.866
  954SOL    HW114490   2.003   2.817  26.798
  954SOL    HW214491   2.005   2.967  26.819
  955SOL     OW14492   0.559   3.745   5.383
  955SOL    HW114493   0.629   3.809   5.394
  955SOL    HW214494   0.570   3.712   5.294
  956SOL     OW14495   0.343   0.514   0.408
  956SOL    HW114496   0.279   0.446   0.432
  956SOL    HW214497   0.416   0.466   0.369
  957SOL     OW14498   2.619   1.839  22.069
  957SOL    HW114499   2.677   1.762  22.070
  957SOL    HW214500   2.566   1.830  22.149
  958SOL     OW14501   3.711   2.901   7.708
  958SOL    HW114502   3.641   2.885   7.771
  958SOL    HW214503   3.736   2.992   7.723
  959SOL     OW14504   0.367   3.046   4.401
  959SOL    HW114505   0.381   2.952   4.414
  959SOL    HW214506   0.315   3.073   4.476
  960SOL     OW14507   1.219   1.680  20.972
  960SOL    HW114508   1.258   1.751  20.920
  960SOL    HW214509   1.167   1.724  21.039
  961SOL     OW14510   0.094   1.975   2.207
  961SOL    HW114511   0.077   1.905   2.144
  961SOL    HW214512   0.031   2.044   2.185
  962SOL     OW14513   1.638   0.565   4.591
  962SOL    HW114514   1.690   0.567   4.511
  962SOL    HW214515   1.696   0.524   4.656
  963SOL     OW14516   0.111   3.419   1.860
  963SOL    HW114517   0.145   3.503   1.890
  963SOL    HW214518   0.028   3.440   1.818
  964SOL     OW14519   4.319   0.975  28.478
  964SOL    HW114520   4.374   1.053  28.494
  964SOL    HW214521   4.364   0.929  28.407
  965SOL     OW14522   3.969   1.045   3.001
  965SOL    HW114523   4.002   0.976   2.944
  965SOL    HW214524   3.935   1.111   2.941
  966SOL     OW14525   2.849   3.513  21.590
  966SOL    HW114526   2.834   3.539  21.681
  966SOL    HW214527   2.773   3.548  21.543
  967SOL     OW14528   3.362   3.293   2.857
  967SOL    HW114529   3.369   3.366   2.918
  967SOL    HW214530   3.449   3.254   2.855
  968SOL     OW14531   4.164   0.590  27.660
  968SOL    HW114532   4.246   0.600  27.613
  968SOL    HW214533   4.172   0.649  27.735
  969SOL     OW14534   4.696   3.673   1.103
  969SOL    HW114535   4.655   3.759   1.105
  969SOL    HW214536   4.623   3.612   1.104
  970SOL     OW14537   3.014   1.387  22.660
  970SOL    HW114538   3.013   1.473  22.703
  970SOL    HW214539   3.089   1.341  22.699
  971SOL     OW14540   4.764   2.458   1.237
  971SOL    HW114541   0.043   2.407   1.290
  971SOL    HW214542   4.720   2.393   1.183
  972SOL     OW14543   0.380   1.981  21.026
  972SOL    HW114544   0.362   1.893  21.060
  972SOL    HW214545   0.300   2.031  21.044
  973SOL     OW14546   3.965   0.712   1.967
  973SOL    HW114547   3.997   0.741   1.882
  973SOL    HW214548   3.961   0.617   1.960
  974SOL     OW14549   2.109   0.158  25.578
  974SOL    HW114550   2.167   0.099  25.627
  974SOL    HW214551   2.055   0.199  25.645
  975SOL     OW14552   3.614   2.640  27.427
  975SOL    HW114553   3.555   2.645  27.503
  975SOL    HW214554   3.701   2.628  27.466
  976SOL     OW14555   3.041   2.511  21.537
  976SOL    HW114556   3.012   2.533  21.448
  976SOL    HW214557   3.097   2.435  21.526
  977SOL     OW14558   0.872   2.443  28.036
  977SOL    HW114559   0.890   2.350  28.032
  977SOL    HW214560   0.839   2.458  28.124
  978SOL     OW14561   0.483   0.095   8.969
  978SOL    HW114562   0.544   0.168   8.959
  978SOL    HW214563   0.401   0.128   8.934
  979SOL     OW14564   1.077   3.052  26.454
  979SOL    HW114565   1.172   3.049  26.438
  979SOL    HW214566   1.058   3.144  26.470
  980SOL     OW14567   3.436   4.502  25.912
  980SOL    HW114568   3.503   4.467  25.853
  980SOL    HW214569   3.480   4.573  25.959
  981SOL     OW14570   1.833   3.100  20.800
  981SOL    HW114571   1.792   3.037  20.859
  981SOL    HW214572   1.927   3.078  20.804
  982SOL     OW14573   1.425   1.539   8.941
  982SOL    HW114574   1.402   1.625   8.906
  982SOL    HW214575   1.455   1.556   9.030
  983SOL     OW14576   1.775   3.624  26.263
  983SOL    HW114577   1.692   3.671  26.267
  983SOL    HW214578   1.764   3.562  26.191
  984SOL     OW14579   3.969   1.597  18.698
  984SOL    HW114580   4.038   1.624  18.759
  984SOL    HW214581   3.887   1.622  18.741
  985SOL     OW14582   0.848   4.714  21.462
  985SOL    HW114583   0.887   4.639  21.418
  985SOL    HW214584   0.757   4.714  21.432
  986SOL     OW14585   0.362   3.142  24.894
  986SOL    HW114586   0.445   3.139  24.941
  986SOL    HW214587   0.354   3.233  24.866
  987SOL     OW14588   4.632   4.716   8.955
  987SOL    HW114589   4.625   4.633   9.003
  987SOL    HW214590   4.647   4.782   9.023
  988SOL     OW14591   1.904   1.758   5.291
  988SOL    HW114592   1.824   1.783   5.336
  988SOL    HW214593   1.934   1.679   5.336
  989SOL     OW14594   4.120   2.361  27.468
  989SOL    HW114595   4.030   2.375  27.441
  989SOL    HW214596   4.130   2.266  27.471
  990SOL     OW14597   3.828   3.594  22.180
  990SOL    HW114598   3.920   3.569  22.178
  990SOL    HW214599   3.793   3.554  22.260
  991SOL     OW14600   2.935   0.824  18.317
  991SOL    HW114601   3.022   0.826  18.359
  991SOL    HW214602   2.880   0.778  18.380
  992SOL     OW14603   3.770   1.519   1.763
  992SOL    HW114604   3.751   1.565   1.844
  992SOL    HW214605   3.728   1.572   1.695
  993SOL     OW14606   0.799   2.647  28.471
  993SOL    HW114607   0.719   2.696  28.487
  993SOL    HW214608   0.847   2.651   0.023
  994SOL     OW14609   1.661   2.892  20.576
  994SOL    HW114610   1.741   2.839  20.567
  994SOL    HW214611   1.667   2.929  20.665
  995SOL     OW14612   0.226   1.276   4.610
  995SOL    HW114613   0.216   1.193   4.656
  995SOL    HW214614   0.261   1.251   4.524
  996SOL     OW14615   0.032   4.653   1.553
  996SOL    HW114616   4.733   4.637   1.507
  996SOL    HW214617   0.079   4.716   1.498
  997SOL     OW14618   2.240   1.102  23.814
  997SOL    HW114619   2.198   1.186  23.796
  997SOL    HW214620   2.168   1.039  23.815
  998SOL     OW14621   2.041   3.333  27.540
  998SOL    HW114622   2.119   3.372  27.579
  998SOL    HW214623   1.994   3.407  27.502
  999SOL     OW14624   1.749   2.798  10.020
  999SOL    HW114625   1.758   2.748   9.939
  999SOL    HW214626   1.666   2.844  10.011
 1000SOL     OW14627   1.160   2.733   7.104
 1000SOL    HW114628   1.169   2.745   7.198
 1000SOL    HW214629   1.100   2.803   7.077
 1001SOL     OW14630   2.159   0.361  23.780
 1001SOL    HW114631   2.204   0.283  23.748
 1001SOL    HW214632   2.147   0.346  23.874
 1002SOL     OW14633   0.975   1.844   4.597
 1002SOL    HW114634   0.993   1.827   4.690
 1002SOL    HW214635   0.880   1.850   4.591
 1003SOL     OW14636   3.955   4.776   7.083
 1003SOL    HW114637   3.912   0.005   7.167
 1003SOL    HW214638   3.960   4.681   7.072
 1004SOL     OW14639   4.239   4.660  25.282
 1004SOL    HW114640   4.156   4.669  25.235
 1004SOL    HW214641   4.225   4.709  25.363
 1005SOL     OW14642   0.915   0.088   8.410
 1005SOL    HW114643   0.861   0.045   8.476
 1005SOL    HW214644   0.996   0.037   8.407
 1006SOL     OW14645   3.962   4.307   7.822
 1006SOL    HW114646   3.956   4.220   7.784
 1006SOL    HW214647   3.904   4.361   7.769
 1007SOL     OW14648   1.436   0.062  27.510
 1007SOL    HW114649   1.480   0.062  27.595
 1007SOL    HW214650   1.349   0.027  27.528
 1008SOL     OW14651   3.963   0.698  21.174
 1008SOL    HW114652   3.910   0.741  21.107
 1008SOL    HW214653   3.924   0.611  21.184
 1009SOL     OW14654   3.149   0.216   3.249
 1009SOL    HW114655   3.164   0.311   3.247
 1009SOL    HW214656   3.237   0.178   3.251
 1010SOL     OW14657   0.643   2.346   3.765
 1010SOL    HW114658   0.713   2.283   3.785
 1010SOL    HW214659   0.684   2.409   3.706
 1011SOL     OW14660   1.255   0.182   8.716
 1011SOL    HW114661   1.201   0.104   8.731
 1011SOL    HW214662   1.307   0.190   8.796
 1012SOL     OW14663   0.537   2.185  10.175
 1012SOL    HW114664   0.608   2.136  10.134
 1012SOL    HW214665   0.575   2.271  10.194
 1013SOL     OW14666   1.722   3.386  25.405
 1013SOL    HW114667   1.754   3.300  25.431
 1013SOL    HW214668   1.715   3.435  25.488
 1014SOL     OW14669   1.198   0.276  28.175
 1014SOL    HW114670   1.139   0.288  28.101
 1014SOL    HW214671   1.141   0.275  28.252
 1015SOL     OW14672   1.779   4.433  25.386
 1015SOL    HW114673   1.774   4.357  25.328
 1015SOL    HW214674   1.771   4.508  25.328
 1016SOL     OW14675   2.215   4.143   2.391
 1016SOL    HW114676   2.250   4.103   2.471
 1016SOL    HW214677   2.149   4.205   2.422
 1017SOL     OW14678   0.312   0.462   4.735
 1017SOL    HW114679   0.396   0.430   4.767
 1017SOL    HW214680   0.283   0.523   4.802
 1018SOL     OW14681   2.623   1.068  17.923
 1018SOL    HW114682   2.554   1.134  17.914
 1018SOL    HW214683   2.606   1.026  18.007
 1019SOL     OW14684   1.246   0.506   5.168
 1019SOL    HW114685   1.273   0.511   5.076
 1019SOL    HW214686   1.170   0.563   5.173
 1020SOL     OW14687   0.286   1.713  18.103
 1020SOL    HW114688   0.356   1.654  18.132
 1020SOL    HW214689   0.298   1.721  18.009
 1021SOL     OW14690   2.720   2.535   8.420
 1021SOL    HW114691   2.735   2.505   8.509
 1021SOL    HW214692   2.626   2.557   8.417
 1022SOL     OW14693   4.398   2.463  27.530
 1022SOL    HW114694   4.451   2.396  27.487
 1022SOL    HW214695   4.310   2.451  27.494
 1023SOL     OW14696   3.600   0.768   2.635
 1023SOL    HW114697   3.610   0.832   2.565
 1023SOL    HW214698   3.685   0.765   2.678
 1024SOL     OW14699   3.892   0.655  21.618
 1024SOL    HW114700   3.918   0.746  21.604
 1024SOL    HW214701   3.876   0.648  21.712
 1025SOL     OW14702   2.079   2.562   3.336
 1025SOL    HW114703   2.139   2.580   3.408
 1025SOL    HW214704   2.132   2.516   3.271
 1026SOL     OW14705   0.903   1.946   1.972
 1026SOL    HW114706   0.929   1.896   2.049
 1026SOL    HW214707   0.876   2.032   2.007
 1027SOL     OW14708   0.411   3.934  20.061
 1027SOL    HW114709   0.317   3.918  20.058
 1027SOL    HW214710   0.433   3.963  19.973
 1028SOL     OW14711   1.027   1.106   4.282
 1028SOL    HW114712   1.071   1.152   4.211
 1028SOL    HW214713   1.087   1.111   4.356
 1029SOL     OW14714   1.657   3.533   6.932
 1029SOL    HW114715   1.653   3.467   6.863
 1029SOL    HW214716   1.736   3.513   6.981
 1030SOL     OW14717   0.031   2.728   1.132
 1030SOL    HW114718   4.760   2.649   1.138
 1030SOL    HW214719   0.086   2.726   1.210
 1031SOL     OW14720   3.105   3.657   6.468
 1031SOL    HW114721   3.015   3.675   6.495
 1031SOL    HW214722   3.128   3.575   6.511
 1032SOL     OW14723   3.545   0.842   8.883
 1032SOL    HW114724   3.510   0.784   8.951
 1032SOL    HW214725   3.640   0.841   8.897
 1033SOL     OW14726   2.067   4.457  28.042
 1033SOL    HW114727   2.161   4.452  28.022
 1033SOL    HW214728   2.035   4.527  27.985
 1034SOL     OW14729   4.340   1.864   1.751
 1034SOL    HW114730   4.275   1.933   1.760
 1034SOL    HW214731   4.394   1.890   1.676
 1035SOL     OW14732   1.696   2.536  11.683
 1035SOL    HW114733   1.601   2.545  11.688
 1035SOL    HW214734   1.714   2.446  11.709
 1036SOL     OW14735   3.567   1.133   4.066
 1036SOL    HW114736   3.548   1.223   4.092
 1036SOL    HW214737   3.618   1.140   3.986
 1037SOL     OW14738   1.640   0.371  23.488
 1037SOL    HW114739   1.594   0.424  23.553
 1037SOL    HW214740   1.715   0.425  23.461
 1038SOL     OW14741   2.757   2.822   7.711
 1038SOL    HW114742   2.757   2.841   7.804
 1038SOL    HW214743   2.801   2.897   7.671
 1039SOL     OW14744   0.826   3.580   4.336
 1039SOL    HW114745   0.807   3.671   4.361
 1039SOL    HW214746   0.915   3.565   4.368
 1040SOL     OW14747   4.193   3.375  24.139
 1040SOL    HW114748   4.181   3.331  24.224
 1040SOL    HW214749   4.284   3.354  24.115
 1041SOL     OW14750   2.541   1.981   0.756
 1041SOL    HW114751   2.515   1.953   0.843
 1041SOL    HW214752   2.543   2.076   0.760
 1042SOL     OW14753   2.367   2.738  28.180
 1042SOL    HW114754   2.319   2.699  28.107
 1042SOL    HW214755   2.307   2.731  28.255
 1043SOL     OW14756   2.512   1.336  17.606
 1043SOL    HW114757   2.498   1.298  17.520
 1043SOL    HW214758   2.608   1.344  17.613
 1044SOL     OW14759   2.822   0.956  23.678
 1044SOL    HW114760   2.788   1.005  23.752
 1044SOL    HW214761   2.749   0.903  23.647
 1045SOL     OW14762   2.007   1.229   4.691
 1045SOL    HW114763   1.920   1.269   4.687
 1045SOL    HW214764   1.994   1.148   4.741
 1046SOL     OW14765   1.111   0.683  20.901
 1046SOL    HW114766   1.052   0.622  20.945
 1046SOL    HW214767   1.060   0.717  20.828
 1047SOL     OW14768   2.128   1.624  28.423
 1047SOL    HW114769   2.074   1.690  28.467
 1047SOL    HW214770   2.200   1.674  28.384
 1048SOL     OW14771   3.248   1.870  23.437
 1048SOL    HW114772   3.245   1.831  23.524
 1048SOL    HW214773   3.178   1.935  23.438
 1049SOL     OW14774   0.941   0.239  24.099
 1049SOL    HW114775   0.971   0.309  24.156
 1049SOL    HW214776   0.874   0.279  24.045
 1050SOL     OW14777   0.808   3.617  27.402
 1050SOL    HW114778   0.813   3.711  27.389
 1050SOL    HW214779   0.720   3.593  27.373
 1051SOL     OW14780   4.215   3.122  19.804
 1051SOL    HW114781   4.242   3.164  19.886
 1051SOL    HW214782   4.148   3.181  19.769
 1052SOL     OW14783   0.881   3.819   7.047
 1052SOL    HW114784   0.870   3.754   6.977
 1052SOL    HW214785   0.801   3.872   7.043
 1053SOL     OW14786   2.596   3.327  27.038
 1053SOL    HW114787   2.523   3.336  26.977
 1053SOL    HW214788   2.557   3.342  27.125
 1054SOL     OW14789   3.480   2.999  22.304
 1054SOL    HW114790   3.431   3.076  22.277
 1054SOL    HW214791   3.522   3.025  22.386
 1055SOL     OW14792   2.144   4.009   6.459
 1055SOL    HW114793   2.166   4.041   6.547
 1055SOL    HW214794   2.068   4.061   6.433
 1056SOL     OW14795   2.355   2.173  22.110
 1056SOL    HW114796   2.399   2.255  22.132
 1056SOL    HW214797   2.304   2.151  22.189
 1057SOL     OW14798   1.738   4.424   2.841
 1057SOL    HW114799   1.679   4.394   2.772
 1057SOL    HW214800   1.823   4.430   2.799
 1058SOL     OW14801   3.469   2.687  23.073
 1058SOL    HW114802   3.516   2.710  22.993
 1058SOL    HW214803   3.377   2.707  23.053
 1059SOL     OW14804   1.209   0.823  17.600
 1059SOL    HW114805   1.179   0.736  17.573
 1059SOL    HW214806   1.193   0.879  17.524
 1060SOL     OW14807   1.902   0.321   7.123
 1060SOL    HW114808   1.885   0.226   7.124
 1060SOL    HW214809   1.833   0.357   7.069
 1061SOL     OW14810   3.641   1.568   7.575
 1061SOL    HW114811   3.562   1.549   7.626
 1061SOL    HW214812   3.714   1.541   7.632
 1062SOL     OW14813   3.826   3.451   8.403
 1062SOL    HW114814   3.732   3.458   8.416
 1062SOL    HW214815   3.837   3.377   8.343
 1063SOL     OW14816   1.455   4.040  22.309
 1063SOL    HW114817   1.535   4.016  22.264
 1063SOL    HW214818   1.414   3.956  22.331
 1064SOL     OW14819   2.418   3.501   9.471
 1064SOL    HW114820   2.392   3.436   9.406
 1064SOL    HW214821   2.346   3.564   9.472
 1065SOL     OW14822   0.848   0.627  10.417
 1065SOL    HW114823   0.807   0.546  10.387
 1065SOL    HW214824   0.900   0.601  10.494
 1066SOL     OW14825   1.678   4.170   5.563
 1066SOL    HW114826   1.638   4.135   5.643
 1066SOL    HW214827   1.605   4.181   5.502
 1067SOL     OW14828   4.154   0.038  19.631
 1067SOL    HW114829   4.211   0.085  19.571
 1067SOL    HW214830   4.206   0.029  19.711
 1068SOL     OW14831   0.557   2.778  21.471
 1068SOL    HW114832   0.542   2.747  21.382
 1068SOL    HW214833   0.495   2.850  21.483
 1069SOL     OW14834   4.034   3.133   1.749
 1069SOL    HW114835   4.087   3.053   1.740
 1069SOL    HW214836   3.991   3.143   1.664
 1070SOL     OW14837   3.868   2.204   2.692
 1070SOL    HW114838   3.961   2.189   2.678
 1070SOL    HW214839   3.855   2.187   2.786
 1071SOL     OW14840   2.107   1.572  19.455
 1071SOL    HW114841   2.148   1.628  19.520
 1071SOL    HW214842   2.137   1.608  19.371
 1072SOL     OW14843   0.495   3.656  10.642
 1072SOL    HW114844   0.497   3.579  10.585
 1072SOL    HW214845   0.559   3.716  10.604
 1073SOL     OW14846   3.300   4.341   3.671
 1073SOL    HW114847   3.346   4.263   3.640
 1073SOL    HW214848   3.370   4.405   3.685
 1074SOL     OW14849   0.965   2.026  21.990
 1074SOL    HW114850   1.038   1.973  21.957
 1074SOL    HW214851   0.994   2.056  22.076
 1075SOL     OW14852   2.541   0.668   7.982
 1075SOL    HW114853   2.519   0.576   7.993
 1075SOL    HW214854   2.532   0.706   8.069
 1076SOL     OW14855   0.718   2.917   3.686
 1076SOL    HW114856   0.680   2.886   3.603
 1076SOL    HW214857   0.810   2.935   3.665
 1077SOL     OW14858   0.138   2.888  21.452
 1077SOL    HW114859   0.098   2.808  21.486
 1077SOL    HW214860   0.110   2.956  21.513
 1078SOL     OW14861   2.817   2.213  18.030
 1078SOL    HW114862   2.762   2.258  18.094
 1078SOL    HW214863   2.904   2.210  18.071
 1079SOL     OW14864   0.495   1.291  25.970
 1079SOL    HW114865   0.426   1.227  25.952
 1079SOL    HW214866   0.541   1.301  25.887
 1080SOL     OW14867   4.592   4.112  27.603
 1080SOL    HW114868   4.522   4.064  27.647
 1080SOL    HW214869   4.633   4.164  27.673
 1081SOL     OW14870   4.294   3.496  20.440
 1081SOL    HW114871   4.383   3.496  20.403
 1081SOL    HW214872   4.260   3.583  20.420
 1082SOL     OW14873   3.246   3.063   3.073
 1082SOL    HW114874   3.279   3.123   3.141
 1082SOL    HW214875   3.258   3.111   2.991
 1083SOL     OW14876   1.936   3.295   9.231
 1083SOL    HW114877   1.976   3.329   9.311
 1083SOL    HW214878   2.005   3.240   9.192
 1084SOL     OW14879   1.466   3.317   4.841
 1084SOL    HW114880   1.518   3.384   4.885
 1084SOL    HW214881   1.434   3.261   4.912
 1085SOL     OW14882   0.609   2.881   9.797
 1085SOL    HW114883   0.636   2.800   9.840
 1085SOL    HW214884   0.513   2.882   9.807
 1086SOL     OW14885   4.113   4.101  28.268
 1086SOL    HW114886   4.088   4.017  28.231
 1086SOL    HW214887   4.106   4.162  28.194
 1087SOL     OW14888   3.475   1.272  21.002
 1087SOL    HW114889   3.421   1.338  21.047
 1087SOL    HW214890   3.437   1.188  21.028
 1088SOL     OW14891   3.725   4.528   5.743
 1088SOL    HW114892   3.649   4.550   5.797
 1088SOL    HW214893   3.774   4.464   5.793
 1089SOL     OW14894   1.228   3.897  22.825
 1089SOL    HW114895   1.212   3.830  22.891
 1089SOL    HW214896   1.306   3.866  22.778
 1090SOL     OW14897   2.634   1.292  20.362
 1090SOL    HW114898   2.667   1.339  20.286
 1090SOL    HW214899   2.600   1.360  20.420
 1091SOL     OW14900   0.095   4.552  23.662
 1091SOL    HW114901   0.133   4.640  23.663
 1091SOL    HW214902   0.169   4.494  23.644
 1092SOL     OW14903   1.033   1.586   6.227
 1092SOL    HW114904   1.001   1.545   6.307
 1092SOL    HW214905   0.958   1.586   6.168
 1093SOL     OW14906   0.128   4.089  10.466
 1093SOL    HW114907   0.191   4.159  10.482
 1093SOL    HW214908   0.150   4.056  10.379
 1094SOL     OW14909   0.742   2.336  20.392
 1094SOL    HW114910   0.817   2.386  20.424
 1094SOL    HW214911   0.668   2.395  20.401
 1095SOL     OW14912   0.345   3.472  25.398
 1095SOL    HW114913   0.269   3.508  25.444
 1095SOL    HW214914   0.334   3.502  25.307
 1096SOL     OW14915   2.383   2.720   2.115
 1096SOL    HW114916   2.410   2.704   2.205
 1096SOL    HW214917   2.324   2.648   2.094
 1097SOL     OW14918   3.196   1.000  24.295
 1097SOL    HW114919   3.240   1.041  24.369
 1097SOL    HW214920   3.210   0.906  24.308
 1098SOL     OW14921   2.412   1.891   3.126
 1098SOL    HW114922   2.468   1.824   3.165
 1098SOL    HW214923   2.324   1.853   3.130
 1099SOL     OW14924   0.679   1.358  22.133
 1099SOL    HW114925   0.653   1.312  22.213
 1099SOL    HW214926   0.755   1.309  22.101
 1100SOL     OW14927   2.028   2.622   0.280
 1100SOL    HW114928   2.079   2.662   0.351
 1100SOL    HW214929   1.948   2.591   0.322
 1101SOL     OW14930   2.615   3.844   3.607
 1101SOL    HW114931   2.688   3.906   3.617
 1101SOL    HW214932   2.551   3.890   3.553
 1102SOL     OW14933   0.709   4.441   0.118
 1102SOL    HW114934   0.693   4.348   0.100
 1102SOL    HW214935   0.766   4.469   0.046
 1103SOL     OW14936   4.562   1.359   8.489
 1103SOL    HW114937   4.476   1.317   8.486
 1103SOL    HW214938   4.543   1.451   8.508
 1104SOL     OW14939   0.922   0.360  17.971
 1104SOL    HW114940   1.017   0.351  17.964
 1104SOL    HW214941   0.907   0.452  17.991
 1105SOL     OW14942   1.654   0.722  21.683
 1105SOL    HW114943   1.731   0.754  21.635
 1105SOL    HW214944   1.615   0.657  21.626
 1106SOL     OW14945   2.348   0.107  27.562
 1106SOL    HW114946   2.359   0.198  27.593
 1106SOL    HW214947   2.343   0.114  27.467
 1107SOL     OW14948   2.272   1.938   6.195
 1107SOL    HW114949   2.324   1.919   6.117
 1107SOL    HW214950   2.195   1.985   6.162
 1108SOL     OW14951   3.077   3.572  27.181
 1108SOL    HW114952   3.100   3.663  27.198
 1108SOL    HW214953   3.083   3.563  27.085
 1109SOL     OW14954   2.947   0.897  20.029
 1109SOL    HW114955   2.868   0.943  20.002
 1109SOL    HW214956   2.919   0.807  20.044
 1110SOL     OW14957   3.850   3.704   1.624
 1110SOL    HW114958   3.836   3.689   1.717
 1110SOL    HW214959   3.907   3.632   1.596
 1111SOL     OW14960   2.844   0.044   9.039
 1111SOL    HW114961   2.800   4.742   9.038
 1111SOL    HW214962   2.910   0.037   9.108
 1112SOL     OW14963   1.624   4.455  25.968
 1112SOL    HW114964   1.710   4.447  26.010
 1112SOL    HW214965   1.635   4.524  25.903
 1113SOL     OW14966   3.449   1.593   4.748
 1113SOL    HW114967   3.375   1.587   4.687
 1113SOL    HW214968   3.410   1.575   4.834
 1114SOL     OW14969   4.107   3.134  25.887
 1114SOL    HW114970   4.143   3.046  25.900
 1114SOL    HW214971   4.017   3.120  25.858
 1115SOL     OW14972   1.620   4.187   6.633
 1115SOL    HW114973   1.618   4.205   6.727
 1115SOL    HW214974   1.565   4.109   6.622
 1116SOL     OW14975   4.322   1.869  20.539
 1116SOL    HW114976   4.342   1.807  20.609
 1116SOL    HW214977   4.242   1.912  20.567
 1117SOL     OW14978   2.951   4.500   2.590
 1117SOL    HW114979   2.881   4.449   2.551
 1117SOL    HW214980   2.907   4.569   2.638
 1118SOL     OW14981   1.793   0.519   2.622
 1118SOL    HW114982   1.721   0.461   2.597
 1118SOL    HW214983   1.783   0.531   2.716
 1119SOL     OW14984   1.804   3.868  22.401
 1119SOL    HW114985   1.861   3.797  22.371
 1119SOL    HW214986   1.737   3.876  22.334
 1120SOL     OW14987   4.695   1.476  24.809
 1120SOL    HW114988   4.710   1.389  24.847
 1120SOL    HW214989   4.717   1.465  24.716
 1121SOL     OW14990   3.198   2.605  25.226
 1121SOL    HW114991   3.198   2.597  25.131
 1121SOL    HW214992   3.287   2.580  25.253
 1122SOL     OW14993   1.671   1.275  21.782
 1122SOL    HW114994   1.653   1.358  21.738
 1122SOL    HW214995   1.731   1.229  21.723
 1123SOL     OW14996   4.615   1.263   7.782
 1123SOL    HW114997   4.586   1.282   7.871
 1123SOL    HW214998   4.665   1.182   7.790
 1124SOL     OW14999   3.426   2.176  27.437
 1124SOL    HW115000   3.399   2.133  27.518
 1124SOL    HW215001   3.456   2.104  27.381
 1125SOL     OW15002   0.813   1.391  23.961
 1125SOL    HW115003   0.808   1.338  23.881
 1125SOL    HW215004   0.741   1.359  24.015
 1126SOL     OW15005   3.800   0.549   0.049
 1126SOL    HW115006   3.841   0.635   0.059
 1126SOL    HW215007   3.825   0.502   0.129
 1127SOL     OW15008   0.448   0.943  11.776
 1127SOL    HW115009   0.513   0.993  11.826
 1127SOL    HW215010   0.451   0.855  11.815
 1128SOL     OW15011   3.093   2.830  25.502
 1128SOL    HW115012   3.153   2.805  25.572
 1128SOL    HW215013   3.012   2.855  25.547
 1129SOL     OW15014   2.808   3.756   5.648
 1129SOL    HW115015   2.902   3.743   5.665
 1129SOL    HW215016   2.806   3.814   5.572
 1130SOL     OW15017   2.488   2.138  17.165
 1130SOL    HW115018   2.551   2.178  17.105
 1130SOL    HW215019   2.406   2.185  17.148
 1131SOL     OW15020   2.122   2.938   7.947
 1131SOL    HW115021   2.182   2.918   8.019
 1131SOL    HW215022   2.074   3.015   7.977
 1132SOL     OW15023   0.080   0.717  25.907
 1132SOL    HW115024   0.048   0.710  25.817
 1132SOL    HW215025   0.087   0.627  25.938
 1133SOL     OW15026   0.718   1.777  26.476
 1133SOL    HW115027   0.759   1.749  26.394
 1133SOL    HW215028   0.668   1.856  26.453
 1134SOL     OW15029   0.553   4.351   9.442
 1134SOL    HW115030   0.550   4.282   9.507
 1134SOL    HW215031   0.545   4.306   9.358
 1135SOL     OW15032   2.147   2.673   3.605
 1135SOL    HW115033   2.083   2.723   3.655
 1135SOL    HW215034   2.209   2.641   3.670
 1136SOL     OW15035   1.145   4.133  26.033
 1136SOL    HW115036   1.219   4.193  26.033
 1136SOL    HW215037   1.178   4.055  26.077
 1137SOL     OW15038   4.011   1.677  19.461
 1137SOL    HW115039   4.024   1.762  19.502
 1137SOL    HW215040   4.070   1.677  19.386
 1138SOL     OW15041   2.868   4.368  22.200
 1138SOL    HW115042   2.929   4.294  22.205
 1138SOL    HW215043   2.828   4.360  22.114
 1139SOL     OW15044   3.548   4.743  24.841
 1139SOL    HW115045   3.586   0.008  24.766
 1139SOL    HW215046   3.455   4.737  24.821
 1140SOL     OW15047   3.626   4.764  21.963
 1140SOL    HW115048   3.603   4.760  22.056
 1140SOL    HW215049   3.710   0.028  21.962
 1141SOL     OW15050   4.539   1.517  26.834
 1141SOL    HW115051   4.552   1.423  26.823
 1141SOL    HW215052   4.557   1.555  26.748
 1142SOL     OW15053   3.447   2.766   4.898
 1142SOL    HW115054   3.519   2.829   4.901
 1142SOL    HW215055   3.424   2.752   4.990
 1143SOL     OW15056   3.910   4.231   6.140
 1143SOL    HW115057   3.884   4.160   6.198
 1143SOL    HW215058   3.996   4.205   6.107
 1144SOL     OW15059   4.389   3.938   4.859
 1144SOL    HW115060   4.432   3.994   4.924
 1144SOL    HW215061   4.304   3.980   4.845
 1145SOL     OW15062   3.233   4.699  26.737
 1145SOL    HW115063   3.303   4.757  26.766
 1145SOL    HW215064   3.203   4.657  26.818
 1146SOL     OW15065   1.502   1.234   8.322
 1146SOL    HW115066   1.565   1.217   8.253
 1146SOL    HW215067   1.466   1.148   8.344
 1147SOL     OW15068   3.481   3.411   5.164
 1147SOL    HW115069   3.534   3.370   5.233
 1147SOL    HW215070   3.542   3.472   5.121
 1148SOL     OW15071   2.848   4.171  20.842
 1148SOL    HW115072   2.855   4.228  20.919
 1148SOL    HW215073   2.755   4.169  20.822
 1149SOL     OW15074   2.505   4.377   9.485
 1149SOL    HW115075   2.426   4.429   9.498
 1149SOL    HW215076   2.475   4.297   9.442
 1150SOL     OW15077   3.667   4.239   7.765
 1150SOL    HW115078   3.662   4.144   7.754
 1150SOL    HW215079   3.636   4.255   7.854
 1151SOL     OW15080   2.912   1.896   8.117
 1151SOL    HW115081   2.838   1.946   8.082
 1151SOL    HW215082   2.944   1.949   8.190
 1152SOL     OW15083   2.188   4.523   5.679
 1152SOL    HW115084   2.154   4.448   5.630
 1152SOL    HW215085   2.173   4.500   5.771
 1153SOL     OW15086   2.273   1.509   9.098
 1153SOL    HW115087   2.281   1.476   9.009
 1153SOL    HW215088   2.336   1.457   9.148
 1154SOL     OW15089   0.934   3.894  24.307
 1154SOL    HW115090   0.848   3.930  24.329
 1154SOL    HW215091   0.989   3.971  24.290
 1155SOL     OW15092   2.283   1.699  21.947
 1155SOL    HW115093   2.191   1.675  21.942
 1155SOL    HW215094   2.286   1.790  21.917
 1156SOL     OW15095   2.434   0.483  19.985
 1156SOL    HW115096   2.429   0.578  19.999
 1156SOL    HW215097   2.414   0.445  20.071
 1157SOL     OW15098   2.062   2.847   5.457
 1157SOL    HW115099   2.155   2.826   5.453
 1157SOL    HW215100   2.030   2.832   5.368
 1158SOL     OW15101   0.028   2.005   1.033
 1158SOL    HW115102   4.722   1.977   1.058
 1158SOL    HW215103   0.082   1.985   1.109
 1159SOL     OW15104   0.916   3.861   1.633
 1159SOL    HW115105   0.963   3.819   1.561
 1159SOL    HW215106   0.857   3.794   1.667
 1160SOL     OW15107   3.565   3.810  23.911
 1160SOL    HW115108   3.637   3.822  23.974
 1160SOL    HW215109   3.522   3.895  23.908
 1161SOL     OW15110   2.170   1.195  24.681
 1161SOL    HW115111   2.100   1.254  24.707
 1161SOL    HW215112   2.231   1.196  24.754
 1162SOL     OW15113   1.717   3.074  27.302
 1162SOL    HW115114   1.774   3.051  27.229
 1162SOL    HW215115   1.637   3.023  27.287
 1163SOL     OW15116   0.111   0.824  12.161
 1163SOL    HW115117   0.065   0.822  12.245
 1163SOL    HW215118   0.175   0.753  12.168
 1164SOL     OW15119   3.839   0.881   5.126
 1164SOL    HW115120   3.811   0.968   5.151
 1164SOL    HW215121   3.763   0.842   5.083
 1165SOL     OW15122   4.318   3.564  26.571
 1165SOL    HW115123   4.341   3.574  26.479
 1165SOL    HW215124   4.230   3.599  26.578
 1166SOL     OW15125   3.635   1.634  17.661
 1166SOL    HW115126   3.650   1.710  17.605
 1166SOL    HW215127   3.687   1.564  17.620
 1167SOL     OW15128   4.521   1.872   0.712
 1167SOL    HW115129   4.434   1.873   0.751
 1167SOL    HW215130   4.577   1.833   0.779
 1168SOL     OW15131   1.632   1.746   0.786
 1168SOL    HW115132   1.638   1.829   0.835
 1168SOL    HW215133   1.719   1.734   0.749
 1169SOL     OW15134   3.672   2.506  24.517
 1169SOL    HW115135   3.719   2.579  24.558
 1169SOL    HW215136   3.735   2.468  24.456
 1170SOL     OW15137   2.922   3.117  18.609
 1170SOL    HW115138   2.931   3.186  18.544
 1170SOL    HW215139   2.830   3.121  18.636
 1171SOL     OW15140   1.453   1.143  21.926
 1171SOL    HW115141   1.454   1.201  22.002
 1171SOL    HW215142   1.510   1.186  21.863
 1172SOL     OW15143   2.371   2.347  26.646
 1172SOL    HW115144   2.310   2.380  26.712
 1172SOL    HW215145   2.373   2.415  26.578
 1173SOL     OW15146   2.505   2.167  27.250
 1173SOL    HW115147   2.468   2.112  27.319
 1173SOL    HW215148   2.458   2.141  27.171
 1174SOL     OW15149   3.351   4.514   4.622
 1174SOL    HW115150   3.327   4.579   4.689
 1174SOL    HW215151   3.432   4.474   4.655
 1175SOL     OW15152   0.238   1.293   1.201
 1175SOL    HW115153   0.305   1.228   1.217
 1175SOL    HW215154   0.174   1.248   1.145
 1176SOL     OW15155   3.902   3.375   6.430
 1176SOL    HW115156   3.872   3.296   6.476
 1176SOL    HW215157   3.840   3.385   6.358
 1177SOL     OW15158   1.055   4.126  24.243
 1177SOL    HW115159   1.095   4.154  24.160
 1177SOL    HW215160   0.988   4.192  24.260
 1178SOL     OW15161   2.744   2.745  24.099
 1178SOL    HW115162   2.737   2.676  24.166
 1178SOL    HW215163   2.664   2.737  24.048
 1179SOL     OW15164   4.270   1.079   2.920
 1179SOL    HW115165   4.258   1.116   2.832
 1179SOL    HW215166   4.224   0.995   2.917
 1180SOL     OW15167   3.479   1.466  21.749
 1180SOL    HW115168   3.422   1.537  21.719
 1180SOL    HW215169   3.464   1.462  21.843
 1181SOL     OW15170   1.093   3.233   3.890
 1181SOL    HW115171   1.069   3.324   3.903
 1181SOL    HW215172   1.011   3.189   3.868
 1182SOL     OW15173   2.015   2.873   7.106
 1182SOL    HW115174   2.060   2.895   7.024
 1182SOL    HW215175   2.012   2.955   7.155
 1183SOL     OW15176   2.985   2.115   4.673
 1183SOL    HW115177   3.009   2.161   4.754
 1183SOL    HW215178   3.029   2.164   4.603
 1184SOL     OW15179   2.073   2.930   2.242
 1184SOL    HW115180   2.140   2.944   2.309
 1184SOL    HW215181   2.120   2.933   2.159
 1185SOL     OW15182   1.679   2.434   0.356
 1185SOL    HW115183   1.681   2.375   0.281
 1185SOL    HW215184   1.756   2.410   0.407
 1186SOL     OW15185   3.653   0.076   9.302
 1186SOL    HW115186   3.675   4.765   9.299
 1186SOL    HW215187   3.730   0.117   9.343
 1187SOL     OW15188   1.216   1.923   0.912
 1187SOL    HW115189   1.159   1.921   0.989
 1187SOL    HW215190   1.160   1.958   0.842
 1188SOL     OW15191   0.859   0.704   2.702
 1188SOL    HW115192   0.871   0.797   2.682
 1188SOL    HW215193   0.906   0.691   2.784
 1189SOL     OW15194   4.101   0.901  18.990
 1189SOL    HW115195   4.147   0.875  18.910
 1189SOL    HW215196   4.051   0.824  19.015
 1190SOL     OW15197   4.595   1.922  27.218
 1190SOL    HW115198   4.578   2.016  27.226
 1190SOL    HW215199   4.573   1.901  27.127
 1191SOL     OW15200   1.565   1.450   3.657
 1191SOL    HW115201   1.497   1.383   3.661
 1191SOL    HW215202   1.628   1.416   3.593
 1192SOL     OW15203   1.629   1.874  20.634
 1192SOL    HW115204   1.698   1.818  20.598
 1192SOL    HW215205   1.570   1.888  20.560
 1193SOL     OW15206   4.352   4.447  20.430
 1193SOL    HW115207   4.412   4.521  20.429
 1193SOL    HW215208   4.347   4.421  20.522
 1194SOL     OW15209   0.419   0.251   7.488
 1194SOL    HW115210   0.413   0.284   7.398
 1194SOL    HW215211   0.353   0.181   7.493
 1195SOL     OW15212   3.235   2.324   4.568
 1195SOL    HW115213   3.259   2.262   4.499
 1195SOL    HW215214   3.310   2.384   4.573
 1196SOL     OW15215   1.308   1.066   5.767
 1196SOL    HW115216   1.345   1.046   5.681
 1196SOL    HW215217   1.215   1.046   5.758
 1197SOL     OW15218   0.630   4.624   8.036
 1197SOL    HW115219   0.663   4.535   8.049
 1197SOL    HW215220   0.708   4.679   8.042
 1198SOL     OW15221   1.431   1.972  25.808
 1198SOL    HW115222   1.511   2.025  25.803
 1198SOL    HW215223   1.453   1.900  25.867
 1199SOL     OW15224   2.001   0.547   3.934
 1199SOL    HW115225   2.093   0.566   3.953
 1199SOL    HW215226   1.983   0.467   3.983
 1200SOL     OW15227   4.384   2.809  16.300
 1200SOL    HW115228   4.436   2.732  16.280
 1200SOL    HW215229   4.293   2.781  16.288
 1201SOL     OW15230   3.265   1.595   2.932
 1201SOL    HW115231   3.309   1.616   2.849
 1201SOL    HW215232   3.202   1.527   2.909
 1202SOL     OW15233   3.394   3.789  28.189
 1202SOL    HW115234   3.312   3.838  28.181
 1202SOL    HW215235   3.398   3.736  28.109
 1203SOL     OW15236   1.555   4.539   6.288
 1203SOL    HW115237   1.546   4.462   6.343
 1203SOL    HW215238   1.541   4.507   6.199
 1204SOL     OW15239   2.433   1.591  22.171
 1204SOL    HW115240   2.366   1.543  22.220
 1204SOL    HW215241   2.384   1.643  22.108
 1205SOL     OW15242   3.855   3.702   6.563
 1205SOL    HW115243   3.860   3.733   6.653
 1205SOL    HW215244   3.937   3.654   6.549
 1206SOL     OW15245   0.601   1.647   3.891
 1206SOL    HW115246   0.529   1.618   3.947
 1206SOL    HW215247   0.671   1.584   3.907
 1207SOL     OW15248   3.156   1.501   9.907
 1207SOL    HW115249   3.101   1.434   9.947
 1207SOL    HW215250   3.187   1.554   9.980
 1208SOL     OW15251   1.003   1.302   4.849
 1208SOL    HW115252   0.916   1.261   4.854
 1208SOL    HW215253   1.000   1.374   4.911
 1209SOL     OW15254   2.895   4.054   2.586
 1209SOL    HW115255   2.971   4.045   2.528
 1209SOL    HW215256   2.820   4.061   2.526
 1210SOL     OW15257   2.757   1.571  27.004
 1210SOL    HW115258   2.827   1.510  27.028
 1210SOL    HW215259   2.799   1.657  27.004
 1211SOL     OW15260   3.273   0.257  24.734
 1211SOL    HW115261   3.189   0.300  24.751
 1211SOL    HW215262   3.261   0.168  24.768
 1212SOL     OW15263   4.115   1.628   8.943
 1212SOL    HW115264   4.023   1.625   8.968
 1212SOL    HW215265   4.163   1.607   9.023
 1213SOL     OW15266   0.348   4.485   5.883
 1213SOL    HW115267   0.328   4.403   5.927
 1213SOL    HW215268   0.269   4.538   5.894
 1214SOL     OW15269   1.211   2.770  21.683
 1214SOL    HW115270   1.216   2.783  21.588
 1214SOL    HW215271   1.120   2.791  21.705
 1215SOL     OW15272   2.660   1.768   9.818
 1215SOL    HW115273   2.644   1.689   9.870
 1215SOL    HW215274   2.753   1.785   9.827
 1216SOL     OW15275   2.659   1.244  25.517
 1216SOL    HW115276   2.636   1.317  25.459
 1216SOL    HW215277   2.580   1.229  25.568
 1217SOL     OW15278   1.030   4.166   2.721
 1217SOL    HW115279   1.108   4.221   2.713
 1217SOL    HW215280   1.033   4.110   2.643
 1218SOL     OW15281   0.459   2.627   3.956
 1218SOL    HW115282   0.419   2.540   3.961
 1218SOL    HW215283   0.520   2.621   3.882
 1219SOL     OW15284   2.431   4.650  22.206
 1219SOL    HW115285   2.419   4.580  22.271
 1219SOL    HW215286   2.498   4.707  22.244
 1220SOL     OW15287   3.542   1.650   1.923
 1220SOL    HW115288   3.549   1.732   1.874
 1220SOL    HW215289   3.449   1.628   1.919
 1221SOL     OW15290   3.733   4.005   4.872
 1221SOL    HW115291   3.753   3.965   4.787
 1221SOL    HW215292   3.757   3.938   4.936
 1222SOL     OW15293   3.565   4.433   4.780
 1222SOL    HW115294   3.527   4.513   4.816
 1222SOL    HW215295   3.562   4.370   4.851
 1223SOL     OW15296   3.391   2.247  26.421
 1223SOL    HW115297   3.309   2.209  26.452
 1223SOL    HW215298   3.391   2.231  26.327
 1224SOL     OW15299   2.384   1.846  20.263
 1224SOL    HW115300   2.403   1.918  20.324
 1224SOL    HW215301   2.417   1.877  20.179
 1225SOL     OW15302   3.809   0.553  27.846
 1225SOL    HW115303   3.887   0.553  27.903
 1225SOL    HW215304   3.742   0.599  27.897
 1226SOL     OW15305   0.151   2.435  19.429
 1226SOL    HW115306   0.171   2.458  19.338
 1226SOL    HW215307   0.133   2.518  19.472
 1227SOL     OW15308   2.108   3.541   8.933
 1227SOL    HW115309   2.198   3.550   8.904
 1227SOL    HW215310   2.114   3.532   9.028
 1228SOL     OW15311   3.372   1.082   1.085
 1228SOL    HW115312   3.455   1.038   1.066
 1228SOL    HW215313   3.318   1.065   1.007
 1229SOL     OW15314   3.667   0.917   1.326
 1229SOL    HW115315   3.666   0.996   1.381
 1229SOL    HW215316   3.688   0.846   1.387
 1230SOL     OW15317   3.818   4.745  26.818
 1230SOL    HW115318   3.843   4.766  26.728
 1230SOL    HW215319   3.865   0.026  26.871
 1231SOL     OW15320   3.810   3.306  25.691
 1231SOL    HW115321   3.739   3.292  25.630
 1231SOL    HW215322   3.774   3.363  25.758
 1232SOL     OW15323   3.185   0.018  21.178
 1232SOL    HW115324   3.161   0.110  21.181
 1232SOL    HW215325   3.104   4.753  21.194
 1233SOL     OW15326   1.244   0.577  27.346
 1233SOL    HW115327   1.169   0.574  27.406
 1233SOL    HW215328   1.316   0.538  27.395
 1234SOL     OW15329   4.193   1.238  10.689
 1234SOL    HW115330   4.124   1.303  10.685
 1234SOL    HW215331   4.158   1.169  10.746
 1235SOL     OW15332   3.548   2.581   3.472
 1235SOL    HW115333   3.491   2.657   3.475
 1235SOL    HW215334   3.582   2.573   3.562
 1236SOL     OW15335   2.162   3.021   6.111
 1236SOL    HW115336   2.138   3.110   6.136
 1236SOL    HW215337   2.089   2.967   6.139
 1237SOL     OW15338   4.643   2.684   5.887
 1237SOL    HW115339   4.558   2.640   5.894
 1237SOL    HW215340   4.659   2.720   5.974
 1238SOL     OW15341   4.754   4.240  28.133
 1238SOL    HW115342   4.731   4.163  28.185
 1238SOL    HW215343   4.743   4.314  28.192
 1239SOL     OW15344   3.145   1.798  21.941
 1239SOL    HW115345   3.174   1.785  22.031
 1239SOL    HW215346   3.124   1.710  21.909
 1240SOL     OW15347   1.117   0.610  24.242
 1240SOL    HW115348   1.055   0.630  24.173
 1240SOL    HW215349   1.178   0.548  24.201
 1241SOL     OW15350   2.921   3.574   4.129
 1241SOL    HW115351   2.887   3.492   4.093
 1241SOL    HW215352   2.880   3.642   4.076
 1242SOL     OW15353   4.154   4.757   2.541
 1242SOL    HW115354   4.165   0.008   2.630
 1242SOL    HW215355   4.105   0.043   2.495
 1243SOL     OW15356   2.625   3.103   9.543
 1243SOL    HW115357   2.601   3.036   9.478
 1243SOL    HW215358   2.679   3.165   9.494
 1244SOL     OW15359   2.544   3.069   1.483
 1244SOL    HW115360   2.631   3.083   1.519
 1244SOL    HW215361   2.497   3.151   1.500
 1245SOL     OW15362   0.768   3.208  26.468
 1245SOL    HW115363   0.762   3.181  26.559
 1245SOL    HW215364   0.861   3.230  26.455
 1246SOL     OW15365   1.047   4.349   7.839
 1246SOL    HW115366   1.038   4.400   7.919
 1246SOL    HW215367   0.998   4.269   7.856
 1247SOL     OW15368   3.021   3.824   9.002
 1247SOL    HW115369   3.054   3.737   8.982
 1247SOL    HW215370   2.926   3.813   9.007
 1248SOL     OW15371   1.452   1.296  25.206
 1248SOL    HW115372   1.398   1.315  25.130
 1248SOL    HW215373   1.541   1.284  25.171
 1249SOL     OW15374   2.821   1.560   5.868
 1249SOL    HW115375   2.863   1.602   5.944
 1249SOL    HW215376   2.748   1.511   5.905
 1250SOL     OW15377   1.327   2.703  10.718
 1250SOL    HW115378   1.279   2.666  10.792
 1250SOL    HW215379   1.296   2.794  10.712
 1251SOL     OW15380   0.474   0.301   3.805
 1251SOL    HW115381   0.481   0.250   3.886
 1251SOL    HW215382   0.420   0.376   3.829
 1252SOL     OW15383   0.205   2.330   1.970
 1252SOL    HW115384   0.114   2.359   1.973
 1252SOL    HW215385   0.251   2.385   2.034
 1253SOL     OW15386   0.607   4.207  24.379
 1253SOL    HW115387   0.590   4.266  24.453
 1253SOL    HW215388   0.533   4.147  24.379
 1254SOL     OW15389   1.380   3.518   8.188
 1254SOL    HW115390   1.360   3.515   8.281
 1254SOL    HW215391   1.332   3.594   8.155
 1255SOL     OW15392   0.546   1.506  24.302
 1255SOL    HW115393   0.551   1.573  24.370
 1255SOL    HW215394   0.552   1.555  24.220
 1256SOL     OW15395   1.523   3.588   1.396
 1256SOL    HW115396   1.520   3.647   1.472
 1256SOL    HW215397   1.553   3.505   1.432
 1257SOL     OW15398   1.376   0.496   5.742
 1257SOL    HW115399   1.377   0.442   5.664
 1257SOL    HW215400   1.318   0.450   5.803
 1258SOL     OW15401   1.889   4.352   8.020
 1258SOL    HW115402   1.859   4.422   7.962
 1258SOL    HW215403   1.945   4.297   7.964
 1259SOL     OW15404   3.997   0.583   3.527
 1259SOL    HW115405   3.907   0.590   3.560
 1259SOL    HW215406   4.052   0.605   3.603
 1260SOL     OW15407   3.894   0.187   7.410
 1260SOL    HW115408   3.803   0.217   7.413
 1260SOL    HW215409   3.889   0.093   7.424
 1261SOL     OW15410   2.508   1.242  23.755
 1261SOL    HW115411   2.590   1.258  23.707
 1261SOL    HW215412   2.531   1.251  23.847
 1262SOL     OW15413   2.346   3.130   4.060
 1262SOL    HW115414   2.335   3.222   4.033
 1262SOL    HW215415   2.359   3.083   3.977
 1263SOL     OW15416   3.051   1.957   7.211
 1263SOL    HW115417   3.051   1.939   7.117
 1263SOL    HW215418   3.032   2.051   7.218
 1264SOL     OW15419   3.685   2.339   8.196
 1264SOL    HW115420   3.597   2.361   8.166
 1264SOL    HW215421   3.694   2.245   8.179
 1265SOL     OW15422   3.647   1.382   9.510
 1265SOL    HW115423   3.666   1.352   9.599
 1265SOL    HW215424   3.610   1.470   9.522
 1266SOL     OW15425   4.338   0.462  20.219
 1266SOL    HW115426   4.244   0.448  20.205
 1266SOL    HW215427   4.344   0.545  20.265
 1267SOL     OW15428   0.776   4.710   8.563
 1267SOL    HW115429   0.689   4.731   8.596
 1267SOL    HW215430   0.785   4.616   8.577
 1268SOL     OW15431   1.612   2.425  20.181
 1268SOL    HW115432   1.579   2.490  20.120
 1268SOL    HW215433   1.671   2.370  20.129
 1269SOL     OW15434   4.478   2.311   9.049
 1269SOL    HW115435   4.425   2.383   9.081
 1269SOL    HW215436   4.482   2.323   8.954
 1270SOL     OW15437   1.502   4.510  22.989
 1270SOL    HW115438   1.576   4.542  23.041
 1270SOL    HW215439   1.470   4.433  23.036
 1271SOL     OW15440   1.524   0.523  21.871
 1271SOL    HW115441   1.453   0.462  21.856
 1271SOL    HW215442   1.516   0.587  21.801
 1272SOL     OW15443   3.068   0.654  27.679
 1272SOL    HW115444   2.973   0.648  27.686
 1272SOL    HW215445   3.085   0.740  27.642
 1273SOL     OW15446   4.233   3.227  22.136
 1273SOL    HW115447   4.214   3.140  22.171
 1273SOL    HW215448   4.226   3.216  22.041
 1274SOL     OW15449   4.048   4.433   9.054
 1274SOL    HW115450   4.021   4.524   9.069
 1274SOL    HW215451   4.066   4.429   8.961
 1275SOL     OW15452   2.139   0.845  25.831
 1275SOL    HW115453   2.057   0.842  25.881
 1275SOL    HW215454   2.164   0.754  25.821
 1276SOL     OW15455   0.947   3.091   8.904
 1276SOL    HW115456   0.998   3.137   8.970
 1276SOL    HW215457   0.893   3.160   8.864
 1277SOL     OW15458   3.567   3.968   7.698
 1277SOL    HW115459   3.577   3.912   7.775
 1277SOL    HW215460   3.613   3.922   7.628
 1278SOL     OW15461   4.043   2.899  18.982
 1278SOL    HW115462   4.104   2.972  18.994
 1278SOL    HW215463   3.972   2.934  18.928
 1279SOL     OW15464   3.363   2.481  20.550
 1279SOL    HW115465   3.342   2.418  20.481
 1279SOL    HW215466   3.397   2.557  20.504
 1280SOL     OW15467   2.252   1.389   0.343
 1280SOL    HW115468   2.311   1.409   0.415
 1280SOL    HW215469   2.301   1.411   0.264
 1281SOL     OW15470   1.858   1.570  28.418
 1281SOL    HW115471   1.953   1.569  28.410
 1281SOL    HW215472   1.832   1.656  28.386
 1282SOL     OW15473   3.580   2.267   0.777
 1282SOL    HW115474   3.537   2.323   0.713
 1282SOL    HW215475   3.634   2.327   0.828
 1283SOL     OW15476   1.443   2.969   6.231
 1283SOL    HW115477   1.472   2.910   6.300
 1283SOL    HW215478   1.483   3.053   6.253
 1284SOL     OW15479   0.755   4.765  25.568
 1284SOL    HW115480   0.707   4.682  25.567
 1284SOL    HW215481   0.688   0.049  25.581
 1285SOL     OW15482   3.361   0.360  26.247
 1285SOL    HW115483   3.424   0.306  26.294
 1285SOL    HW215484   3.291   0.377  26.310
 1286SOL     OW15485   4.562   1.427   4.187
 1286SOL    HW115486   4.468   1.408   4.180
 1286SOL    HW215487   4.592   1.371   4.258
 1287SOL     OW15488   2.749   1.394   9.085
 1287SOL    HW115489   2.768   1.404   8.992
 1287SOL    HW215490   2.662   1.434   9.096
 1288SOL     OW15491   3.902   2.604  28.351
 1288SOL    HW115492   3.863   2.687  28.375
 1288SOL    HW215493   3.884   2.594  28.257
 1289SOL     OW15494   4.205   2.590  21.846
 1289SOL    HW115495   4.196   2.496  21.832
 1289SOL    HW215496   4.116   2.624  21.841
 1290SOL     OW15497   3.278   0.301  25.410
 1290SOL    HW115498   3.208   0.273  25.469
 1290SOL    HW215499   3.303   0.388  25.442
 1291SOL     OW15500   1.260   4.197   6.334
 1291SOL    HW115501   1.189   4.256   6.311
 1291SOL    HW215502   1.217   4.118   6.368
 1292SOL     OW15503   3.745   1.581  24.662
 1292SOL    HW115504   3.815   1.609  24.722
 1292SOL    HW215505   3.673   1.642  24.680
 1293SOL     OW15506   2.043   4.563  18.759
 1293SOL    HW115507   2.110   4.495  18.773
 1293SOL    HW215508   2.073   4.636  18.813
 1294SOL     OW15509   3.516   2.489   4.814
 1294SOL    HW115510   3.527   2.578   4.846
 1294SOL    HW215511   3.441   2.494   4.755
 1295SOL     OW15512   0.804   2.576  23.510
 1295SOL    HW115513   0.780   2.606  23.422
 1295SOL    HW215514   0.721   2.546  23.548
 1296SOL     OW15515   1.696   4.175  23.071
 1296SOL    HW115516   1.687   4.192  22.977
 1296SOL    HW215517   1.612   4.202  23.108
 1297SOL     OW15518   0.336   0.133   1.189
 1297SOL    HW115519   0.414   0.147   1.136
 1297SOL    HW215520   0.301   0.049   1.160
 1298SOL     OW15521   4.130   0.833   8.474
 1298SOL    HW115522   4.090   0.770   8.534
 1298SOL    HW215523   4.220   0.803   8.464
 1299SOL     OW15524   0.539   4.546   9.649
 1299SOL    HW115525   0.544   4.485   9.575
 1299SOL    HW215526   0.546   4.633   9.609
 1300SOL     OW15527   0.206   3.411   9.835
 1300SOL    HW115528   0.258   3.424   9.756
 1300SOL    HW215529   0.116   3.430   9.808
 1301SOL     OW15530   2.313   2.478   3.189
 1301SOL    HW115531   2.370   2.404   3.209
 1301SOL    HW215532   2.370   2.555   3.193
 1302SOL     OW15533   1.704   1.336   2.022
 1302SOL    HW115534   1.775   1.276   2.002
 1302SOL    HW215535   1.737   1.422   1.998
 1303SOL     OW15536   2.812   2.131   1.073
 1303SOL    HW115537   2.838   2.106   0.985
 1303SOL    HW215538   2.888   2.178   1.109
 1304SOL     OW15539   4.649   0.668   1.910
 1304SOL    HW115540   4.706   0.643   1.983
 1304SOL    HW215541   4.641   0.589   1.857
 1305SOL     OW15542   1.103   3.353   5.593
 1305SOL    HW115543   1.165   3.422   5.568
 1305SOL    HW215544   1.120   3.339   5.687
 1306SOL     OW15545   0.763   1.705  27.258
 1306SOL    HW115546   0.692   1.742  27.206
 1306SOL    HW215547   0.721   1.641  27.315
 1307SOL     OW15548   4.528   1.901   9.674
 1307SOL    HW115549   4.541   1.934   9.763
 1307SOL    HW215550   4.551   1.809   9.679
 1308SOL     OW15551   1.568   3.023  26.652
 1308SOL    HW115552   1.476   3.023  26.679
 1308SOL    HW215553   1.576   2.949  26.592
 1309SOL     OW15554   3.268   4.281   6.401
 1309SOL    HW115555   3.280   4.234   6.483
 1309SOL    HW215556   3.348   4.333   6.391
 1310SOL     OW15557   2.755   2.734   3.535
 1310SOL    HW115558   2.752   2.662   3.472
 1310SOL    HW215559   2.802   2.698   3.611
 1311SOL     OW15560   2.821   1.823   7.038
 1311SOL    HW115561   2.912   1.851   7.023
 1311SOL    HW215562   2.802   1.764   6.965
 1312SOL     OW15563   4.134   0.199  27.804
 1312SOL    HW115564   4.218   0.244  27.794
 1312SOL    HW215565   4.075   0.243  27.743
 1313SOL     OW15566   3.881   4.777   8.551
 1313SOL    HW115567   3.901   4.683   8.553
 1313SOL    HW215568   3.803   0.001   8.496
 1314SOL     OW15569   1.439   0.367  28.243
 1314SOL    HW115570   1.347   0.362  28.215
 1314SOL    HW215571   1.437   0.346  28.336
 1315SOL     OW15572   1.900   3.370   8.348
 1315SOL    HW115573   1.937   3.306   8.287
 1315SOL    HW215574   1.974   3.426   8.371
 1316SOL     OW15575   2.023   1.441  22.444
 1316SOL    HW115576   2.070   1.397  22.515
 1316SOL    HW215577   2.080   1.514  22.419
 1317SOL     OW15578   2.711   1.957  26.108
 1317SOL    HW115579   2.681   1.928  26.194
 1317SOL    HW215580   2.695   1.882  26.050
 1318SOL     OW15581   0.563   0.116   1.054
 1318SOL    HW115582   0.617   0.195   1.051
 1318SOL    HW215583   0.619   0.050   1.094
 1319SOL     OW15584   0.070   3.407  22.786
 1319SOL    HW115585   4.779   3.384  22.729
 1319SOL    HW215586   0.060   3.501  22.800
 1320SOL     OW15587   3.679   1.237   6.203
 1320SOL    HW115588   3.701   1.241   6.110
 1320SOL    HW215589   3.760   1.208   6.245
 1321SOL     OW15590   3.594   2.194  22.523
 1321SOL    HW115591   3.604   2.287  22.542
 1321SOL    HW215592   3.521   2.190  22.460
 1322SOL     OW15593   1.655   2.189  10.575
 1322SOL    HW115594   1.634   2.108  10.528
 1322SOL    HW215595   1.593   2.191  10.649
 1323SOL     OW15596   1.878   0.112   1.721
 1323SOL    HW115597   1.814   0.172   1.762
 1323SOL    HW215598   1.953   0.115   1.780
 1324SOL     OW15599   3.083   2.018  10.048
 1324SOL    HW115600   3.092   2.015  10.143
 1324SOL    HW215601   3.082   2.111  10.027
 1325SOL     OW15602   3.353   4.508   9.826
 1325SOL    HW115603   3.258   4.496   9.820
 1325SOL    HW215604   3.388   4.461   9.751
 1326SOL     OW15605   0.874   1.553  22.662
 1326SOL    HW115606   0.904   1.515  22.579
 1326SOL    HW215607   0.832   1.636  22.636
 1327SOL     OW15608   3.554   4.287   7.518
 1327SOL    HW115609   3.603   4.279   7.600
 1327SOL    HW215610   3.619   4.313   7.453
 1328SOL     OW15611   0.524   0.046  23.817
 1328SOL    HW115612   0.518   4.733  23.828
 1328SOL    HW215613   0.443   0.079  23.856
 1329SOL     OW15614   1.903   2.968   6.182
 1329SOL    HW115615   1.877   2.909   6.254
 1329SOL    HW215616   1.820   3.004   6.150
 1330SOL     OW15617   3.863   0.597  21.874
 1330SOL    HW115618   3.917   0.611  21.951
 1330SOL    HW215619   3.774   0.589  21.908
 1331SOL     OW15620   1.317   4.313   7.793
 1331SOL    HW115621   1.360   4.379   7.738
 1331SOL    HW215622   1.236   4.356   7.822
 1332SOL     OW15623   1.367   3.640  24.276
 1332SOL    HW115624   1.348   3.734  24.281
 1332SOL    HW215625   1.337   3.606  24.361
 1333SOL     OW15626   4.673   0.708  28.178
 1333SOL    HW115627   4.744   0.676  28.122
 1333SOL    HW215628   4.601   0.726  28.118
 1334SOL     OW15629   0.324   0.639  27.103
 1334SOL    HW115630   0.342   0.577  27.032
 1334SOL    HW215631   0.403   0.638  27.156
 1335SOL     OW15632   1.937   0.660   1.864
 1335SOL    HW115633   1.955   0.749   1.833
 1335SOL    HW215634   1.919   0.670   1.958
 1336SOL     OW15635   4.193   1.128   1.131
 1336SOL    HW115636   4.108   1.113   1.089
 1336SOL    HW215637   4.251   1.157   1.060
 1337SOL     OW15638   0.458   3.490   4.155
 1337SOL    HW115639   0.429   3.568   4.201
 1337SOL    HW215640   0.466   3.423   4.224
 1338SOL     OW15641   2.038   0.288   4.061
 1338SOL    HW115642   2.068   0.284   4.152
 1338SOL    HW215643   2.098   0.229   4.014
 1339SOL     OW15644   1.878   3.556  26.545
 1339SOL    HW115645   1.788   3.578  26.570
 1339SOL    HW215646   1.870   3.520  26.457
 1340SOL     OW15647   4.352   1.834   2.583
 1340SOL    HW115648   4.316   1.768   2.642
 1340SOL    HW215649   4.413   1.884   2.637
 1341SOL     OW15650   0.459   3.168  25.977
 1341SOL    HW115651   0.550   3.178  26.005
 1341SOL    HW215652   0.415   3.125  26.050
 1342SOL     OW15653   4.505   0.119  26.078
 1342SOL    HW115654   4.410   0.120  26.080
 1342SOL    HW215655   4.531   0.207  26.105
 1343SOL     OW15656   1.011   4.384  18.452
 1343SOL    HW115657   0.937   4.387  18.391
 1343SOL    HW215658   0.986   4.443  18.523
 1344SOL     OW15659   1.944   2.370  22.450
 1344SOL    HW115660   1.943   2.368  22.546
 1344SOL    HW215661   1.853   2.351  22.425
 1345SOL     OW15662   4.433   1.367  23.138
 1345SOL    HW115663   4.404   1.427  23.070
 1345SOL    HW215664   4.488   1.421  23.196
 1346SOL     OW15665   4.156   4.310   2.940
 1346SOL    HW115666   4.110   4.393   2.923
 1346SOL    HW215667   4.164   4.307   3.035
 1347SOL     OW15668   1.084   1.851   6.217
 1347SOL    HW115669   1.024   1.904   6.165
 1347SOL    HW215670   1.050   1.762   6.208
 1348SOL     OW15671   3.076   2.626   8.631
 1348SOL    HW115672   3.165   2.660   8.646
 1348SOL    HW215673   3.087   2.531   8.634
 1349SOL     OW15674   2.565   3.518   7.908
 1349SOL    HW115675   2.520   3.488   7.987
 1349SOL    HW215676   2.558   3.613   7.911
 1350SOL     OW15677   0.952   3.025   4.750
 1350SOL    HW115678   0.867   3.006   4.711
 1350SOL    HW215679   0.989   2.939   4.772
 1351SOL     OW15680   1.454   1.367  18.055
 1351SOL    HW115681   1.529   1.310  18.073
 1351SOL    HW215682   1.431   1.348  17.964
 1352SOL     OW15683   2.047   0.836   3.195
 1352SOL    HW115684   2.019   0.905   3.256
 1352SOL    HW215685   2.056   0.758   3.250
 1353SOL     OW15686   2.578   0.156  18.769
 1353SOL    HW115687   2.553   0.218  18.837
 1353SOL    HW215688   2.573   0.206  18.688
 1354SOL     OW15689   3.050   1.915   6.924
 1354SOL    HW115690   3.015   1.892   6.838
 1354SOL    HW215691   3.099   1.996   6.909
 1355SOL     OW15692   0.449   1.487   9.507
 1355SOL    HW115693   0.531   1.438   9.506
 1355SOL    HW215694   0.399   1.449   9.580
 1356SOL     OW15695   1.901   3.734  11.237
 1356SOL    HW115696   1.854   3.734  11.153
 1356SOL    HW215697   1.990   3.762  11.215
 1357SOL     OW15698   1.110   4.714   0.760
 1357SOL    HW115699   1.111   4.635   0.814
 1357SOL    HW215700   1.045   4.696   0.692
 1358SOL     OW15701   2.150   4.716   2.345
 1358SOL    HW115702   2.091   4.759   2.284
 1358SOL    HW215703   2.175   0.003   2.407
 1359SOL     OW15704   2.213   0.609  27.708
 1359SOL    HW115705   2.209   0.617  27.803
 1359SOL    HW215706   2.305   0.622  27.686
 1360SOL     OW15707   2.791   1.195  26.677
 1360SOL    HW115708   2.868   1.164  26.724
 1360SOL    HW215709   2.823   1.210  26.587
 1361SOL     OW15710   2.150   0.591  19.145
 1361SOL    HW115711   2.122   0.606  19.055
 1361SOL    HW215712   2.079   0.627  19.198
 1362SOL     OW15713   2.718   3.889   5.060
 1362SOL    HW115714   2.762   3.911   5.143
 1362SOL    HW215715   2.630   3.924   5.070
 1363SOL     OW15716   2.709   2.209   8.902
 1363SOL    HW115717   2.750   2.125   8.880
 1363SOL    HW215718   2.781   2.273   8.899
 1364SOL     OW15719   0.282   2.675  27.486
 1364SOL    HW115720   0.221   2.621  27.536
 1364SOL    HW215721   0.366   2.666  27.532
 1365SOL     OW15722   2.848   4.521   7.297
 1365SOL    HW115723   2.831   4.494   7.387
 1365SOL    HW215724   2.770   4.571   7.272
 1366SOL     OW15725   4.752   0.379  27.721
 1366SOL    HW115726   4.697   0.365  27.799
 1366SOL    HW215727   4.771   0.292  27.689
 1367SOL     OW15728   2.433   3.204   6.285
 1367SOL    HW115729   2.411   3.294   6.311
 1367SOL    HW215730   2.419   3.202   6.191
 1368SOL     OW15731   0.371   2.241   1.545
 1368SOL    HW115732   0.334   2.201   1.623
 1368SOL    HW215733   0.442   2.182   1.519
 1369SOL     OW15734   4.398   1.990  23.939
 1369SOL    HW115735   4.483   1.960  23.970
 1369SOL    HW215736   4.397   1.968  23.846
 1370SOL     OW15737   3.315   1.967  21.303
 1370SOL    HW115738   3.272   1.906  21.362
 1370SOL    HW215739   3.381   2.011  21.357
 1371SOL     OW15740   1.713   3.146  28.074
 1371SOL    HW115741   1.715   3.054  28.048
 1371SOL    HW215742   1.790   3.185  28.033
 1372SOL     OW15743   0.451   3.863  27.954
 1372SOL    HW115744   0.377   3.809  27.982
 1372SOL    HW215745   0.420   3.953  27.965
 1373SOL     OW15746   0.337   1.189   9.161
 1373SOL    HW115747   0.307   1.165   9.073
 1373SOL    HW215748   0.413   1.245   9.146
 1374SOL     OW15749   0.118   4.734   5.354
 1374SOL    HW115750   0.127   4.776   5.269
 1374SOL    HW215751   0.032   4.693   5.352
 1375SOL     OW15752   2.423   3.419   9.966
 1375SOL    HW115753   2.416   3.472   9.887
 1375SOL    HW215754   2.503   3.450  10.009
 1376SOL     OW15755   1.911   3.604  24.926
 1376SOL    HW115756   1.993   3.632  24.885
 1376SOL    HW215757   1.889   3.675  24.987
 1377SOL     OW15758   1.067   2.097   3.012
 1377SOL    HW115759   1.088   2.137   3.096
 1377SOL    HW215760   1.089   2.005   3.022
 1378SOL     OW15761   3.520   3.918  24.517
 1378SOL    HW115762   3.610   3.939  24.490
 1378SOL    HW215763   3.529   3.882  24.605
 1379SOL     OW15764   2.404   2.602  24.121
 1379SOL    HW115765   2.453   2.665  24.173
 1379SOL    HW215766   2.328   2.581  24.176
 1380SOL     OW15767   4.406   3.764   0.987
 1380SOL    HW115768   4.379   3.783   1.077
 1380SOL    HW215769   4.358   3.685   0.963
 1381SOL     OW15770   2.448   1.645   1.343
 1381SOL    HW115771   2.504   1.633   1.267
 1381SOL    HW215772   2.380   1.706   1.315
 1382SOL     OW15773   1.903   0.530  11.900
 1382SOL    HW115774   1.838   0.498  11.964
 1382SOL    HW215775   1.980   0.551  11.952
 1383SOL     OW15776   0.219   1.430  21.483
 1383SOL    HW115777   0.314   1.427  21.494
 1383SOL    HW215778   0.185   1.368  21.547
 1384SOL     OW15779   2.623   2.842  23.131
 1384SOL    HW115780   2.659   2.868  23.216
 1384SOL    HW215781   2.555   2.907  23.114
 1385SOL     OW15782   1.663   2.946  23.634
 1385SOL    HW115783   1.687   2.882  23.567
 1385SOL    HW215784   1.571   2.929  23.654
 1386SOL     OW15785   1.699   0.739  23.458
 1386SOL    HW115786   1.730   0.784  23.379
 1386SOL    HW215787   1.638   0.800  23.499
 1387SOL     OW15788   1.668   3.302   5.295
 1387SOL    HW115789   1.735   3.314   5.228
 1387SOL    HW215790   1.706   3.341   5.374
 1388SOL     OW15791   1.685   3.132   2.751
 1388SOL    HW115792   1.719   3.056   2.703
 1388SOL    HW215793   1.597   3.145   2.716
 1389SOL     OW15794   4.476   3.092  20.381
 1389SOL    HW115795   4.421   3.013  20.379
 1389SOL    HW215796   4.459   3.131  20.466
 1390SOL     OW15797   0.353   1.483   0.441
 1390SOL    HW115798   0.350   1.578   0.426
 1390SOL    HW215799   0.418   1.451   0.377
 1391SOL     OW15800   3.882   4.123  21.368
 1391SOL    HW115801   3.811   4.060  21.361
 1391SOL    HW215802   3.843   4.206  21.340
 1392SOL     OW15803   4.449   2.365  19.074
 1392SOL    HW115804   4.402   2.424  19.015
 1392SOL    HW215805   4.471   2.419  19.149
 1393SOL     OW15806   4.111   1.488  19.194
 1393SOL    HW115807   4.053   1.456  19.124
 1393SOL    HW215808   4.111   1.418  19.259
 1394SOL     OW15809   0.874   1.473   6.713
 1394SOL    HW115810   0.953   1.438   6.672
 1394SOL    HW215811   0.878   1.441   6.803
 1395SOL     OW15812   3.316   1.150   4.899
 1395SOL    HW115813   3.388   1.102   4.940
 1395SOL    HW215814   3.254   1.083   4.873
 1396SOL     OW15815   4.200   0.630   9.731
 1396SOL    HW115816   4.249   0.681   9.796
 1396SOL    HW215817   4.216   0.539   9.756
 1397SOL     OW15818   0.520   3.917   1.648
 1397SOL    HW115819   0.549   3.962   1.727
 1397SOL    HW215820   0.484   3.834   1.679
 1398SOL     OW15821   1.997   3.473   4.027
 1398SOL    HW115822   2.077   3.523   4.009
 1398SOL    HW215823   1.947   3.477   3.945
 1399SOL     OW15824   0.629   1.678  28.289
 1399SOL    HW115825   0.681   1.630  28.225
 1399SOL    HW215826   0.579   1.742  28.238
 1400SOL     OW15827   1.574   4.616   0.817
 1400SOL    HW115828   1.484   4.608   0.783
 1400SOL    HW215829   1.601   4.526   0.836
 1401SOL     OW15830   4.775   2.324   2.540
 1401SOL    HW115831   0.077   2.367   2.557
 1401SOL    HW215832   4.721   2.393   2.502
 1402SOL     OW15833   3.244   1.104  21.217
 1402SOL    HW115834   3.226   1.193  21.187
 1402SOL    HW215835   3.336   1.104  21.241
 1403SOL     OW15836   2.494   3.767  26.186
 1403SOL    HW115837   2.575   3.717  26.187
 1403SOL    HW215838   2.494   3.813  26.102
 1404SOL     OW15839   3.812   3.049  25.011
 1404SOL    HW115840   3.872   2.993  24.961
 1404SOL    HW215841   3.865   3.126  25.033
 1405SOL     OW15842   3.260   4.560  19.834
 1405SOL    HW115843   3.313   4.482  19.813
 1405SOL    HW215844   3.232   4.545  19.925
 1406SOL     OW15845   4.182   3.733  26.126
 1406SOL    HW115846   4.218   3.804  26.072
 1406SOL    HW215847   4.087   3.741  26.114
 1407SOL     OW15848   1.782   3.218  23.760
 1407SOL    HW115849   1.732   3.237  23.840
 1407SOL    HW215850   1.743   3.136  23.727
 1408SOL     OW15851   0.477   3.622  18.721
 1408SOL    HW115852   0.491   3.712  18.751
 1408SOL    HW215853   0.382   3.609  18.727
 1409SOL     OW15854   0.638   2.078  20.413
 1409SOL    HW115855   0.662   2.170  20.404
 1409SOL    HW215856   0.573   2.077  20.482
 1410SOL     OW15857   1.230   0.476  23.350
 1410SOL    HW115858   1.275   0.392  23.351
 1410SOL    HW215859   1.295   0.539  23.380
 1411SOL     OW15860   3.605   4.265  27.208
 1411SOL    HW115861   3.522   4.240  27.249
 1411SOL    HW215862   3.671   4.218  27.259
 1412SOL     OW15863   0.154   2.306  25.335
 1412SOL    HW115864   0.078   2.291  25.392
 1412SOL    HW215865   0.211   2.364  25.386
 1413SOL     OW15866   0.022   2.257  22.436
 1413SOL    HW115867   0.117   2.250  22.429
 1413SOL    HW215868   4.772   2.173  22.404
 1414SOL     OW15869   4.605   2.600  17.202
 1414SOL    HW115870   4.580   2.525  17.257
 1414SOL    HW215871   4.701   2.603  17.209
 1415SOL     OW15872   4.544   0.097   3.217
 1415SOL    HW115873   4.582   0.147   3.288
 1415SOL    HW215874   4.539   0.007   3.251
 1416SOL     OW15875   0.928   0.716   8.735
 1416SOL    HW115876   0.945   0.622   8.734
 1416SOL    HW215877   0.934   0.741   8.828
 1417SOL     OW15878   2.951   1.905  23.069
 1417SOL    HW115879   3.012   1.979  23.079
 1417SOL    HW215880   2.904   1.924  22.988
 1418SOL     OW15881   0.835   2.406  25.053
 1418SOL    HW115882   0.911   2.457  25.026
 1418SOL    HW215883   0.794   2.378  24.971
 1419SOL     OW15884   1.445   1.298   8.796
 1419SOL    HW115885   1.446   1.324   8.704
 1419SOL    HW215886   1.434   1.380   8.844
 1420SOL     OW15887   2.960   2.201   7.166
 1420SOL    HW115888   2.906   2.274   7.136
 1420SOL    HW215889   2.942   2.194   7.260
 1421SOL     OW15890   2.502   0.015  19.878
 1421SOL    HW115891   2.523   0.101  19.841
 1421SOL    HW215892   2.407   0.009  19.872
 1422SOL     OW15893   0.072   3.244   1.030
 1422SOL    HW115894   0.075   3.297   1.109
 1422SOL    HW215895   0.163   3.217   1.016
 1423SOL     OW15896   3.864   3.047  25.794
 1423SOL    HW115897   3.841   2.997  25.716
 1423SOL    HW215898   3.824   3.133  25.781
 1424SOL     OW15899   4.429   3.002   3.924
 1424SOL    HW115900   4.418   3.096   3.911
 1424SOL    HW215901   4.361   2.978   3.986
 1425SOL     OW15902   1.325   3.567   8.493
 1425SOL    HW115903   1.232   3.558   8.514
 1425SOL    HW215904   1.367   3.587   8.577
 1426SOL     OW15905   0.097   2.570  17.215
 1426SOL    HW115906   0.140   2.644  17.258
 1426SOL    HW215907   0.121   2.579  17.123
 1427SOL     OW15908   3.402   1.455  20.049
 1427SOL    HW115909   3.327   1.418  20.002
 1427SOL    HW215910   3.399   1.414  20.135
 1428SOL     OW15911   1.815   2.327  24.348
 1428SOL    HW115912   1.764   2.371  24.280
 1428SOL    HW215913   1.898   2.374  24.351
 1429SOL     OW15914   1.845   4.484  23.948
 1429SOL    HW115915   1.926   4.441  23.921
 1429SOL    HW215916   1.841   4.563  23.893
 1430SOL     OW15917   1.510   4.675  24.713
 1430SOL    HW115918   1.596   4.679  24.671
 1430SOL    HW215919   1.469   4.597  24.676
 1431SOL     OW15920   0.119   1.902   7.571
 1431SOL    HW115921   0.201   1.873   7.611
 1431SOL    HW215922   0.057   1.907   7.644
 1432SOL     OW15923   4.474   2.886  21.401
 1432SOL    HW115924   4.454   2.876  21.308
 1432SOL    HW215925   4.391   2.871  21.445
 1433SOL     OW15926   2.648   4.077  27.541
 1433SOL    HW115927   2.581   4.014  27.567
 1433SOL    HW215928   2.728   4.045  27.582
 1434SOL     OW15929   3.164   1.170  27.374
 1434SOL    HW115930   3.128   1.210  27.453
 1434SOL    HW215931   3.218   1.239  27.335
 1435SOL     OW15932   1.012   4.036   9.492
 1435SOL    HW115933   1.060   3.964   9.533
 1435SOL    HW215934   1.064   4.059   9.416
 1436SOL     OW15935   1.293   3.382  24.940
 1436SOL    HW115936   1.306   3.469  24.902
 1436SOL    HW215937   1.207   3.354  24.909
 1437SOL     OW15938   0.673   0.275   1.460
 1437SOL    HW115939   0.736   0.347   1.465
 1437SOL    HW215940   0.726   0.196   1.476
 1438SOL     OW15941   0.654   0.165   2.130
 1438SOL    HW115942   0.702   0.162   2.213
 1438SOL    HW215943   0.571   0.207   2.153
 1439SOL     OW15944   4.123   1.365   0.237
 1439SOL    HW115945   4.097   1.393   0.149
 1439SOL    HW215946   4.145   1.445   0.283
 1440SOL     OW15947   1.919   2.212  10.585
 1440SOL    HW115948   1.943   2.132  10.538
 1440SOL    HW215949   1.824   2.217  10.577
 1441SOL     OW15950   2.506   2.664  24.472
 1441SOL    HW115951   2.524   2.756  24.454
 1441SOL    HW215952   2.574   2.617  24.424
 1442SOL     OW15953   1.744   3.532  20.975
 1442SOL    HW115954   1.803   3.460  20.996
 1442SOL    HW215955   1.705   3.507  20.891
 1443SOL     OW15956   2.911   0.316  25.840
 1443SOL    HW115957   2.969   0.272  25.902
 1443SOL    HW215958   2.952   0.402  25.827
 1444SOL     OW15959   1.509   3.779  10.338
 1444SOL    HW115960   1.453   3.819  10.404
 1444SOL    HW215961   1.594   3.819  10.351
 1445SOL     OW15962   0.225   4.710   9.085
 1445SOL    HW115963   0.290   4.714   9.156
 1445SOL    HW215964   0.275   4.731   9.006
 1446SOL     OW15965   0.591   1.764  24.589
 1446SOL    HW115966   0.499   1.759  24.616
 1446SOL    HW215967   0.640   1.759  24.671
 1447SOL     OW15968   2.206   4.772  27.963
 1447SOL    HW115969   2.154   4.716  28.020
 1447SOL    HW215970   2.295   4.763  27.995
 1448SOL     OW15971   0.305   4.516  24.762
 1448SOL    HW115972   0.399   4.503  24.764
 1448SOL    HW215973   0.285   4.566  24.841
 1449SOL     OW15974   1.133   1.873  26.095
 1449SOL    HW115975   1.172   1.798  26.050
 1449SOL    HW215976   1.138   1.850  26.188
 1450SOL     OW15977   2.245   3.353  28.343
 1450SOL    HW115978   2.265   3.446  28.349
 1450SOL    HW215979   2.163   3.342  28.392
 1451SOL     OW15980   1.911   2.717  26.272
 1451SOL    HW115981   1.827   2.686  26.306
 1451SOL    HW215982   1.917   2.808  26.302
 1452SOL     OW15983   3.863   0.653  17.938
 1452SOL    HW115984   3.956   0.656  17.958
 1452SOL    HW215985   3.830   0.739  17.962
 1453SOL     OW15986   2.958   0.898  20.395
 1453SOL    HW115987   3.035   0.940  20.357
 1453SOL    HW215988   2.909   0.865  20.319
 1454SOL     OW15989   4.674   0.148   1.790
 1454SOL    HW115990   4.666   0.053   1.782
 1454SOL    HW215991   4.752   0.170   1.739
 1455SOL     OW15992   3.158   0.183  10.273
 1455SOL    HW115993   3.112   0.101  10.291
 1455SOL    HW215994   3.100   0.251  10.305
 1456SOL     OW15995   0.753   2.946   1.885
 1456SOL    HW115996   0.709   2.864   1.866
 1456SOL    HW215997   0.767   2.945   1.980
 1457SOL     OW15998   1.311   0.946  27.692
 1457SOL    HW115999   1.368   1.011  27.730
 1457SOL    HW216000   1.284   0.891  27.765
 1458SOL     OW16001   0.272   1.405   6.868
 1458SOL    HW116002   0.358   1.400   6.909
 1458SOL    HW216003   0.289   1.438   6.780
 1459SOL     OW16004   0.542   4.317  19.601
 1459SOL    HW116005   0.602   4.350  19.668
 1459SOL    HW216006   0.455   4.326  19.640
 1460SOL     OW16007   4.553   1.387  20.186
 1460SOL    HW116008   4.535   1.345  20.270
 1460SOL    HW216009   4.487   1.352  20.127
 1461SOL     OW16010   2.920   1.722  12.454
 1461SOL    HW116011   2.976   1.709  12.378
 1461SOL    HW216012   2.836   1.749  12.418
 1462SOL     OW16013   1.902   4.037  20.934
 1462SOL    HW116014   1.899   4.116  20.989
 1462SOL    HW216015   1.981   4.048  20.882
 1463SOL     OW16016   2.536   4.485   4.673
 1463SOL    HW116017   2.482   4.433   4.732
 1463SOL    HW216018   2.626   4.471   4.704
 1464SOL     OW16019   3.562   1.247   7.384
 1464SOL    HW116020   3.551   1.178   7.450
 1464SOL    HW216021   3.583   1.325   7.434
 1465SOL     OW16022   1.219   1.349  20.320
 1465SOL    HW116023   1.302   1.357  20.366
 1465SOL    HW216024   1.188   1.261  20.343
 1466SOL     OW16025   4.319   4.756  20.106
 1466SOL    HW116026   4.366   0.045  20.149
 1466SOL    HW216027   4.231   4.759  20.144
 1467SOL     OW16028   1.129   3.874   7.794
 1467SOL    HW116029   1.124   3.786   7.831
 1467SOL    HW216030   1.198   3.868   7.727
 1468SOL     OW16031   0.241   3.810  25.831
 1468SOL    HW116032   0.220   3.744  25.896
 1468SOL    HW216033   0.266   3.760  25.753
 1469SOL     OW16034   3.711   1.707   1.128
 1469SOL    HW116035   3.722   1.749   1.043
 1469SOL    HW216036   3.626   1.738   1.160
 1470SOL     OW16037   3.430   0.891   3.917
 1470SOL    HW116038   3.448   0.891   4.011
 1470SOL    HW216039   3.513   0.864   3.877
 1471SOL     OW16040   2.816   3.224  10.149
 1471SOL    HW116041   2.832   3.231  10.243
 1471SOL    HW216042   2.727   3.189  10.142
 1472SOL     OW16043   4.163   4.707   5.281
 1472SOL    HW116044   4.092   4.762   5.249
 1472SOL    HW216045   4.242   4.748   5.245
 1473SOL     OW16046   2.206   4.344  21.779
 1473SOL    HW116047   2.245   4.276  21.723
 1473SOL    HW216048   2.258   4.341  21.860
 1474SOL     OW16049   3.328   0.686  20.030
 1474SOL    HW116050   3.280   0.769  20.033
 1474SOL    HW216051   3.349   0.674  19.938
 1475SOL     OW16052   2.688   0.445   6.878
 1475SOL    HW116053   2.637   0.414   6.953
 1475SOL    HW216054   2.726   0.528   6.906
 1476SOL     OW16055   1.871   1.105   3.812
 1476SOL    HW116056   1.879   1.011   3.830
 1476SOL    HW216057   1.840   1.109   3.721
 1477SOL     OW16058   2.422   0.903  24.601
 1477SOL    HW116059   2.482   0.933  24.533
 1477SOL    HW216060   2.394   0.983  24.645
 1478SOL     OW16061   3.484   1.463   9.150
 1478SOL    HW116062   3.404   1.435   9.195
 1478SOL    HW216063   3.468   1.440   9.058
 1479SOL     OW16064   0.416   3.455   0.846
 1479SOL    HW116065   0.452   3.407   0.772
 1479SOL    HW216066   0.389   3.387   0.908
 1480SOL     OW16067   2.523   3.198   7.034
 1480SOL    HW116068   2.618   3.184   7.027
 1480SOL    HW216069   2.509   3.224   7.125
 1481SOL     OW16070   0.466   0.321  24.921
 1481SOL    HW116071   0.409   0.258  24.876
 1481SOL    HW216072   0.510   0.367  24.850
 1482SOL     OW16073   2.640   0.072  27.955
 1482SOL    HW116074   2.675   0.085  27.867
 1482SOL    HW216075   2.694   0.126  28.012
 1483SOL     OW16076   3.784   0.227   7.100
 1483SOL    HW116077   3.773   0.321   7.087
 1483SOL    HW216078   3.865   0.219   7.152
 1484SOL     OW16079   3.403   3.448  24.862
 1484SOL    HW116080   3.496   3.429  24.851
 1484SOL    HW216081   3.377   3.396  24.939
 1485SOL     OW16082   4.421   3.480  23.830
 1485SOL    HW116083   4.365   3.520  23.763
 1485SOL    HW216084   4.480   3.551  23.856
 1486SOL     OW16085   2.821   1.161   1.981
 1486SOL    HW116086   2.764   1.090   1.953
 1486SOL    HW216087   2.826   1.219   1.904
 1487SOL     OW16088   1.284   1.918   6.821
 1487SOL    HW116089   1.231   1.981   6.773
 1487SOL    HW216090   1.271   1.835   6.775
 1488SOL     OW16091   3.386   3.457   7.761
 1488SOL    HW116092   3.324   3.457   7.687
 1488SOL    HW216093   3.470   3.480   7.722
 1489SOL     OW16094   4.746   4.439   8.821
 1489SOL    HW116095   4.773   4.443   8.912
 1489SOL    HW216096   4.656   4.406   8.824
 1490SOL     OW16097   0.025   1.078   4.310
 1490SOL    HW116098   0.106   1.041   4.275
 1490SOL    HW216099   4.743   1.063   4.241
 1491SOL     OW16100   1.481   4.597  21.165
 1491SOL    HW116101   1.400   4.634  21.130
 1491SOL    HW216102   1.507   4.657  21.235
 1492SOL     OW16103   1.674   3.286   2.436
 1492SOL    HW116104   1.733   3.244   2.373
 1492SOL    HW216105   1.733   3.330   2.498
 1493SOL     OW16106   0.012   0.644   6.377
 1493SOL    HW116107   4.774   0.738   6.383
 1493SOL    HW216108   4.716   0.605   6.338
 1494SOL     OW16109   1.070   0.698  11.337
 1494SOL    HW116110   1.027   0.758  11.399
 1494SOL    HW216111   1.132   0.649  11.390
 1495SOL     OW16112   1.444   0.476   4.285
 1495SOL    HW116113   1.391   0.424   4.345
 1495SOL    HW216114   1.530   0.433   4.285
 1496SOL     OW16115   1.959   1.512   6.103
 1496SOL    HW116116   1.954   1.576   6.174
 1496SOL    HW216117   1.904   1.440   6.131
 1497SOL     OW16118   0.918   2.931  22.735
 1497SOL    HW116119   1.010   2.917  22.756
 1497SOL    HW216120   0.877   2.953  22.819
 1498SOL     OW16121   2.306   3.527   1.747
 1498SOL    HW116122   2.252   3.586   1.799
 1498SOL    HW216123   2.379   3.581   1.717
 1499SOL     OW16124   2.223   3.164  21.294
 1499SOL    HW116125   2.206   3.115  21.375
 1499SOL    HW216126   2.284   3.109  21.246
 1500SOL     OW16127   2.348   3.133   3.564
 1500SOL    HW116128   2.254   3.115   3.557
 1500SOL    HW216129   2.361   3.213   3.512
 1501SOL     OW16130   1.522   0.419  26.049
 1501SOL    HW116131   1.456   0.486  26.029
 1501SOL    HW216132   1.557   0.444  26.134
 1502SOL     OW16133   3.224   0.056  27.259
 1502SOL    HW116134   3.243   0.118  27.329
 1502SOL    HW216135   3.239   0.105  27.178
 1503SOL     OW16136   3.262   4.640   1.004
 1503SOL    HW116137   3.285   4.593   1.084
 1503SOL    HW216138   3.337   4.626   0.946
 1504SOL     OW16139   1.924   4.511   5.319
 1504SOL    HW116140   1.858   4.466   5.371
 1504SOL    HW216141   1.890   4.511   5.230
 1505SOL     OW16142   1.088   1.918  19.688
 1505SOL    HW116143   1.098   2.010  19.664
 1505SOL    HW216144   1.000   1.895  19.657
 1506SOL     OW16145   3.617   1.051  22.616
 1506SOL    HW116146   3.543   1.055  22.556
 1506SOL    HW216147   3.591   1.105  22.691
 1507SOL     OW16148   1.230   2.510   7.733
 1507SOL    HW116149   1.190   2.437   7.686
 1507SOL    HW216150   1.162   2.541   7.792
 1508SOL     OW16151   3.523   4.498  26.655
 1508SOL    HW116152   3.488   4.547  26.728
 1508SOL    HW216153   3.466   4.519  26.581
 1509SOL     OW16154   0.979   1.924  20.067
 1509SOL    HW116155   1.038   2.000  20.066
 1509SOL    HW216156   0.894   1.961  20.090
 1510SOL     OW16157   4.416   1.475  21.331
 1510SOL    HW116158   4.459   1.422  21.264
 1510SOL    HW216159   4.457   1.561  21.324
 1511SOL     OW16160   4.213   2.627  24.467
 1511SOL    HW116161   4.236   2.564  24.535
 1511SOL    HW216162   4.119   2.642  24.479
 1512SOL     OW16163   2.292   2.749   8.757
 1512SOL    HW116164   2.207   2.785   8.734
 1512SOL    HW216165   2.339   2.823   8.797
 1513SOL     OW16166   1.165   0.361   3.232
 1513SOL    HW116167   1.102   0.378   3.162
 1513SOL    HW216168   1.151   0.432   3.295
 1514SOL     OW16169   3.823   0.270   1.721
 1514SOL    HW116170   3.797   0.288   1.631
 1514SOL    HW216171   3.741   0.257   1.768
 1515SOL     OW16172   4.574   3.548   0.413
 1515SOL    HW116173   4.578   3.470   0.469
 1515SOL    HW216174   4.547   3.619   0.473
 1516SOL     OW16175   4.621   4.530  25.941
 1516SOL    HW116176   4.690   4.498  25.998
 1516SOL    HW216177   4.543   4.531  25.996
 1517SOL     OW16178   0.095   1.760   3.307
 1517SOL    HW116179   0.092   1.854   3.293
 1517SOL    HW216180   0.175   1.731   3.264
 1518SOL     OW16181   4.621   0.389  23.666
 1518SOL    HW116182   4.591   0.427  23.584
 1518SOL    HW216183   4.643   0.465  23.721
 1519SOL     OW16184   0.975   2.946   2.485
 1519SOL    HW116185   0.945   3.000   2.411
 1519SOL    HW216186   1.046   2.893   2.449
 1520SOL     OW16187   4.027   3.184  24.769
 1520SOL    HW116188   4.002   3.275  24.787
 1520SOL    HW216189   4.121   3.182  24.782
 1521SOL     OW16190   3.323   3.728   1.638
 1521SOL    HW116191   3.401   3.714   1.691
 1521SOL    HW216192   3.311   3.823   1.636
 1522SOL     OW16193   1.017   0.166   0.394
 1522SOL    HW116194   1.046   0.247   0.352
 1522SOL    HW216195   1.095   0.111   0.398
 1523SOL     OW16196   3.416   3.609  20.870
 1523SOL    HW116197   3.468   3.533  20.896
 1523SOL    HW216198   3.453   3.635  20.786
 1524SOL     OW16199   3.691   2.418   0.412
 1524SOL    HW116200   3.771   2.405   0.463
 1524SOL    HW216201   3.709   2.495   0.358
 1525SOL     OW16202   3.232   3.202  22.646
 1525SOL    HW116203   3.168   3.272  22.658
 1525SOL    HW216204   3.315   3.240  22.672
 1526SOL     OW16205   3.316   1.495  26.078
 1526SOL    HW116206   3.318   1.466  25.986
 1526SOL    HW216207   3.304   1.590  26.073
 1527SOL     OW16208   1.946   3.929   3.672
 1527SOL    HW116209   1.890   4.006   3.678
 1527SOL    HW216210   1.920   3.886   3.591
 1528SOL     OW16211   0.561   2.390  27.669
 1528SOL    HW116212   0.628   2.445  27.711
 1528SOL    HW216213   0.518   2.346  27.742
 1529SOL     OW16214   0.256   2.066   6.550
 1529SOL    HW116215   0.335   2.091   6.597
 1529SOL    HW216216   0.215   2.150   6.527
 1530SOL     OW16217   4.140   2.234  27.881
 1530SOL    HW116218   4.171   2.237  27.972
 1530SOL    HW216219   4.068   2.172  27.882
 1531SOL     OW16220   1.594   1.500  26.029
 1531SOL    HW116221   1.683   1.466  26.035
 1531SOL    HW216222   1.543   1.446  26.090
 1532SOL     OW16223   3.861   4.767  27.118
 1532SOL    HW116224   3.805   4.691  27.100
 1532SOL    HW216225   3.950   4.735  27.103
 1533SOL     OW16226   0.384   4.253  26.445
 1533SOL    HW116227   0.430   4.334  26.464
 1533SOL    HW216228   0.322   4.243  26.517
 1534SOL     OW16229   0.322   0.393  24.607
 1534SOL    HW116230   0.248   0.384  24.666
 1534SOL    HW216231   0.362   0.476  24.632
 1535SOL     OW16232   1.420   2.669  19.888
 1535SOL    HW116233   1.512   2.691  19.898
 1535SOL    HW216234   1.373   2.749  19.911
 1536SOL     OW16235   2.459   2.840  10.947
 1536SOL    HW116236   2.520   2.870  11.013
 1536SOL    HW216237   2.490   2.879  10.865
 1537SOL     OW16238   1.534   1.522   6.003
 1537SOL    HW116239   1.560   1.435   5.973
 1537SOL    HW216240   1.444   1.532   5.973
 1538SOL     OW16241   2.811   3.228  21.152
 1538SOL    HW116242   2.884   3.279  21.185
 1538SOL    HW216243   2.741   3.243  21.216
 1539SOL     OW16244   4.329   4.611  25.728
 1539SOL    HW116245   4.363   4.522  25.729
 1539SOL    HW216246   4.395   4.662  25.680
 1540SOL     OW16247   2.780   0.064  23.755
 1540SOL    HW116248   2.822   0.145  23.725
 1540SOL    HW216249   2.740   0.027  23.676
 1541SOL     OW16250   4.482   1.072  25.314
 1541SOL    HW116251   4.389   1.088  25.329
 1541SOL    HW216252   4.488   0.978  25.299
 1542SOL     OW16253   3.605   2.048  17.725
 1542SOL    HW116254   3.658   2.005  17.659
 1542SOL    HW216255   3.633   2.140  17.722
 1543SOL     OW16256   4.208   4.695  20.646
 1543SOL    HW116257   4.262   4.707  20.568
 1543SOL    HW216258   4.210   4.780  20.689
 1544SOL     OW16259   2.665   3.311  19.420
 1544SOL    HW116260   2.656   3.391  19.368
 1544SOL    HW216261   2.750   3.274  19.394
 1545SOL     OW16262   2.284   2.733  11.161
 1545SOL    HW116263   2.342   2.748  11.086
 1545SOL    HW216264   2.328   2.778  11.234
 1546SOL     OW16265   3.984   0.725   4.843
 1546SOL    HW116266   3.943   0.810   4.854
 1546SOL    HW216267   3.936   0.684   4.770
 1547SOL     OW16268   3.690   1.899   7.264
 1547SOL    HW116269   3.724   1.903   7.354
 1547SOL    HW216270   3.742   1.965   7.217
 1548SOL     OW16271   1.557   4.182  28.525
 1548SOL    HW116272   1.619   4.116  28.495
 1548SOL    HW216273   1.494   4.134   0.048
 1549SOL     OW16274   0.826   2.841  26.118
 1549SOL    HW116275   0.894   2.840  26.185
 1549SOL    HW216276   0.766   2.910  26.145
 1550SOL     OW16277   3.097   1.543  21.913
 1550SOL    HW116278   3.092   1.483  21.839
 1550SOL    HW216279   3.120   1.487  21.988
 1551SOL     OW16280   2.206   1.083   1.413
 1551SOL    HW116281   2.143   1.087   1.484
 1551SOL    HW216282   2.207   0.991   1.386
 1552SOL     OW16283   3.425   2.077   1.548
 1552SOL    HW116284   3.348   2.030   1.514
 1552SOL    HW216285   3.439   2.148   1.486
 1553SOL     OW16286   1.439   0.775  22.925
 1553SOL    HW116287   1.369   0.810  22.980
 1553SOL    HW216288   1.494   0.851  22.905
 1554SOL     OW16289   3.744   3.260   5.378
 1554SOL    HW116290   3.817   3.240   5.319
 1554SOL    HW216291   3.740   3.356   5.380
 1555SOL     OW16292   2.559   0.135   2.006
 1555SOL    HW116293   2.616   0.181   2.067
 1555SOL    HW216294   2.506   0.205   1.966
 1556SOL     OW16295   3.487   0.834  27.219
 1556SOL    HW116296   3.507   0.887  27.142
 1556SOL    HW216297   3.570   0.793  27.243
 1557SOL     OW16298   4.043   1.410  21.536
 1557SOL    HW116299   4.002   1.386  21.452
 1557SOL    HW216300   4.019   1.339  21.596
 1558SOL     OW16301   0.129   1.595  10.477
 1558SOL    HW116302   0.222   1.593  10.496
 1558SOL    HW216303   0.119   1.542  10.398
 1559SOL     OW16304   0.098   2.794  26.653
 1559SOL    HW116305   0.143   2.799  26.569
 1559SOL    HW216306   0.119   2.706  26.686
 1560SOL     OW16307   4.190   1.685  26.503
 1560SOL    HW116308   4.188   1.626  26.428
 1560SOL    HW216309   4.243   1.759  26.474
 1561SOL     OW16310   0.026   4.675   8.291
 1561SOL    HW116311   0.058   4.604   8.235
 1561SOL    HW216312   4.727   4.642   8.329
 1562SOL     OW16313   4.661   2.940   1.867
 1562SOL    HW116314   4.571   2.966   1.849
 1562SOL    HW216315   4.699   2.922   1.781
 1563SOL     OW16316   1.761   0.701  27.661
 1563SOL    HW116317   1.680   0.741  27.630
 1563SOL    HW216318   1.738   0.610  27.679
 1564SOL     OW16319   1.774   3.319   4.265
 1564SOL    HW116320   1.762   3.325   4.170
 1564SOL    HW216321   1.694   3.278   4.297
 1565SOL     OW16322   4.334   4.217  21.194
 1565SOL    HW116323   4.264   4.153  21.204
 1565SOL    HW216324   4.289   4.301  21.184
 1566SOL     OW16325   2.088   3.392  23.208
 1566SOL    HW116326   2.003   3.409  23.246
 1566SOL    HW216327   2.151   3.411  23.278
 1567SOL     OW16328   4.651   4.657   1.770
 1567SOL    HW116329   4.710   4.635   1.698
 1567SOL    HW216330   4.662   4.585   1.832
 1568SOL     OW16331   3.435   1.626  22.506
 1568SOL    HW116332   3.448   1.640  22.600
 1568SOL    HW216333   3.478   1.701  22.465
 1569SOL     OW16334   1.722   0.690   6.400
 1569SOL    HW116335   1.679   0.605   6.397
 1569SOL    HW216336   1.816   0.670   6.393
 1570SOL     OW16337   3.956   1.208  25.156
 1570SOL    HW116338   3.990   1.203  25.067
 1570SOL    HW216339   3.872   1.253  25.148
 1571SOL     OW16340   3.331   3.382   9.043
 1571SOL    HW116341   3.415   3.335   9.042
 1571SOL    HW216342   3.316   3.402   9.135
 1572SOL     OW16343   0.031   1.822  25.273
 1572SOL    HW116344   0.084   1.808  25.352
 1572SOL    HW216345   0.045   1.914  25.250
 1573SOL     OW16346   4.754   4.328   3.462
 1573SOL    HW116347   4.686   4.299   3.402
 1573SOL    HW216348   0.043   4.266   3.448
 1574SOL     OW16349   4.071   2.874   4.473
 1574SOL    HW116350   4.003   2.891   4.408
 1574SOL    HW216351   4.023   2.860   4.554
 1575SOL     OW16352   4.308   3.735  22.523
 1575SOL    HW116353   4.358   3.700  22.597
 1575SOL    HW216354   4.266   3.658  22.485
 1576SOL     OW16355   0.818   0.048   5.837
 1576SOL    HW116356   0.871   0.099   5.898
 1576SOL    HW216357   0.822   4.741   5.870
 1577SOL     OW16358   4.645   1.163  22.812
 1577SOL    HW116359   4.620   1.147  22.903
 1577SOL    HW216360   4.592   1.101  22.761
 1578SOL     OW16361   4.647   4.434  27.087
 1578SOL    HW116362   4.612   4.361  27.137
 1578SOL    HW216363   4.695   4.487  27.151
 1579SOL     OW16364   2.923   3.204   3.023
 1579SOL    HW116365   2.897   3.118   3.056
 1579SOL    HW216366   2.981   3.184   2.949
 1580SOL     OW16367   4.574   4.637  22.523
 1580SOL    HW116368   4.584   4.731  22.531
 1580SOL    HW216369   4.481   4.621  22.540
 1581SOL     OW16370   1.756   2.207  22.784
 1581SOL    HW116371   1.723   2.118  22.796
 1581SOL    HW216372   1.677   2.262  22.787
 1582SOL     OW16373   2.559   1.774   5.072
 1582SOL    HW116374   2.612   1.845   5.108
 1582SOL    HW216375   2.493   1.757   5.139
 1583SOL     OW16376   0.867   0.201   0.682
 1583SOL    HW116377   0.908   0.190   0.596
 1583SOL    HW216378   0.908   0.135   0.737
 1584SOL     OW16379   3.579   4.451   6.697
 1584SOL    HW116380   3.538   4.365   6.694
 1584SOL    HW216381   3.594   4.467   6.791
 1585SOL     OW16382   4.605   1.298  17.622
 1585SOL    HW116383   4.567   1.261  17.542
 1585SOL    HW216384   4.628   1.222  17.675
 1586SOL     OW16385   3.325   2.058   5.802
 1586SOL    HW116386   3.312   2.094   5.714
 1586SOL    HW216387   3.303   2.130   5.861
 1587SOL     OW16388   2.151   2.902   8.230
 1587SOL    HW116389   2.200   2.967   8.280
 1587SOL    HW216390   2.150   2.825   8.286
 1588SOL     OW16391   4.406   2.250  27.850
 1588SOL    HW116392   4.315   2.280  27.848
 1588SOL    HW216393   4.399   2.155  27.860
 1589SOL     OW16394   1.534   2.650   9.159
 1589SOL    HW116395   1.511   2.607   9.241
 1589SOL    HW216396   1.484   2.603   9.092
 1590SOL     OW16397   3.710   4.527  28.527
 1590SOL    HW116398   3.694   4.435   0.019
 1590SOL    HW216399   3.750   4.565   0.074
 1591SOL     OW16400   0.208   3.624   0.867
 1591SOL    HW116401   0.209   3.657   0.956
 1591SOL    HW216402   0.284   3.566   0.861
 1592SOL     OW16403   3.579   2.162  28.418
 1592SOL    HW116404   3.485   2.163  28.402
 1592SOL    HW216405   3.609   2.081  28.377
 1593SOL     OW16406   2.007   0.672  27.506
 1593SOL    HW116407   1.927   0.686  27.557
 1593SOL    HW216408   2.077   0.674  27.571
 1594SOL     OW16409   0.435   2.405   6.414
 1594SOL    HW116410   0.392   2.405   6.328
 1594SOL    HW216411   0.495   2.330   6.411
 1595SOL     OW16412   2.691   2.015  26.760
 1595SOL    HW116413   2.704   1.975  26.846
 1595SOL    HW216414   2.778   2.049  26.736
 1596SOL     OW16415   0.347   0.298  27.133
 1596SOL    HW116416   0.381   0.220  27.176
 1596SOL    HW216417   0.414   0.365  27.149
 1597SOL     OW16418   3.497   2.137  25.975
 1597SOL    HW116419   3.465   2.162  25.888
 1597SOL    HW216420   3.437   2.179  26.036
 1598SOL     OW16421   1.185   0.332  12.141
 1598SOL    HW116422   1.158   0.396  12.075
 1598SOL    HW216423   1.111   0.273  12.150
 1599SOL     OW16424   4.380   1.504   6.042
 1599SOL    HW116425   4.462   1.544   6.071
 1599SOL    HW216426   4.394   1.410   6.055
 1600SOL     OW16427   2.763   4.426  19.180
 1600SOL    HW116428   2.785   4.339  19.146
 1600SOL    HW216429   2.848   4.466  19.199
 1601SOL     OW16430   2.218   4.692  27.341
 1601SOL    HW116431   2.154   4.647  27.285
 1601SOL    HW216432   2.172   4.708  27.423
 1602SOL     OW16433   0.808   1.996   6.108
 1602SOL    HW116434   0.722   2.024   6.140
 1602SOL    HW216435   0.844   2.074   6.066
 1603SOL     OW16436   4.389   1.231  17.868
 1603SOL    HW116437   4.397   1.149  17.819
 1603SOL    HW216438   4.465   1.232  17.927
 1604SOL     OW16439   2.998   2.408  22.625
 1604SOL    HW116440   2.915   2.451  22.603
 1604SOL    HW216441   3.039   2.390  22.541
 1605SOL     OW16442   3.440   1.955   6.120
 1605SOL    HW116443   3.535   1.964   6.122
 1605SOL    HW216444   3.407   2.045   6.118
 1606SOL     OW16445   4.365   0.737  20.356
 1606SOL    HW116446   4.339   0.806  20.295
 1606SOL    HW216447   4.422   0.781  20.419
 1607SOL     OW16448   3.290   3.941   9.392
 1607SOL    HW116449   3.197   3.920   9.384
 1607SOL    HW216450   3.324   3.875   9.454
 1608SOL     OW16451   3.432   1.831   1.676
 1608SOL    HW116452   3.343   1.811   1.706
 1608SOL    HW216453   3.427   1.919   1.640
 1609SOL     OW16454   2.821   2.636   9.906
 1609SOL    HW116455   2.755   2.653   9.839
 1609SOL    HW216456   2.871   2.562   9.872
 1610SOL     OW16457   2.673   3.504  25.711
 1610SOL    HW116458   2.622   3.516  25.791
 1610SOL    HW216459   2.753   3.460  25.740
 1611SOL     OW16460   3.241   1.087  20.317
 1611SOL    HW116461   3.234   1.066  20.410
 1611SOL    HW216462   3.334   1.106  20.303
 1612SOL     OW16463   2.642   1.580  20.655
 1612SOL    HW116464   2.669   1.670  20.669
 1612SOL    HW216465   2.708   1.543  20.597
 1613SOL     OW16466   2.080   4.491  20.132
 1613SOL    HW116467   2.156   4.453  20.089
 1613SOL    HW216468   2.045   4.420  20.187
 1614SOL     OW16469   4.275   0.333  23.047
 1614SOL    HW116470   4.287   0.280  22.969
 1614SOL    HW216471   4.272   0.423  23.015
 1615SOL     OW16472   0.689   3.397  23.322
 1615SOL    HW116473   0.775   3.434  23.338
 1615SOL    HW216474   0.671   3.343  23.400
 1616SOL     OW16475   0.289   4.560  19.662
 1616SOL    HW116476   0.239   4.602  19.732
 1616SOL    HW216477   0.376   4.546  19.699
 1617SOL     OW16478   4.623   1.610  27.714
 1617SOL    HW116479   4.582   1.546  27.655
 1617SOL    HW216480   4.554   1.632  27.776
 1618SOL     OW16481   0.433   1.049   0.907
 1618SOL    HW116482   0.373   0.974   0.910
 1618SOL    HW216483   0.481   1.045   0.990
 1619SOL     OW16484   3.849   2.002   0.391
 1619SOL    HW116485   3.883   2.087   0.418
 1619SOL    HW216486   3.837   2.009   0.297
 1620SOL     OW16487   3.683   1.776   5.560
 1620SOL    HW116488   3.671   1.730   5.643
 1620SOL    HW216489   3.775   1.801   5.560
 1621SOL     OW16490   1.793   0.116  23.440
 1621SOL    HW116491   1.759   0.192  23.488
 1621SOL    HW216492   1.779   0.138  23.348
 1622SOL     OW16493   1.290   1.307  22.536
 1622SOL    HW116494   1.329   1.220  22.529
 1622SOL    HW216495   1.198   1.290  22.556
 1623SOL     OW16496   3.621   2.818   5.617
 1623SOL    HW116497   3.622   2.883   5.547
 1623SOL    HW216498   3.678   2.748   5.586
 1624SOL     OW16499   0.767   2.040  22.471
 1624SOL    HW116500   0.767   2.023  22.565
 1624SOL    HW216501   0.800   2.130  22.462
 1625SOL     OW16502   0.017   3.586  21.221
 1625SOL    HW116503   4.761   3.554  21.303
 1625SOL    HW216504   4.742   3.659  21.195
 1626SOL     OW16505   0.890   1.409  18.295
 1626SOL    HW116506   0.845   1.453  18.223
 1626SOL    HW216507   0.890   1.317  18.270
 1627SOL     OW16508   3.212   2.095  21.983
 1627SOL    HW116509   3.183   2.008  21.955
 1627SOL    HW216510   3.229   2.085  22.077
 1628SOL     OW16511   2.556   4.590  21.236
 1628SOL    HW116512   2.615   4.522  21.270
 1628SOL    HW216513   2.489   4.541  21.189
 1629SOL     OW16514   4.371   4.373   2.672
 1629SOL    HW116515   4.397   4.444   2.730
 1629SOL    HW216516   4.325   4.417   2.600
 1630SOL     OW16517   2.274   2.118  10.474
 1630SOL    HW116518   2.302   2.181  10.408
 1630SOL    HW216519   2.199   2.073  10.433
 1631SOL     OW16520   2.962   0.525   5.052
 1631SOL    HW116521   3.052   0.556   5.062
 1631SOL    HW216522   2.910   0.605   5.044
 1632SOL     OW16523   1.933   4.499  26.048
 1632SOL    HW116524   1.978   4.504  25.964
 1632SOL    HW216525   1.963   4.417  26.087
 1633SOL     OW16526   1.635   4.515   3.351
 1633SOL    HW116527   1.674   4.593   3.311
 1633SOL    HW216528   1.557   4.547   3.395
 1634SOL     OW16529   0.702   1.484  12.226
 1634SOL    HW116530   0.668   1.569  12.254
 1634SOL    HW216531   0.783   1.473  12.276
 1635SOL     OW16532   3.468   1.601  23.727
 1635SOL    HW116533   3.547   1.559  23.763
 1635SOL    HW216534   3.405   1.529  23.719
 1636SOL     OW16535   0.622   0.950  10.422
 1636SOL    HW116536   0.684   1.015  10.389
 1636SOL    HW216537   0.538   0.996  10.422
 1637SOL     OW16538   3.964   1.747   1.985
 1637SOL    HW116539   3.889   1.709   2.031
 1637SOL    HW216540   4.039   1.697   2.015
 1638SOL     OW16541   2.976   2.789  24.583
 1638SOL    HW116542   2.929   2.764  24.503
 1638SOL    HW216543   2.922   2.857  24.623
 1639SOL     OW16544   2.547   1.036  19.844
 1639SOL    HW116545   2.574   1.116  19.798
 1639SOL    HW216546   2.529   0.974  19.773
 1640SOL     OW16547   4.219   2.369   8.526
 1640SOL    HW116548   4.235   2.298   8.463
 1640SOL    HW216549   4.135   2.405   8.501
 1641SOL     OW16550   0.766   2.614  27.661
 1641SOL    HW116551   0.815   2.690  27.629
 1641SOL    HW216552   0.829   2.564  27.712
 1642SOL     OW16553   2.330   0.069   8.042
 1642SOL    HW116554   2.411   0.035   8.080
 1642SOL    HW216555   2.324   0.027   7.956
 1643SOL     OW16556   1.853   0.776  22.069
 1643SOL    HW116557   1.898   0.738  21.993
 1643SOL    HW216558   1.767   0.735  22.069
 1644SOL     OW16559   0.523   3.873   9.541
 1644SOL    HW116560   0.473   3.842   9.465
 1644SOL    HW216561   0.559   3.793   9.580
 1645SOL     OW16562   1.458   1.615  25.082
 1645SOL    HW116563   1.517   1.627  25.008
 1645SOL    HW216564   1.398   1.546  25.054
 1646SOL     OW16565   0.741   1.543   5.552
 1646SOL    HW116566   0.822   1.494   5.537
 1646SOL    HW216567   0.672   1.478   5.542
 1647SOL     OW16568   1.859   0.587   2.875
 1647SOL    HW116569   1.924   0.533   2.921
 1647SOL    HW216570   1.871   0.675   2.911
 1648SOL     OW16571   2.060   1.644  24.622
 1648SOL    HW116572   2.111   1.586  24.566
 1648SOL    HW216573   1.978   1.597  24.637
 1649SOL     OW16574   3.279   1.375   7.341
 1649SOL    HW116575   3.307   1.293   7.299
 1649SOL    HW216576   3.357   1.431   7.337
 1650SOL     OW16577   0.195   1.333  22.468
 1650SOL    HW116578   0.275   1.366  22.508
 1650SOL    HW216579   0.150   1.287  22.539
 1651SOL     OW16580   2.062   3.099  21.889
 1651SOL    HW116581   2.042   3.187  21.919
 1651SOL    HW216582   1.977   3.055  21.885
 1652SOL     OW16583   2.754   4.174  19.659
 1652SOL    HW116584   2.806   4.228  19.598
 1652SOL    HW216585   2.695   4.125  19.602
 1653SOL     OW16586   1.390   0.694   6.425
 1653SOL    HW116587   1.418   0.771   6.474
 1653SOL    HW216588   1.343   0.729   6.350
 1654SOL     OW16589   2.724   0.239  24.491
 1654SOL    HW116590   2.765   0.297  24.427
 1654SOL    HW216591   2.795   0.215  24.550
 1655SOL     OW16592   3.879   3.759  25.658
 1655SOL    HW116593   3.952   3.801  25.614
 1655SOL    HW216594   3.834   3.710  25.589
 1656SOL     OW16595   0.508   3.927  25.867
 1656SOL    HW116596   0.563   3.920  25.945
 1656SOL    HW216597   0.420   3.905  25.899
 1657SOL     OW16598   2.085   4.431  24.804
 1657SOL    HW116599   2.180   4.431  24.790
 1657SOL    HW216600   2.048   4.434  24.716
 1658SOL     OW16601   1.673   3.287  21.308
 1658SOL    HW116602   1.587   3.279  21.348
 1658SOL    HW216603   1.694   3.198  21.279
 1659SOL     OW16604   1.161   3.509  20.394
 1659SOL    HW116605   1.123   3.565  20.462
 1659SOL    HW216606   1.231   3.561  20.356
 1660SOL     OW16607   4.547   0.401  26.177
 1660SOL    HW116608   4.533   0.491  26.147
 1660SOL    HW216609   4.612   0.408  26.246
 1661SOL     OW16610   3.259   1.800   6.247
 1661SOL    HW116611   3.323   1.857   6.205
 1661SOL    HW216612   3.272   1.715   6.206
 1662SOL     OW16613   3.443   3.639  25.810
 1662SOL    HW116614   3.365   3.692  25.792
 1662SOL    HW216615   3.414   3.571  25.871
 1663SOL     OW16616   0.211   1.761   6.238
 1663SOL    HW116617   0.149   1.688   6.242
 1663SOL    HW216618   0.188   1.808   6.158
 1664SOL     OW16619   3.927   4.670   7.799
 1664SOL    HW116620   3.874   4.639   7.872
 1664SOL    HW216621   3.865   4.712   7.740
 1665SOL     OW16622   1.670   4.179   3.004
 1665SOL    HW116623   1.683   4.244   2.935
 1665SOL    HW216624   1.618   4.110   2.962
 1666SOL     OW16625   4.404   3.684   8.590
 1666SOL    HW116626   4.345   3.650   8.656
 1666SOL    HW216627   4.456   3.608   8.562
 1667SOL     OW16628   2.100   1.537  26.004
 1667SOL    HW116629   2.138   1.481  25.937
 1667SOL    HW216630   2.135   1.624  25.985
 1668SOL     OW16631   1.537   1.883  10.921
 1668SOL    HW116632   1.576   1.913  11.003
 1668SOL    HW216633   1.501   1.797  10.942
 1669SOL     OW16634   2.113   1.163  19.861
 1669SOL    HW116635   2.194   1.147  19.909
 1669SOL    HW216636   2.079   1.245  19.898
 1670SOL     OW16637   3.791   1.068  10.265
 1670SOL    HW116638   3.723   1.067  10.332
 1670SOL    HW216639   3.821   0.977  10.259
 1671SOL     OW16640   4.766   3.644   1.701
 1671SOL    HW116641   4.735   3.674   1.787
 1671SOL    HW216642   0.064   3.694   1.686
 1672SOL     OW16643   2.355   3.537   4.558
 1672SOL    HW116644   2.343   3.521   4.464
 1672SOL    HW216645   2.450   3.545   4.569
 1673SOL     OW16646   2.592   0.139  20.140
 1673SOL    HW116647   2.586   0.103  20.051
 1673SOL    HW216648   2.684   0.129  20.164
 1674SOL     OW16649   0.565   0.040   0.087
 1674SOL    HW116650   0.545   0.019  28.527
 1674SOL    HW216651   0.647   0.088   0.084
 1675SOL     OW16652   2.648   4.173   3.017
 1675SOL    HW116653   2.620   4.203   2.930
 1675SOL    HW216654   2.618   4.242   3.076
 1676SOL     OW16655   0.188   2.513  21.176
 1676SOL    HW116656   0.181   2.512  21.271
 1676SOL    HW216657   0.119   2.454  21.146
 1677SOL     OW16658   3.226   1.477  24.934
 1677SOL    HW116659   3.183   1.395  24.960
 1677SOL    HW216660   3.200   1.490  24.843
 1678SOL     OW16661   1.879   0.606  20.114
 1678SOL    HW116662   1.864   0.658  20.193
 1678SOL    HW216663   1.961   0.559  20.131
 1679SOL     OW16664   4.037   0.344   0.745
 1679SOL    HW116665   3.984   0.394   0.808
 1679SOL    HW216666   4.127   0.360   0.772
 1680SOL     OW16667   4.305   2.281   7.863
 1680SOL    HW116668   4.271   2.280   7.773
 1680SOL    HW216669   4.388   2.233   7.857
 1681SOL     OW16670   2.831   1.967   8.833
 1681SOL    HW116671   2.926   1.979   8.840
 1681SOL    HW216672   2.814   1.886   8.881
 1682SOL     OW16673   3.955   2.219   0.167
 1682SOL    HW116674   3.953   2.280   0.241
 1682SOL    HW216675   3.874   2.236   0.120
 1683SOL     OW16676   3.869   3.562   0.500
 1683SOL    HW116677   3.901   3.621   0.432
 1683SOL    HW216678   3.947   3.539   0.551
 1684SOL     OW16679   0.113   4.380  23.983
 1684SOL    HW116680   0.027   4.367  23.943
 1684SOL    HW216681   0.096   4.439  24.057
 1685SOL     OW16682   1.973   2.240  21.606
 1685SOL    HW116683   1.963   2.258  21.513
 1685SOL    HW216684   1.922   2.309  21.649
 1686SOL     OW16685   3.273   0.428   7.543
 1686SOL    HW116686   3.184   0.464   7.553
 1686SOL    HW216687   3.286   0.375   7.622
 1687SOL     OW16688   0.572   4.196  19.361
 1687SOL    HW116689   0.618   4.262  19.309
 1687SOL    HW216690   0.563   4.236  19.448
 1688SOL     OW16691   0.456   4.297  28.429
 1688SOL    HW116692   0.364   4.310  28.408
 1688SOL    HW216693   0.491   4.385  28.442
 1689SOL     OW16694   3.918   0.267  22.959
 1689SOL    HW116695   3.893   0.177  22.981
 1689SOL    HW216696   3.962   0.260  22.874
 1690SOL     OW16697   3.397   3.369   2.022
 1690SOL    HW116698   3.372   3.347   1.933
 1690SOL    HW216699   3.454   3.446   2.013
 1691SOL     OW16700   0.866   0.688  21.125
 1691SOL    HW116701   0.866   0.638  21.206
 1691SOL    HW216702   0.888   0.623  21.057
 1692SOL     OW16703   0.220   1.550  23.275
 1692SOL    HW116704   0.177   1.549  23.190
 1692SOL    HW216705   0.164   1.605  23.330
 1693SOL     OW16706   4.672   2.427   1.520
 1693SOL    HW116707   4.653   2.393   1.608
 1693SOL    HW216708   4.661   2.352   1.462
 1694SOL     OW16709   2.705   4.202  25.865
 1694SOL    HW116710   2.662   4.286  25.849
 1694SOL    HW216711   2.740   4.177  25.779
 1695SOL     OW16712   1.104   0.468   4.628
 1695SOL    HW116713   1.068   0.464   4.717
 1695SOL    HW216714   1.198   0.470   4.641
 1696SOL     OW16715   3.532   0.805  22.878
 1696SOL    HW116716   3.544   0.743  22.806
 1696SOL    HW216717   3.444   0.788  22.910
 1697SOL     OW16718   1.238   0.218  26.549
 1697SOL    HW116719   1.183   0.143  26.523
 1697SOL    HW216720   1.266   0.197  26.638
 1698SOL     OW16721   0.571   2.039  23.428
 1698SOL    HW116722   0.647   2.063  23.374
 1698SOL    HW216723   0.510   2.112  23.418
 1699SOL     OW16724   1.857   4.226  11.650
 1699SOL    HW116725   1.825   4.316  11.656
 1699SOL    HW216726   1.791   4.180  11.598
 1700SOL     OW16727   2.995   0.029   3.724
 1700SOL    HW116728   3.075   4.769   3.753
 1700SOL    HW216729   3.002   0.032   3.629
 1701SOL     OW16730   0.218   3.264  25.544
 1701SOL    HW116731   0.259   3.323  25.480
 1701SOL    HW216732   0.251   3.177  25.521
 1702SOL     OW16733   3.627   3.323  25.410
 1702SOL    HW116734   3.606   3.376  25.487
 1702SOL    HW216735   3.581   3.366  25.338
 1703SOL     OW16736   2.309   1.846  18.940
 1703SOL    HW116737   2.219   1.820  18.957
 1703SOL    HW216738   2.361   1.768  18.958
 1704SOL     OW16739   0.478   2.760   7.689
 1704SOL    HW116740   0.558   2.709   7.708
 1704SOL    HW216741   0.454   2.733   7.601
 1705SOL     OW16742   1.337   0.620  22.445
 1705SOL    HW116743   1.305   0.660  22.526
 1705SOL    HW216744   1.265   0.564  22.416
 1706SOL     OW16745   0.108   2.219  21.499
 1706SOL    HW116746   0.164   2.225  21.576
 1706SOL    HW216747   0.120   2.303  21.454
 1707SOL     OW16748   2.185   0.931  28.191
 1707SOL    HW116749   2.094   0.941  28.220
 1707SOL    HW216750   2.182   0.947  28.097
 1708SOL     OW16751   1.220   2.664   4.163
 1708SOL    HW116752   1.254   2.616   4.087
 1708SOL    HW216753   1.147   2.716   4.128
 1709SOL     OW16754   1.336   0.251  20.272
 1709SOL    HW116755   1.407   0.270  20.333
 1709SOL    HW216756   1.376   0.195  20.205
 1710SOL     OW16757   3.322   4.643  10.471
 1710SOL    HW116758   3.366   4.593  10.540
 1710SOL    HW216759   3.338   4.735  10.494
 1711SOL     OW16760   1.543   0.625  20.781
 1711SOL    HW116761   1.485   0.669  20.720
 1711SOL    HW216762   1.485   0.592  20.850
 1712SOL     OW16763   2.676   0.778  24.468
 1712SOL    HW116764   2.586   0.790  24.498
 1712SOL    HW216765   2.727   0.839  24.521
 1713SOL     OW16766   1.001   3.783   7.486
 1713SOL    HW116767   1.003   3.806   7.579
 1713SOL    HW216768   0.953   3.700   7.482
 1714SOL     OW16769   1.730   2.614  26.782
 1714SOL    HW116770   1.725   2.693  26.728
 1714SOL    HW216771   1.824   2.595  26.788
 1715SOL     OW16772   0.300   1.059   8.640
 1715SOL    HW116773   0.339   0.975   8.615
 1715SOL    HW216774   0.270   1.046   8.729
 1716SOL     OW16775   1.996   1.263   9.043
 1716SOL    HW116776   2.085   1.260   9.007
 1716SOL    HW216777   2.009   1.271   9.137
 1717SOL     OW16778   0.106   3.354  18.746
 1717SOL    HW116779   0.157   3.284  18.705
 1717SOL    HW216780   0.149   3.435  18.718
 1718SOL     OW16781   0.206   3.253  18.478
 1718SOL    HW116782   0.280   3.202  18.510
 1718SOL    HW216783   0.133   3.190  18.476
 1719SOL     OW16784   3.327   2.097   7.112
 1719SOL    HW116785   3.251   2.093   7.054
 1719SOL    HW216786   3.399   2.063   7.059
 1720SOL     OW16787   0.840   3.259  24.176
 1720SOL    HW116788   0.759   3.294  24.139
 1720SOL    HW216789   0.896   3.336  24.186
 1721SOL     OW16790   4.411   2.410   2.952
 1721SOL    HW116791   4.378   2.393   3.040
 1721SOL    HW216792   4.333   2.431   2.900
 1722SOL     OW16793   0.573   3.282   1.669
 1722SOL    HW116794   0.554   3.275   1.575
 1722SOL    HW216795   0.654   3.333   1.673
 1723SOL     OW16796   3.035   0.304  11.962
 1723SOL    HW116797   3.083   0.384  11.941
 1723SOL    HW216798   2.943   0.330  11.960
 1724SOL     OW16799   4.041   1.119  17.986
 1724SOL    HW116800   4.071   1.155  17.903
 1724SOL    HW216801   4.121   1.092  18.032
 1725SOL     OW16802   1.667   3.591   7.263
 1725SOL    HW116803   1.702   3.664   7.213
 1725SOL    HW216804   1.572   3.604   7.261
 1726SOL     OW16805   1.598   3.330  18.981
 1726SOL    HW116806   1.607   3.266  19.052
 1726SOL    HW216807   1.651   3.294  18.910
 1727SOL     OW16808   0.167   2.310   9.438
 1727SOL    HW116809   0.229   2.261   9.492
 1727SOL    HW216810   0.128   2.374   9.498
 1728SOL     OW16811   4.422   2.205  28.238
 1728SOL    HW116812   4.499   2.253  28.268
 1728SOL    HW216813   4.364   2.274  28.203
 1729SOL     OW16814   4.484   4.413   8.894
 1729SOL    HW116815   4.412   4.354   8.914
 1729SOL    HW216816   4.461   4.452   8.810
 1730SOL     OW16817   4.281   0.532  11.589
 1730SOL    HW116818   4.313   0.443  11.606
 1730SOL    HW216819   4.342   0.567  11.524
 1731SOL     OW16820   2.273   4.520   9.455
 1731SOL    HW116821   2.272   4.533   9.360
 1731SOL    HW216822   2.261   4.608   9.491
 1732SOL     OW16823   0.804   3.951   7.373
 1732SOL    HW116824   0.881   3.920   7.420
 1732SOL    HW216825   0.839   4.002   7.300
 1733SOL     OW16826   0.293   2.232  10.625
 1733SOL    HW116827   0.202   2.216  10.648
 1733SOL    HW216828   0.289   2.277  10.541
 1734SOL     OW16829   3.730   4.572   2.628
 1734SOL    HW116830   3.774   4.512   2.567
 1734SOL    HW216831   3.735   4.658   2.585
 1735SOL     OW16832   1.726   2.754  25.476
 1735SOL    HW116833   1.698   2.706  25.397
 1735SOL    HW216834   1.818   2.730  25.487
 1736SOL     OW16835   3.119   0.273  21.110
 1736SOL    HW116836   3.103   0.335  21.182
 1736SOL    HW216837   3.038   0.274  21.059
 1737SOL     OW16838   0.303   4.259  21.839
 1737SOL    HW116839   0.323   4.304  21.756
 1737SOL    HW216840   0.389   4.243  21.878
 1738SOL     OW16841   0.956   4.266  26.961
 1738SOL    HW116842   0.993   4.314  26.888
 1738SOL    HW216843   1.017   4.280  27.033
 1739SOL     OW16844   3.669   0.063  23.377
 1739SOL    HW116845   3.759   0.092  23.358
 1739SOL    HW216846   3.670   0.041  23.470
 1740SOL     OW16847   3.390   0.959  23.563
 1740SOL    HW116848   3.404   0.921  23.650
 1740SOL    HW216849   3.462   1.020  23.551
 1741SOL     OW16850   3.281   1.766   0.196
 1741SOL    HW116851   3.359   1.742   0.245
 1741SOL    HW216852   3.306   1.845   0.148
 1742SOL     OW16853   0.419   1.972  20.692
 1742SOL    HW116854   0.324   1.978  20.702
 1742SOL    HW216855   0.447   2.061  20.671
 1743SOL     OW16856   2.084   2.386   5.062
 1743SOL    HW116857   2.122   2.352   5.143
 1743SOL    HW216858   2.096   2.480   5.066
 1744SOL     OW16859   0.933   4.306  25.444
 1744SOL    HW116860   0.856   4.251  25.427
 1744SOL    HW216861   1.000   4.272  25.385
 1745SOL     OW16862   2.784   4.299  12.077
 1745SOL    HW116863   2.718   4.302  12.146
 1745SOL    HW216864   2.866   4.317  12.123
 1746SOL     OW16865   1.135   1.502  23.708
 1746SOL    HW116866   1.127   1.596  23.723
 1746SOL    HW216867   1.108   1.489  23.617
 1747SOL     OW16868   4.752   2.291  21.912
 1747SOL    HW116869   0.015   2.219  21.957
 1747SOL    HW216870   4.710   2.249  21.837
 1748SOL     OW16871   3.454   3.255   7.958
 1748SOL    HW116872   3.441   3.340   7.915
 1748SOL    HW216873   3.450   3.275   8.052
 1749SOL     OW16874   4.375   0.877  17.258
 1749SOL    HW116875   4.397   0.784  17.253
 1749SOL    HW216876   4.369   0.906  17.167
 1750SOL     OW16877   2.473   3.144  27.978
 1750SOL    HW116878   2.481   3.052  27.954
 1750SOL    HW216879   2.510   3.148  28.067
 1751SOL     OW16880   1.966   2.377  19.709
 1751SOL    HW116881   1.949   2.361  19.616
 1751SOL    HW216882   2.058   2.351  19.721
 1752SOL     OW16883   0.675   1.232  24.247
 1752SOL    HW116884   0.753   1.178  24.237
 1752SOL    HW216885   0.707   1.315  24.281
 1753SOL     OW16886   0.259   4.736  19.045
 1753SOL    HW116887   0.256   0.050  19.046
 1753SOL    HW216888   0.182   4.710  19.096
 1754SOL     OW16889   0.587   4.416   1.241
 1754SOL    HW116890   0.541   4.347   1.193
 1754SOL    HW216891   0.534   4.431   1.320
 1755SOL     OW16892   4.142   3.135   8.277
 1755SOL    HW116893   4.165   3.094   8.194
 1755SOL    HW216894   4.055   3.172   8.263
 1756SOL     OW16895   3.944   3.983   5.754
 1756SOL    HW116896   3.997   3.923   5.806
 1756SOL    HW216897   3.860   3.938   5.744
 1757SOL     OW16898   2.392   2.333  21.576
 1757SOL    HW116899   2.349   2.377  21.650
 1757SOL    HW216900   2.474   2.298  21.614
 1758SOL     OW16901   3.565   0.971   5.400
 1758SOL    HW116902   3.597   0.901   5.457
 1758SOL    HW216903   3.530   1.038   5.459
 1759SOL     OW16904   2.205   1.348  27.547
 1759SOL    HW116905   2.117   1.327  27.516
 1759SOL    HW216906   2.223   1.435  27.512
 1760SOL     OW16907   3.632   3.936   9.801
 1760SOL    HW116908   3.629   3.921   9.895
 1760SOL    HW216909   3.713   3.985   9.788
 1761SOL     OW16910   1.408   2.854  23.672
 1761SOL    HW116911   1.338   2.879  23.611
 1761SOL    HW216912   1.434   2.766  23.645
 1762SOL     OW16913   3.640   0.753  22.369
 1762SOL    HW116914   3.637   0.836  22.323
 1762SOL    HW216915   3.575   0.698  22.325
 1763SOL     OW16916   3.442   4.693  24.145
 1763SOL    HW116917   3.416   0.002  24.137
 1763SOL    HW216918   3.471   4.684  24.236
 1764SOL     OW16919   4.364   0.694  24.006
 1764SOL    HW116920   4.277   0.660  23.986
 1764SOL    HW216921   4.370   0.691  24.101
 1765SOL     OW16922   1.968   2.299  28.405
 1765SOL    HW116923   2.011   2.230  28.456
 1765SOL    HW216924   1.960   2.372  28.465
 1766SOL     OW16925   4.691   3.881   8.636
 1766SOL    HW116926   4.761   3.818   8.657
 1766SOL    HW216927   4.623   3.862   8.701
 1767SOL     OW16928   3.636   4.508   8.509
 1767SOL    HW116929   3.680   4.434   8.466
 1767SOL    HW216930   3.704   4.548   8.564
 1768SOL     OW16931   1.827   1.653  19.014
 1768SOL    HW116932   1.751   1.657  19.071
 1768SOL    HW216933   1.902   1.661  19.073
 1769SOL     OW16934   3.857   3.105  22.119
 1769SOL    HW116935   3.903   3.149  22.048
 1769SOL    HW216936   3.924   3.093  22.187
 1770SOL     OW16937   4.616   3.401  24.236
 1770SOL    HW116938   4.552   3.366  24.174
 1770SOL    HW216939   4.564   3.455  24.296
 1771SOL     OW16940   3.140   2.089  23.103
 1771SOL    HW116941   3.088   2.163  23.073
 1771SOL    HW216942   3.211   2.129  23.154
 1772SOL     OW16943   2.015   3.194  24.950
 1772SOL    HW116944   2.065   3.272  24.977
 1772SOL    HW216945   1.926   3.226  24.937
 1773SOL     OW16946   3.861   1.650  18.345
 1773SOL    HW116947   3.951   1.625  18.323
 1773SOL    HW216948   3.866   1.684  18.434
 1774SOL     OW16949   0.493   0.973   9.017
 1774SOL    HW116950   0.555   0.934   8.955
 1774SOL    HW216951   0.540   0.971   9.101
 1775SOL     OW16952   4.353   1.107  25.931
 1775SOL    HW116953   4.412   1.133  26.002
 1775SOL    HW216954   4.277   1.070  25.976
 1776SOL     OW16955   0.096   0.465  22.016
 1776SOL    HW116956   0.084   0.373  21.992
 1776SOL    HW216957   0.018   0.488  22.066
 1777SOL     OW16958   3.411   2.930  21.340
 1777SOL    HW116959   3.396   2.849  21.293
 1777SOL    HW216960   3.473   2.907  21.409
 1778SOL     OW16961   4.035   3.863  28.153
 1778SOL    HW116962   3.986   3.858  28.070
 1778SOL    HW216963   3.967   3.858  28.221
 1779SOL     OW16964   0.786   4.183  27.312
 1779SOL    HW116965   0.863   4.143  27.271
 1779SOL    HW216966   0.819   4.266  27.348
 1780SOL     OW16967   0.777   0.144   9.019
 1780SOL    HW116968   0.836   0.093   8.964
 1780SOL    HW216969   0.766   0.092   9.098
 1781SOL     OW16970   1.239   1.286   3.206
 1781SOL    HW116971   1.161   1.230   3.214
 1781SOL    HW216972   1.256   1.315   3.296
 1782SOL     OW16973   0.518   3.565   8.630
 1782SOL    HW116974   0.443   3.621   8.611
 1782SOL    HW216975   0.489   3.510   8.703
 1783SOL     OW16976   1.016   4.230  25.025
 1783SOL    HW116977   0.931   4.201  24.992
 1783SOL    HW216978   1.039   4.306  24.972
 1784SOL     OW16979   1.345   0.033  28.114
 1784SOL    HW116980   1.273   4.772  28.068
 1784SOL    HW216981   1.309   0.117  28.142
 1785SOL     OW16982   1.891   4.596   8.209
 1785SOL    HW116983   1.974   4.585   8.256
 1785SOL    HW216984   1.868   4.508   8.180
 1786SOL     OW16985   2.934   2.651   2.858
 1786SOL    HW116986   2.974   2.696   2.933
 1786SOL    HW216987   2.987   2.679   2.783
 1787SOL     OW16988   1.269   1.623   0.986
 1787SOL    HW116989   1.309   1.603   0.902
 1787SOL    HW216990   1.183   1.659   0.964
 1788SOL     OW16991   3.583   3.474   5.444
 1788SOL    HW116992   3.527   3.543   5.407
 1788SOL    HW216993   3.566   3.478   5.539
 1789SOL     OW16994   2.321   1.625  27.868
 1789SOL    HW116995   2.293   1.655  27.954
 1789SOL    HW216996   2.261   1.666  27.806
 1790SOL     OW16997   4.211   1.216  28.335
 1790SOL    HW116998   4.286   1.202  28.393
 1790SOL    HW216999   4.169   1.131  28.330
 1791SOL     OW17000   2.536   1.323   7.753
 1791SOL    HW117001   2.502   1.411   7.774
 1791SOL    HW217002   2.460   1.275   7.723
 1792SOL     OW17003   3.782   4.465   1.038
 1792SOL    HW117004   3.749   4.524   0.970
 1792SOL    HW217005   3.766   4.377   1.003
 1793SOL     OW17006   3.380   0.526  27.185
 1793SOL    HW117007   3.463   0.571  27.173
 1793SOL    HW217008   3.376   0.505  27.278
 1794SOL     OW17009   4.088   1.164   5.950
 1794SOL    HW117010   4.102   1.254   5.980
 1794SOL    HW217011   3.997   1.145   5.972
 1795SOL     OW17012   0.565   3.724   8.136
 1795SOL    HW117013   0.551   3.735   8.230
 1795SOL    HW217014   0.659   3.707   8.127
 1796SOL     OW17015   3.016   3.316  21.481
 1796SOL    HW117016   2.956   3.374  21.528
 1796SOL    HW217017   2.988   3.321  21.390
 1797SOL     OW17018   2.046   3.500   2.607
 1797SOL    HW117019   2.025   3.559   2.679
 1797SOL    HW217020   1.963   3.460   2.583
 1798SOL     OW17021   2.532   0.875  26.074
 1798SOL    HW117022   2.489   0.896  26.157
 1798SOL    HW217023   2.625   0.890  26.091
 1799SOL     OW17024   1.063   4.277   7.111
 1799SOL    HW117025   0.996   4.304   7.174
 1799SOL    HW217026   1.042   4.186   7.090
 1800SOL     OW17027   3.026   2.003   5.046
 1800SOL    HW117028   3.007   2.067   4.977
 1800SOL    HW217029   3.091   1.944   5.006
 1801SOL     OW17030   2.267   0.490  21.548
 1801SOL    HW117031   2.301   0.567  21.502
 1801SOL    HW217032   2.345   0.439  21.570
 1802SOL     OW17033   2.068   4.197  11.046
 1802SOL    HW117034   1.998   4.198  11.111
 1802SOL    HW217035   2.122   4.273  11.068
 1803SOL     OW17036   3.272   4.486   1.250
 1803SOL    HW117037   3.362   4.460   1.232
 1803SOL    HW217038   3.224   4.403   1.254
 1804SOL     OW17039   3.435   0.381   2.806
 1804SOL    HW117040   3.376   0.358   2.878
 1804SOL    HW217041   3.425   0.310   2.743
 1805SOL     OW17042   0.126   3.363   8.368
 1805SOL    HW117043   0.136   3.365   8.272
 1805SOL    HW217044   0.075   3.440   8.388
 1806SOL     OW17045   2.942   2.955  26.448
 1806SOL    HW117046   3.022   2.905  26.432
 1806SOL    HW217047   2.935   2.958  26.544
 1807SOL     OW17048   3.657   3.117  27.944
 1807SOL    HW117049   3.582   3.079  27.898
 1807SOL    HW217050   3.714   3.148  27.874
 1808SOL     OW17051   1.538   1.784  25.949
 1808SOL    HW117052   1.593   1.705  25.942
 1808SOL    HW217053   1.474   1.762  26.017
 1809SOL     OW17054   4.271   2.843  12.411
 1809SOL    HW117055   4.215   2.892  12.471
 1809SOL    HW217056   4.211   2.814  12.342
 1810SOL     OW17057   2.793   3.613   0.133
 1810SOL    HW117058   2.808   3.676   0.204
 1810SOL    HW217059   2.698   3.611   0.123
 1811SOL     OW17060   2.124   0.309  27.143
 1811SOL    HW117061   2.067   0.361  27.199
 1811SOL    HW217062   2.065   0.246  27.101
 1812SOL     OW17063   1.595   3.588   2.519
 1812SOL    HW117064   1.629   3.516   2.573
 1812SOL    HW217065   1.510   3.609   2.558
 1813SOL     OW17066   1.613   2.856  11.523
 1813SOL    HW117067   1.678   2.849  11.593
 1813SOL    HW217068   1.534   2.816  11.558
 1814SOL     OW17069   0.084   1.056  21.848
 1814SOL    HW117070   0.106   0.990  21.913
 1814SOL    HW217071   0.042   1.126  21.899
 1815SOL     OW17072   2.852   1.851  24.094
 1815SOL    HW117073   2.817   1.874  24.008
 1815SOL    HW217074   2.906   1.773  24.077
 1816SOL     OW17075   2.712   2.217  22.788
 1816SOL    HW117076   2.798   2.193  22.753
 1816SOL    HW217077   2.708   2.312  22.781
 1817SOL     OW17078   2.018   4.066  24.196
 1817SOL    HW117079   1.995   3.979  24.228
 1817SOL    HW217080   2.081   4.050  24.126
 1818SOL     OW17081   3.775   4.650   1.993
 1818SOL    HW117082   3.777   4.686   1.904
 1818SOL    HW217083   3.704   4.586   1.992
 1819SOL     OW17084   3.601   1.635  17.363
 1819SOL    HW117085   3.558   1.551  17.379
 1819SOL    HW217086   3.605   1.643  17.268
 1820SOL     OW17087   2.081   0.296   7.350
 1820SOL    HW117088   2.127   0.214   7.333
 1820SOL    HW217089   2.030   0.312   7.271
 1821SOL     OW17090   0.518   3.509   7.961
 1821SOL    HW117091   0.518   3.589   8.014
 1821SOL    HW217092   0.498   3.439   8.023
 1822SOL     OW17093   1.810   2.702   7.098
 1822SOL    HW117094   1.858   2.624   7.071
 1822SOL    HW217095   1.874   2.773   7.092
 1823SOL     OW17096   4.234   1.634   8.714
 1823SOL    HW117097   4.305   1.695   8.735
 1823SOL    HW217098   4.171   1.646   8.785
 1824SOL     OW17099   3.041   2.979  18.256
 1824SOL    HW117100   2.965   2.982  18.199
 1824SOL    HW217101   3.092   2.904  18.223
 1825SOL     OW17102   0.570   4.183  19.009
 1825SOL    HW117103   0.584   4.220  18.922
 1825SOL    HW217104   0.613   4.243  19.069
 1826SOL     OW17105   0.845   0.223  22.066
 1826SOL    HW117106   0.918   0.198  22.008
 1826SOL    HW217107   0.791   0.144  22.072
 1827SOL     OW17108   0.216   2.274  26.797
 1827SOL    HW117109   0.242   2.282  26.705
 1827SOL    HW217110   0.136   2.223  26.795
 1828SOL     OW17111   0.665   3.627   5.159
 1828SOL    HW117112   0.716   3.553   5.192
 1828SOL    HW217113   0.609   3.590   5.091
 1829SOL     OW17114   1.960   1.032   3.433
 1829SOL    HW117115   1.963   1.086   3.511
 1829SOL    HW217116   1.886   1.065   3.383
 1830SOL     OW17117   0.211   0.325   3.079
 1830SOL    HW117118   0.142   0.263   3.102
 1830SOL    HW217119   0.186   0.406   3.125
 1831SOL     OW17120   0.997   2.776  27.929
 1831SOL    HW117121   0.993   2.850  27.868
 1831SOL    HW217122   0.972   2.814  28.014
 1832SOL     OW17123   4.304   1.600   1.817
 1832SOL    HW117124   4.254   1.560   1.746
 1832SOL    HW217125   4.319   1.690   1.787
 1833SOL     OW17126   4.486   0.707   7.219
 1833SOL    HW117127   4.519   0.776   7.162
 1833SOL    HW217128   4.491   0.744   7.308
 1834SOL     OW17129   4.677   2.840  23.059
 1834SOL    HW117130   4.638   2.850  22.973
 1834SOL    HW217131   4.758   2.890  23.055
 1835SOL     OW17132   3.602   3.780  22.390
 1835SOL    HW117133   3.669   3.848  22.396
 1835SOL    HW217134   3.650   3.698  22.395
 1836SOL     OW17135   3.185   0.258   0.511
 1836SOL    HW117136   3.169   0.183   0.455
 1836SOL    HW217137   3.217   0.221   0.593
 1837SOL     OW17138   0.188   0.869   0.255
 1837SOL    HW117139   0.201   0.911   0.170
 1837SOL    HW217140   0.237   0.923   0.317
 1838SOL     OW17141   2.371   1.481   0.600
 1838SOL    HW117142   2.301   1.435   0.646
 1838SOL    HW217143   2.349   1.574   0.610
 1839SOL     OW17144   0.838   1.416  10.984
 1839SOL    HW117145   0.774   1.417  10.912
 1839SOL    HW217146   0.809   1.487  11.041
 1840SOL     OW17147   4.009   3.668   2.670
 1840SOL    HW117148   4.096   3.703   2.688
 1840SOL    HW217149   3.959   3.687   2.750
 1841SOL     OW17150   1.110   2.428   8.357
 1841SOL    HW117151   1.028   2.379   8.352
 1841SOL    HW217152   1.099   2.485   8.433
 1842SOL     OW17153   2.329   1.056   4.993
 1842SOL    HW117154   2.298   0.992   5.058
 1842SOL    HW217155   2.278   1.135   5.012
 1843SOL     OW17156   2.596   3.892   6.103
 1843SOL    HW117157   2.663   3.892   6.034
 1843SOL    HW217158   2.606   3.978   6.145
 1844SOL     OW17159   0.134   4.355   2.234
 1844SOL    HW117160   0.206   4.307   2.274
 1844SOL    HW217161   0.170   4.390   2.153
 1845SOL     OW17162   1.263   3.236  26.682
 1845SOL    HW117163   1.214   3.229  26.765
 1845SOL    HW217164   1.247   3.326  26.653
 1846SOL     OW17165   0.078   1.613   2.121
 1846SOL    HW117166   0.091   1.602   2.215
 1846SOL    HW217167   0.165   1.601   2.083
 1847SOL     OW17168   3.607   0.057  26.953
 1847SOL    HW117169   3.681   0.031  26.897
 1847SOL    HW217170   3.642   0.128  27.006
 1848SOL     OW17171   2.166   1.557   8.676
 1848SOL    HW117172   2.152   1.468   8.644
 1848SOL    HW217173   2.098   1.609   8.632
 1849SOL     OW17174   4.584   4.487  19.685
 1849SOL    HW117175   4.632   4.570  19.686
 1849SOL    HW217176   4.630   4.432  19.622
 1850SOL     OW17177   4.132   0.845   5.794
 1850SOL    HW117178   4.213   0.796   5.805
 1850SOL    HW217179   4.088   0.837   5.879
 1851SOL     OW17180   3.793   4.664  25.696
 1851SOL    HW117181   3.828   4.710  25.773
 1851SOL    HW217182   3.698   4.673  25.705
 1852SOL     OW17183   0.509   3.307  26.682
 1852SOL    HW117184   0.433   3.348  26.725
 1852SOL    HW217185   0.472   3.231  26.637
 1853SOL     OW17186   4.629   1.989   9.925
 1853SOL    HW117187   4.670   2.058   9.977
 1853SOL    HW217188   4.681   1.911   9.944
 1854SOL     OW17189   0.673   0.014   7.723
 1854SOL    HW117190   0.737   0.016   7.794
 1854SOL    HW217191   0.687   0.095   7.674
 1855SOL     OW17192   0.952   4.704   0.537
 1855SOL    HW117193   0.938   4.618   0.499
 1855SOL    HW217194   0.912   4.765   0.475
 1856SOL     OW17195   4.423   3.013  24.731
 1856SOL    HW117196   4.492   2.995  24.667
 1856SOL    HW217197   4.422   2.936  24.788
 1857SOL     OW17198   3.299   3.226   3.276
 1857SOL    HW117199   3.256   3.303   3.240
 1857SOL    HW217200   3.321   3.250   3.366
 1858SOL     OW17201   2.550   4.239  27.832
 1858SOL    HW117202   2.549   4.239  27.928
 1858SOL    HW217203   2.531   4.148  27.808
 1859SOL     OW17204   3.951   0.150  24.633
 1859SOL    HW117205   4.035   0.110  24.609
 1859SOL    HW217206   3.900   0.148  24.552
 1860SOL     OW17207   0.353   3.787   6.220
 1860SOL    HW117208   0.340   3.758   6.129
 1860SOL    HW217209   0.396   3.713   6.262
 1861SOL     OW17210   2.539   1.306   5.018
 1861SOL    HW117211   2.552   1.347   4.933
 1861SOL    HW217212   2.464   1.248   5.006
 1862SOL     OW17213   3.446   0.654   8.133
 1862SOL    HW117214   3.539   0.651   8.154
 1862SOL    HW217215   3.413   0.732   8.178
 1863SOL     OW17216   3.811   2.404  21.258
 1863SOL    HW117217   3.773   2.463  21.324
 1863SOL    HW217218   3.766   2.321  21.272
 1864SOL     OW17219   0.404   2.763  27.275
 1864SOL    HW117220   0.393   2.856  27.256
 1864SOL    HW217221   0.373   2.753  27.365
 1865SOL     OW17222   1.127   4.617   4.323
 1865SOL    HW117223   1.105   4.649   4.411
 1865SOL    HW217224   1.184   4.684   4.287
 1866SOL     OW17225   2.293   2.879  26.623
 1866SOL    HW117226   2.218   2.824  26.645
 1866SOL    HW217227   2.262   2.936  26.552
 1867SOL     OW17228   4.068   2.253   3.523
 1867SOL    HW117229   4.031   2.340   3.534
 1867SOL    HW217230   4.047   2.229   3.432
 1868SOL     OW17231   1.770   1.648  10.318
 1868SOL    HW117232   1.716   1.611  10.388
 1868SOL    HW217233   1.716   1.641  10.240
 1869SOL     OW17234   2.753   3.560  23.200
 1869SOL    HW117235   2.812   3.584  23.128
 1869SOL    HW217236   2.770   3.466  23.214
 1870SOL     OW17237   3.312   2.399  18.638
 1870SOL    HW117238   3.379   2.392  18.570
 1870SOL    HW217239   3.258   2.473  18.611
 1871SOL     OW17240   1.469   4.335   7.255
 1871SOL    HW117241   1.456   4.320   7.161
 1871SOL    HW217242   1.383   4.319   7.294
 1872SOL     OW17243   3.869   0.429  21.212
 1872SOL    HW117244   3.930   0.449  21.282
 1872SOL    HW217245   3.870   0.333  21.205
 1873SOL     OW17246   1.992   3.694  22.280
 1873SOL    HW117247   2.076   3.731  22.254
 1873SOL    HW217248   2.004   3.671  22.372
 1874SOL     OW17249   2.363   0.618   2.089
 1874SOL    HW117250   2.348   0.634   1.996
 1874SOL    HW217251   2.296   0.670   2.133
 1875SOL     OW17252   4.119   3.262   7.801
 1875SOL    HW117253   4.119   3.230   7.711
 1875SOL    HW217254   4.206   3.242   7.834
 1876SOL     OW17255   2.476   2.633   5.962
 1876SOL    HW117256   2.463   2.727   5.950
 1876SOL    HW217257   2.571   2.622   5.961
 1877SOL     OW17258   1.975   0.627  24.358
 1877SOL    HW117259   2.026   0.609  24.279
 1877SOL    HW217260   2.009   0.711  24.390
 1878SOL     OW17261   2.813   1.353   7.497
 1878SOL    HW117262   2.742   1.292   7.479
 1878SOL    HW217263   2.778   1.439   7.474
 1879SOL     OW17264   1.785   4.741   7.351
 1879SOL    HW117265   1.738   4.663   7.381
 1879SOL    HW217266   1.872   4.734   7.391
 1880SOL     OW17267   3.601   0.390   5.276
 1880SOL    HW117268   3.690   0.400   5.241
 1880SOL    HW217269   3.550   0.362   5.200
 1881SOL     OW17270   0.764   0.648  25.207
 1881SOL    HW117271   0.761   0.736  25.244
 1881SOL    HW217272   0.742   0.590  25.279
 1882SOL     OW17273   3.809   1.929  24.176
 1882SOL    HW117274   3.755   1.868  24.226
 1882SOL    HW217275   3.761   2.012  24.180
 1883SOL     OW17276   2.626   4.477   0.951
 1883SOL    HW117277   2.554   4.475   1.014
 1883SOL    HW217278   2.654   4.385   0.945
 1884SOL     OW17279   3.187   3.778  24.053
 1884SOL    HW117280   3.137   3.769  23.971
 1884SOL    HW217281   3.221   3.868  24.050
 1885SOL     OW17282   2.379   0.364   6.535
 1885SOL    HW117283   2.414   0.403   6.615
 1885SOL    HW217284   2.345   0.439   6.485
 1886SOL     OW17285   1.936   2.820   3.707
 1886SOL    HW117286   1.879   2.797   3.634
 1886SOL    HW217287   1.893   2.896   3.747
 1887SOL     OW17288   0.155   0.084  19.451
 1887SOL    HW117289   0.177   0.171  19.419
 1887SOL    HW217290   0.089   0.099  19.518
 1888SOL     OW17291   0.049   3.993   6.119
 1888SOL    HW117292   4.750   3.980   6.069
 1888SOL    HW217293   0.105   3.920   6.094
 1889SOL     OW17294   2.628   3.568  25.175
 1889SOL    HW117295   2.663   3.491  25.132
 1889SOL    HW217296   2.687   3.583  25.249
 1890SOL     OW17297   1.604   2.064  13.988
 1890SOL    HW117298   1.581   1.982  14.031
 1890SOL    HW217299   1.610   2.128  14.060
 1891SOL     OW17300   4.645   4.537   6.566
 1891SOL    HW117301   4.574   4.568   6.510
 1891SOL    HW217302   4.725   4.557   6.516
 1892SOL     OW17303   1.905   3.380  19.955
 1892SOL    HW117304   1.834   3.433  19.919
 1892SOL    HW217305   1.961   3.444  19.999
 1893SOL     OW17306   2.099   0.579   9.049
 1893SOL    HW117307   2.022   0.593   9.104
 1893SOL    HW217308   2.064   0.547   8.966
 1894SOL     OW17309   2.791   4.020  25.214
 1894SOL    HW117310   2.833   4.010  25.129
 1894SOL    HW217311   2.864   4.035  25.275
 1895SOL     OW17312   0.385   2.144  24.475
 1895SOL    HW117313   0.441   2.210  24.516
 1895SOL    HW217314   0.343   2.190  24.403
 1896SOL     OW17315   3.694   1.006   1.752
 1896SOL    HW117316   3.681   0.965   1.666
 1896SOL    HW217317   3.695   1.100   1.734
 1897SOL     OW17318   2.502   0.140   8.821
 1897SOL    HW117319   2.410   0.151   8.842
 1897SOL    HW217320   2.545   0.216   8.859
 1898SOL     OW17321   4.768   2.369  11.351
 1898SOL    HW117322   4.746   2.434  11.418
 1898SOL    HW217323   4.704   2.298  11.364
 1899SOL     OW17324   1.681   1.514  23.239
 1899SOL    HW117325   1.616   1.531  23.171
 1899SOL    HW217326   1.720   1.600  23.257
 1900SOL     OW17327   0.705   1.646  20.664
 1900SOL    HW117328   0.631   1.657  20.723
 1900SOL    HW217329   0.782   1.661  20.719
 1901SOL     OW17330   4.197   3.082  17.325
 1901SOL    HW117331   4.107   3.091  17.295
 1901SOL    HW217332   4.200   3.133  17.407
 1902SOL     OW17333   4.410   4.742   1.453
 1902SOL    HW117334   4.349   4.717   1.384
 1902SOL    HW217335   4.416   0.055   1.446
 1903SOL     OW17336   3.259   1.463  23.995
 1903SOL    HW117337   3.341   1.511  24.010
 1903SOL    HW217338   3.286   1.374  23.973
 1904SOL     OW17339   3.461   1.569   7.339
 1904SOL    HW117340   3.555   1.570   7.353
 1904SOL    HW217341   3.435   1.661   7.333
 1905SOL     OW17342   2.021   0.451   2.132
 1905SOL    HW117343   1.981   0.469   2.217
 1905SOL    HW217344   2.114   0.438   2.152
 1906SOL     OW17345   2.895   1.253   7.007
 1906SOL    HW117346   2.952   1.283   7.078
 1906SOL    HW217347   2.936   1.286   6.927
 1907SOL     OW17348   3.653   2.260  24.702
 1907SOL    HW117349   3.620   2.333  24.651
 1907SOL    HW217350   3.748   2.267  24.695
 1908SOL     OW17351   2.648   2.951   3.996
 1908SOL    HW117352   2.703   3.020   4.033
 1908SOL    HW217353   2.586   2.998   3.940
 1909SOL     OW17354   3.532   0.186  24.085
 1909SOL    HW117355   3.501   0.136  24.010
 1909SOL    HW217356   3.547   0.274  24.050
 1910SOL     OW17357   2.892   0.325  23.740
 1910SOL    HW117358   2.928   0.411  23.722
 1910SOL    HW217359   2.799   0.333  23.722
 1911SOL     OW17360   1.159   1.063   7.822
 1911SOL    HW117361   1.181   1.112   7.902
 1911SOL    HW217362   1.078   1.104   7.790
 1912SOL     OW17363   2.156   0.449   0.997
 1912SOL    HW117364   2.123   0.416   1.081
 1912SOL    HW217365   2.250   0.432   0.999
 1913SOL     OW17366   0.031   1.595   3.834
 1913SOL    HW117367   0.007   1.611   3.743
 1913SOL    HW217368   0.105   1.534   3.830
 1914SOL     OW17369   2.343   1.722   3.724
 1914SOL    HW117370   2.397   1.748   3.798
 1914SOL    HW217371   2.273   1.669   3.762
 1915SOL     OW17372   2.414   4.019   7.827
 1915SOL    HW117373   2.330   4.037   7.785
 1915SOL    HW217374   2.455   4.105   7.835
 1916SOL     OW17375   1.307   2.048  24.657
 1916SOL    HW117376   1.285   1.994  24.733
 1916SOL    HW217377   1.403   2.047  24.653
 1917SOL     OW17378   2.356   4.574   6.079
 1917SOL    HW117379   2.410   4.652   6.090
 1917SOL    HW217380   2.363   4.527   6.162
 1918SOL     OW17381   2.935   0.607   4.187
 1918SOL    HW117382   2.922   0.615   4.281
 1918SOL    HW217383   2.877   0.536   4.160
 1919SOL     OW17384   0.082   4.755   3.285
 1919SOL    HW117385   0.177   4.749   3.296
 1919SOL    HW217386   0.050   4.666   3.298
 1920SOL     OW17387   0.625   2.666  25.625
 1920SOL    HW117388   0.560   2.596  25.635
 1920SOL    HW217389   0.706   2.622  25.600
 1921SOL     OW17390   4.523   2.182  17.902
 1921SOL    HW117391   4.598   2.231  17.936
 1921SOL    HW217392   4.515   2.210  17.811
 1922SOL     OW17393   2.211   1.001  19.649
 1922SOL    HW117394   2.192   1.047  19.567
 1922SOL    HW217395   2.171   1.056  19.717
 1923SOL     OW17396   0.863   2.703   7.484
 1923SOL    HW117397   0.794   2.665   7.538
 1923SOL    HW217398   0.898   2.775   7.537
 1924SOL     OW17399   4.177   1.908  27.607
 1924SOL    HW117400   4.166   1.867  27.692
 1924SOL    HW217401   4.099   1.885  27.558
 1925SOL     OW17402   2.383   0.096   6.516
 1925SOL    HW117403   2.406   0.189   6.505
 1925SOL    HW217404   2.288   0.097   6.531
 1926SOL     OW17405   0.987   0.099  10.903
 1926SOL    HW117406   0.897   0.072  10.919
 1926SOL    HW217407   1.029   0.099  10.989
 1927SOL     OW17408   0.142   1.678   4.362
 1927SOL    HW117409   0.080   1.659   4.432
 1927SOL    HW217410   0.117   1.620   4.291
 1928SOL     OW17411   2.661   1.809   5.815
 1928SOL    HW117412   2.609   1.771   5.887
 1928SOL    HW217413   2.722   1.739   5.792
 1929SOL     OW17414   0.485   0.288   1.705
 1929SOL    HW117415   0.511   0.212   1.758
 1929SOL    HW217416   0.559   0.301   1.645
 1930SOL     OW17417   4.611   2.443   2.246
 1930SOL    HW117418   4.526   2.420   2.284
 1930SOL    HW217419   4.590   2.508   2.178
 1931SOL     OW17420   2.413   0.544   9.636
 1931SOL    HW117421   2.382   0.500   9.557
 1931SOL    HW217422   2.385   0.488   9.708
 1932SOL     OW17423   3.598   0.356   5.993
 1932SOL    HW117424   3.618   0.429   5.934
 1932SOL    HW217425   3.569   0.398   6.074
 1933SOL     OW17426   4.622   0.131   0.869
 1933SOL    HW117427   4.606   0.208   0.923
 1933SOL    HW217428   4.670   0.072   0.927
 1934SOL     OW17429   0.879   2.330   6.506
 1934SOL    HW117430   0.957   2.274   6.506
 1934SOL    HW217431   0.905   2.408   6.554
 1935SOL     OW17432   0.884   4.721   6.752
 1935SOL    HW117433   0.951   4.761   6.808
 1935SOL    HW217434   0.880   4.630   6.781
 1936SOL     OW17435   0.890   4.352   7.310
 1936SOL    HW117436   0.938   4.435   7.312
 1936SOL    HW217437   0.856   4.342   7.399
 1937SOL     OW17438   3.971   3.150   6.047
 1937SOL    HW117439   4.049   3.131   5.995
 1937SOL    HW217440   3.905   3.175   5.983
 1938SOL     OW17441   3.514   0.886  28.516
 1938SOL    HW117442   3.574   0.960  28.518
 1938SOL    HW217443   3.534   0.840  28.435
 1939SOL     OW17444   1.262   2.729   3.270
 1939SOL    HW117445   1.300   2.694   3.190
 1939SOL    HW217446   1.211   2.657   3.306
 1940SOL     OW17447   0.107   2.882   7.455
 1940SOL    HW117448   0.070   2.890   7.543
 1940SOL    HW217449   0.170   2.954   7.449
 1941SOL     OW17450   1.923   2.014  26.427
 1941SOL    HW117451   1.923   2.062  26.344
 1941SOL    HW217452   1.988   2.058  26.481
 1942SOL     OW17453   3.170   1.188   3.168
 1942SOL    HW117454   3.233   1.226   3.107
 1942SOL    HW217455   3.195   1.222   3.254
 1943SOL     OW17456   4.456   0.596  25.769
 1943SOL    HW117457   4.478   0.507  25.741
 1943SOL    HW217458   4.529   0.649  25.739
 1944SOL     OW17459   0.850   1.875   2.650
 1944SOL    HW117460   0.864   1.952   2.596
 1944SOL    HW217461   0.907   1.808   2.610
 1945SOL     OW17462   3.531   4.234  22.960
 1945SOL    HW117463   3.546   4.320  22.922
 1945SOL    HW217464   3.589   4.175  22.911
 1946SOL     OW17465   3.185   1.018  21.634
 1946SOL    HW117466   3.119   0.951  21.619
 1946SOL    HW217467   3.169   1.083  21.566
 1947SOL     OW17468   4.084   0.366   5.801
 1947SOL    HW117469   4.045   0.444   5.763
 1947SOL    HW217470   4.009   0.314   5.830
 1948SOL     OW17471   3.195   1.805  19.639
 1948SOL    HW117472   3.177   1.882  19.585
 1948SOL    HW217473   3.256   1.752  19.586
 1949SOL     OW17474   1.748   0.054   1.450
 1949SOL    HW117475   1.657   0.046   1.478
 1949SOL    HW217476   1.799   0.050   1.531
 1950SOL     OW17477   0.084   0.268   4.220
 1950SOL    HW117478   0.052   0.315   4.297
 1950SOL    HW217479   0.005   0.229   4.182
 1951SOL     OW17480   2.436   3.643   3.368
 1951SOL    HW117481   2.527   3.672   3.355
 1951SOL    HW217482   2.392   3.664   3.286
 1952SOL     OW17483   1.202   2.906  21.003
 1952SOL    HW117484   1.219   2.964  21.077
 1952SOL    HW217485   1.127   2.853  21.031
 1953SOL     OW17486   2.472   2.225  27.587
 1953SOL    HW117487   2.387   2.202  27.625
 1953SOL    HW217488   2.518   2.141  27.577
 1954SOL     OW17489   4.278   0.824   3.609
 1954SOL    HW117490   4.346   0.891   3.595
 1954SOL    HW217491   4.315   0.745   3.570
 1955SOL     OW17492   3.679   1.551  26.591
 1955SOL    HW117493   3.747   1.615  26.570
 1955SOL    HW217494   3.723   1.486  26.646
 1956SOL     OW17495   2.522   2.233   7.786
 1956SOL    HW117496   2.486   2.204   7.870
 1956SOL    HW217497   2.608   2.268   7.808
 1957SOL     OW17498   0.488   4.258  28.020
 1957SOL    HW117499   0.510   4.268  27.928
 1957SOL    HW217500   0.410   4.201  28.020
 1958SOL     OW17501   0.886   0.540  22.898
 1958SOL    HW117502   0.957   0.532  22.834
 1958SOL    HW217503   0.811   0.497  22.858
 1959SOL     OW17504   4.510   4.397   0.855
 1959SOL    HW117505   4.493   4.310   0.818
 1959SOL    HW217506   4.557   4.379   0.936
 1960SOL     OW17507   3.893   4.146  23.366
 1960SOL    HW117508   3.891   4.082  23.295
 1960SOL    HW217509   3.979   4.187  23.360
 1961SOL     OW17510   3.899   0.732  17.400
 1961SOL    HW117511   3.805   0.715  17.401
 1961SOL    HW217512   3.928   0.716  17.490
 1962SOL     OW17513   2.699   0.312   2.515
 1962SOL    HW117514   2.765   0.349   2.455
 1962SOL    HW217515   2.718   0.354   2.599
 1963SOL     OW17516   3.575   2.984   1.002
 1963SOL    HW117517   3.582   2.936   1.085
 1963SOL    HW217518   3.502   3.044   1.015
 1964SOL     OW17519   0.822   2.611   3.229
 1964SOL    HW117520   0.773   2.529   3.231
 1964SOL    HW217521   0.799   2.650   3.144
 1965SOL     OW17522   1.770   0.817   6.166
 1965SOL    HW117523   1.693   0.874   6.170
 1965SOL    HW217524   1.761   0.759   6.241
 1966SOL     OW17525   0.507   0.685   0.262
 1966SOL    HW117526   0.493   0.697   0.168
 1966SOL    HW217527   0.418   0.677   0.298
 1967SOL     OW17528   3.088   4.638   6.770
 1967SOL    HW117529   3.128   4.560   6.730
 1967SOL    HW217530   3.027   4.603   6.834
 1968SOL     OW17531   4.664   1.632   5.132
 1968SOL    HW117532   4.629   1.718   5.156
 1968SOL    HW217533   4.758   1.640   5.146
 1969SOL     OW17534   1.394   0.477  27.965
 1969SOL    HW117535   1.423   0.417  28.033
 1969SOL    HW217536   1.329   0.533  28.009
 1970SOL     OW17537   3.682   0.681   2.170
 1970SOL    HW117538   3.629   0.697   2.249
 1970SOL    HW217539   3.665   0.757   2.114
 1971SOL     OW17540   0.827   3.295  21.532
 1971SOL    HW117541   0.857   3.353  21.602
 1971SOL    HW217542   0.771   3.350  21.477
 1972SOL     OW17543   1.199   1.143  26.752
 1972SOL    HW117544   1.161   1.056  26.763
 1972SOL    HW217545   1.229   1.144  26.661
 1973SOL     OW17546   2.713   1.882   8.469
 1973SOL    HW117547   2.691   1.817   8.402
 1973SOL    HW217548   2.794   1.922   8.437
 1974SOL     OW17549   0.147   1.670  17.805
 1974SOL    HW117550   0.237   1.639  17.798
 1974SOL    HW217551   0.097   1.612  17.748
 1975SOL     OW17552   1.506   1.473  25.766
 1975SOL    HW117553   1.427   1.512  25.730
 1975SOL    HW217554   1.502   1.494  25.860
 1976SOL     OW17555   2.674   3.917  27.840
 1976SOL    HW117556   2.610   3.914  27.911
 1976SOL    HW217557   2.640   3.858  27.773
 1977SOL     OW17558   1.963   4.759   4.101
 1977SOL    HW117559   2.031   0.033   4.139
 1977SOL    HW217560   1.957   0.006   4.010
 1978SOL     OW17561   1.491   4.477   3.653
 1978SOL    HW117562   1.538   4.404   3.613
 1978SOL    HW217563   1.419   4.495   3.593
 1979SOL     OW17564   1.816   0.785  25.924
 1979SOL    HW117565   1.768   0.726  25.866
 1979SOL    HW217566   1.866   0.726  25.981
 1980SOL     OW17567   3.856   1.907  26.974
 1980SOL    HW117568   3.768   1.914  26.935
 1980SOL    HW217569   3.910   1.965  26.921
 1981SOL     OW17570   2.448   3.083   7.630
 1981SOL    HW117571   2.478   3.159   7.680
 1981SOL    HW217572   2.355   3.100   7.614
 1982SOL     OW17573   1.148   2.778   7.372
 1982SOL    HW117574   1.061   2.810   7.394
 1982SOL    HW217575   1.163   2.706   7.432
 1983SOL     OW17576   2.597   0.727  23.423
 1983SOL    HW117577   2.669   0.698  23.368
 1983SOL    HW217578   2.575   0.814  23.390
 1984SOL     OW17579   2.450   1.031   4.729
 1984SOL    HW117580   2.398   1.101   4.689
 1984SOL    HW217581   2.418   1.027   4.819
 1985SOL     OW17582   3.295   0.798   3.683
 1985SOL    HW117583   3.337   0.813   3.768
 1985SOL    HW217584   3.248   0.880   3.665
 1986SOL     OW17585   4.456   2.565   8.738
 1986SOL    HW117586   4.387   2.619   8.777
 1986SOL    HW217587   4.415   2.480   8.724
 1987SOL     OW17588   0.151   0.489  25.062
 1987SOL    HW117589   0.090   0.558  25.036
 1987SOL    HW217590   0.153   0.492  25.157
 1988SOL     OW17591   1.989   4.122   0.929
 1988SOL    HW117592   1.920   4.115   0.864
 1988SOL    HW217593   1.944   4.155   1.008
 1989SOL     OW17594   0.317   3.410   2.176
 1989SOL    HW117595   0.328   3.453   2.261
 1989SOL    HW217596   0.313   3.317   2.197
 1990SOL     OW17597   4.105   0.632  23.854
 1990SOL    HW117598   4.174   0.601  23.795
 1990SOL    HW217599   4.049   0.686  23.798
 1991SOL     OW17600   1.298   0.877  26.456
 1991SOL    HW117601   1.206   0.854  26.468
 1991SOL    HW217602   1.304   0.967  26.490
 1992SOL     OW17603   2.927   0.622  24.205
 1992SOL    HW117604   2.889   0.707  24.229
 1992SOL    HW217605   2.862   0.583  24.146
 1993SOL     OW17606   4.314   4.010  23.879
 1993SOL    HW117607   4.228   3.972  23.860
 1993SOL    HW217608   4.312   4.097  23.839
 1994SOL     OW17609   4.772   1.062   5.351
 1994SOL    HW117610   4.721   1.070   5.431
 1994SOL    HW217611   0.034   1.147   5.342
 1995SOL     OW17612   4.478   2.287   5.755
 1995SOL    HW117613   4.461   2.373   5.793
 1995SOL    HW217614   4.413   2.229   5.796
 1996SOL     OW17615   2.395   0.732   6.945
 1996SOL    HW117616   2.340   0.757   7.020
 1996SOL    HW217617   2.483   0.761   6.970
 1997SOL     OW17618   0.484   3.943   4.326
 1997SOL    HW117619   0.440   3.893   4.258
 1997SOL    HW217620   0.497   3.882   4.397
 1998SOL     OW17621   3.420   2.500  22.869
 1998SOL    HW117622   3.462   2.490  22.783
 1998SOL    HW217623   3.336   2.456  22.859
 1999SOL     OW17624   1.140   3.030  25.106
 1999SOL    HW117625   1.176   3.115  25.129
 1999SOL    HW217626   1.104   2.996  25.188
 2000SOL     OW17627   0.773   2.156  27.636
 2000SOL    HW117628   0.845   2.175  27.577
 2000SOL    HW217629   0.703   2.216  27.610
 2001SOL     OW17630   1.535   0.311  21.546
 2001SOL    HW117631   1.498   0.244  21.488
 2001SOL    HW217632   1.564   0.262  21.623
 2002SOL     OW17633   0.818   1.566   2.587
 2002SOL    HW117634   0.817   1.597   2.678
 2002SOL    HW217635   0.728   1.577   2.557
 2003SOL     OW17636   0.014   3.746   5.353
 2003SOL    HW117637   4.747   3.823   5.381
 2003SOL    HW217638   0.105   3.773   5.358
 2004SOL     OW17639   1.142   1.814   2.971
 2004SOL    HW117640   1.097   1.754   2.912
 2004SOL    HW217641   1.207   1.858   2.916
 2005SOL     OW17642   4.031   0.153  12.193
 2005SOL    HW117643   4.109   0.197  12.159
 2005SOL    HW217644   4.047   0.060  12.177
 2006SOL     OW17645   1.434   3.279   4.574
 2006SOL    HW117646   1.349   3.241   4.553
 2006SOL    HW217647   1.442   3.267   4.669
 2007SOL     OW17648   4.278   3.975   4.354
 2007SOL    HW117649   4.210   3.926   4.308
 2007SOL    HW217650   4.337   4.005   4.285
 2008SOL     OW17651   2.163   1.463  11.922
 2008SOL    HW117652   2.113   1.483  12.002
 2008SOL    HW217653   2.177   1.368  11.926
 2009SOL     OW17654   2.551   1.096   3.309
 2009SOL    HW117655   2.468   1.100   3.355
 2009SOL    HW217656   2.541   1.026   3.245
 2010SOL     OW17657   3.226   0.521  20.374
 2010SOL    HW117658   3.161   0.581  20.412
 2010SOL    HW217659   3.260   0.472  20.448
 2011SOL     OW17660   0.818   0.970  26.999
 2011SOL    HW117661   0.851   0.941  26.915
 2011SOL    HW217662   0.876   1.042  27.025
 2012SOL     OW17663   2.827   3.611  21.859
 2012SOL    HW117664   2.919   3.631  21.872
 2012SOL    HW217665   2.817   3.522  21.891
 2013SOL     OW17666   4.652   4.562   3.264
 2013SOL    HW117667   4.659   4.471   3.236
 2013SOL    HW217668   4.631   4.610   3.184
 2014SOL     OW17669   3.987   1.401   8.390
 2014SOL    HW117670   4.030   1.365   8.312
 2014SOL    HW217671   4.039   1.367   8.463
 2015SOL     OW17672   2.617   2.192  25.541
 2015SOL    HW117673   2.631   2.127  25.473
 2015SOL    HW217674   2.705   2.213  25.573
 2016SOL     OW17675   1.722   4.609  24.545
 2016SOL    HW117676   1.812   4.576  24.553
 2016SOL    HW217677   1.696   4.587  24.455
 2017SOL     OW17678   4.342   4.164  26.810
 2017SOL    HW117679   4.329   4.103  26.738
 2017SOL    HW217680   4.254   4.179  26.844
 2018SOL     OW17681   0.189   1.473   2.964
 2018SOL    HW117682   0.164   1.409   3.031
 2018SOL    HW217683   0.119   1.469   2.899
 2019SOL     OW17684   0.361   3.325  22.117
 2019SOL    HW117685   0.321   3.260  22.059
 2019SOL    HW217686   0.438   3.356  22.070
 2020SOL     OW17687   2.767   0.326   2.088
 2020SOL    HW117688   2.748   0.406   2.136
 2020SOL    HW217689   2.833   0.352   2.024
 2021SOL     OW17690   2.054   3.878   5.914
 2021SOL    HW117691   2.048   3.790   5.876
 2021SOL    HW217692   2.146   3.886   5.940
 2022SOL     OW17693   3.093   4.490   8.867
 2022SOL    HW117694   3.162   4.548   8.836
 2022SOL    HW217695   3.093   4.501   8.962
 2023SOL     OW17696   4.266   2.415  24.182
 2023SOL    HW117697   4.320   2.353  24.132
 2023SOL    HW217698   4.328   2.480  24.214
 2024SOL     OW17699   0.971   2.185  28.036
 2024SOL    HW117700   0.996   2.112  28.093
 2024SOL    HW217701   1.043   2.191  27.973
 2025SOL     OW17702   0.822   2.556   0.350
 2025SOL    HW117703   0.898   2.502   0.370
 2025SOL    HW217704   0.801   2.599   0.433
 2026SOL     OW17705   4.613   0.364  10.918
 2026SOL    HW117706   4.673   0.418  10.969
 2026SOL    HW217707   4.640   0.274  10.937
 2027SOL     OW17708   0.587   0.950  17.080
 2027SOL    HW117709   0.555   0.977  16.994
 2027SOL    HW217710   0.577   1.028  17.135
 2028SOL     OW17711   3.791   4.392   5.499
 2028SOL    HW117712   3.844   4.316   5.523
 2028SOL    HW217713   3.773   4.437   5.581
 2029SOL     OW17714   3.890   3.588   3.382
 2029SOL    HW117715   3.875   3.682   3.391
 2029SOL    HW217716   3.955   3.581   3.312
 2030SOL     OW17717   4.716   4.186  26.767
 2030SOL    HW117718   4.690   4.154  26.680
 2030SOL    HW217719   4.740   4.277  26.753
 2031SOL     OW17720   3.265   2.992  11.388
 2031SOL    HW117721   3.290   3.080  11.418
 2031SOL    HW217722   3.316   2.933  11.443
 2032SOL     OW17723   0.197   1.059  24.411
 2032SOL    HW117724   0.269   1.042  24.472
 2032SOL    HW217725   0.133   0.991  24.429
 2033SOL     OW17726   2.413   3.971  21.405
 2033SOL    HW117727   2.489   4.028  21.397
 2033SOL    HW217728   2.428   3.922  21.486
 2034SOL     OW17729   2.545   1.350   3.770
 2034SOL    HW117730   2.486   1.395   3.831
 2034SOL    HW217731   2.556   1.410   3.697
 2035SOL     OW17732   4.546   1.627   8.785
 2035SOL    HW117733   4.498   1.561   8.836
 2035SOL    HW217734   4.629   1.637   8.832
 2036SOL     OW17735   3.048   0.763  27.212
 2036SOL    HW117736   3.107   0.728  27.278
 2036SOL    HW217737   3.093   0.838  27.175
 2037SOL     OW17738   3.032   0.460  12.217
 2037SOL    HW117739   2.996   0.403  12.285
 2037SOL    HW217740   3.044   0.402  12.142
 2038SOL     OW17741   2.382   4.407   9.857
 2038SOL    HW117742   2.426   4.324   9.838
 2038SOL    HW217743   2.293   4.382   9.882
 2039SOL     OW17744   0.114   2.571   6.179
 2039SOL    HW117745   0.092   2.618   6.099
 2039SOL    HW217746   0.207   2.553   6.172
 2040SOL     OW17747   4.014   3.109  28.121
 2040SOL    HW117748   4.005   3.174  28.052
 2040SOL    HW217749   4.063   3.154  28.190
 2041SOL     OW17750   2.325   2.748   7.146
 2041SOL    HW117751   2.263   2.708   7.084
 2041SOL    HW217752   2.395   2.783   7.090
 2042SOL     OW17753   0.175   2.203   7.789
 2042SOL    HW117754   0.102   2.262   7.810
 2042SOL    HW217755   0.172   2.195   7.693
 2043SOL     OW17756   2.691   0.874   1.861
 2043SOL    HW117757   2.781   0.864   1.828
 2043SOL    HW217758   2.672   0.791   1.904
 2044SOL     OW17759   1.219   3.049  26.985
 2044SOL    HW117760   1.149   3.097  26.940
 2044SOL    HW217761   1.295   3.108  26.981
 2045SOL     OW17762   2.114   2.783  11.509
 2045SOL    HW117763   2.068   2.748  11.585
 2045SOL    HW217764   2.171   2.712  11.480
 2046SOL     OW17765   2.558   4.702  13.323
 2046SOL    HW117766   2.593   4.733  13.407
 2046SOL    HW217767   2.633   4.662  13.279
 2047SOL     OW17768   0.421   0.639   8.465
 2047SOL    HW117769   0.480   0.684   8.405
 2047SOL    HW217770   0.466   0.643   8.550
 2048SOL     OW17771   1.685   4.496   4.822
 2048SOL    HW117772   1.741   4.456   4.756
 2048SOL    HW217773   1.598   4.459   4.806
 2049SOL     OW17774   1.992   0.984   9.659
 2049SOL    HW117775   1.947   0.952   9.581
 2049SOL    HW217776   1.929   1.042   9.701
 2050SOL     OW17777   3.574   4.667   7.009
 2050SOL    HW117778   3.669   4.673   7.015
 2050SOL    HW217779   3.557   4.576   6.983
 2051SOL     OW17780   1.259   1.626   8.257
 2051SOL    HW117781   1.295   1.637   8.169
 2051SOL    HW217782   1.201   1.551   8.250
 2052SOL     OW17783   2.990   4.183  26.422
 2052SOL    HW117784   2.977   4.236  26.344
 2052SOL    HW217785   2.954   4.236  26.493
 2053SOL     OW17786   0.909   2.209   5.436
 2053SOL    HW117787   0.929   2.202   5.343
 2053SOL    HW217788   0.934   2.123   5.472
 2054SOL     OW17789   3.900   1.413  22.560
 2054SOL    HW117790   3.905   1.368  22.645
 2054SOL    HW217791   3.808   1.406  22.535
 2055SOL     OW17792   2.958   2.240  20.957
 2055SOL    HW117793   2.956   2.210  21.048
 2055SOL    HW217794   3.049   2.226  20.929
 2056SOL     OW17795   1.496   3.906  20.486
 2056SOL    HW117796   1.539   3.832  20.444
 2056SOL    HW217797   1.568   3.966  20.507
 2057SOL     OW17798   2.801   2.586  19.627
 2057SOL    HW117799   2.764   2.499  19.641
 2057SOL    HW217800   2.884   2.570  19.581
 2058SOL     OW17801   0.777   1.043   2.798
 2058SOL    HW117802   0.769   1.138   2.804
 2058SOL    HW217803   0.831   1.028   2.721
 2059SOL     OW17804   3.622   1.845   2.505
 2059SOL    HW117805   3.605   1.805   2.421
 2059SOL    HW217806   3.714   1.871   2.501
 2060SOL     OW17807   0.711   3.185   5.298
 2060SOL    HW117808   0.771   3.246   5.255
 2060SOL    HW217809   0.759   3.153   5.374
 2061SOL     OW17810   2.023   2.538   4.714
 2061SOL    HW117811   2.060   2.626   4.715
 2061SOL    HW217812   1.929   2.551   4.728
 2062SOL     OW17813   3.449   1.724  20.065
 2062SOL    HW117814   3.413   1.737  20.152
 2062SOL    HW217815   3.422   1.635  20.041
 2063SOL     OW17816   2.743   1.849   4.163
 2063SOL    HW117817   2.824   1.799   4.153
 2063SOL    HW217818   2.693   1.830   4.083
 2064SOL     OW17819   2.539   3.894   1.584
 2064SOL    HW117820   2.594   3.947   1.641
 2064SOL    HW217821   2.482   3.846   1.643
 2065SOL     OW17822   0.252   0.250  22.789
 2065SOL    HW117823   0.286   0.337  22.813
 2065SOL    HW217824   0.286   0.235  22.701
 2066SOL     OW17825   1.317   1.291   7.479
 2066SOL    HW117826   1.350   1.246   7.557
 2066SOL    HW217827   1.383   1.358   7.461
 2067SOL     OW17828   1.986   0.784   5.418
 2067SOL    HW117829   2.002   0.781   5.324
 2067SOL    HW217830   2.021   0.701   5.451
 2068SOL     OW17831   1.915   1.249   5.944
 2068SOL    HW117832   1.825   1.256   5.975
 2068SOL    HW217833   1.956   1.332   5.970
 2069SOL     OW17834   3.159   0.893  28.277
 2069SOL    HW117835   3.082   0.847  28.245
 2069SOL    HW217836   3.142   0.906  28.370
 2070SOL     OW17837   1.380   2.280   8.709
 2070SOL    HW117838   1.461   2.237   8.734
 2070SOL    HW217839   1.401   2.374   8.711
 2071SOL     OW17840   4.116   0.803   4.519
 2071SOL    HW117841   4.131   0.872   4.584
 2071SOL    HW217842   4.030   0.767   4.541
 2072SOL     OW17843   3.101   3.534   8.248
 2072SOL    HW117844   3.053   3.455   8.271
 2072SOL    HW217845   3.055   3.569   8.172
 2073SOL     OW17846   3.483   4.056   7.404
 2073SOL    HW117847   3.517   4.134   7.447
 2073SOL    HW217848   3.547   3.987   7.425
 2074SOL     OW17849   2.002   3.324  23.616
 2074SOL    HW117850   2.005   3.416  23.640
 2074SOL    HW217851   1.938   3.285  23.676
 2075SOL     OW17852   4.766   0.622  27.573
 2075SOL    HW117853   0.008   0.555  27.636
 2075SOL    HW217854   4.671   0.629  27.582
 2076SOL     OW17855   2.999   0.767  26.172
 2076SOL    HW117856   3.047   0.822  26.110
 2076SOL    HW217857   3.066   0.716  26.216
 2077SOL     OW17858   3.255   3.400   2.254
 2077SOL    HW117859   3.314   3.388   2.328
 2077SOL    HW217860   3.310   3.389   2.177
 2078SOL     OW17861   4.488   0.713  27.966
 2078SOL    HW117862   4.535   0.774  27.908
 2078SOL    HW217863   4.396   0.728  27.948
 2079SOL     OW17864   1.375   2.573   6.467
 2079SOL    HW117865   1.427   2.616   6.399
 2079SOL    HW217866   1.299   2.630   6.479
 2080SOL     OW17867   0.210   0.495   8.405
 2080SOL    HW117868   0.211   0.404   8.434
 2080SOL    HW217869   0.289   0.534   8.443
 2081SOL     OW17870   3.190   0.125  11.762
 2081SOL    HW117871   3.284   0.136  11.743
 2081SOL    HW217872   3.171   0.190  11.829
 2082SOL     OW17873   1.061   2.525   8.599
 2082SOL    HW117874   1.066   2.456   8.664
 2082SOL    HW217875   1.120   2.593   8.631
 2083SOL     OW17876   1.057   1.491   5.722
 2083SOL    HW117877   1.066   1.524   5.811
 2083SOL    HW217878   0.968   1.455   5.718
 2084SOL     OW17879   3.422   3.859  26.144
 2084SOL    HW117880   3.359   3.921  26.181
 2084SOL    HW217881   3.397   3.851  26.052
 2085SOL     OW17882   0.527   2.465   8.073
 2085SOL    HW117883   0.563   2.442   8.159
 2085SOL    HW217884   0.494   2.382   8.038
 2086SOL     OW17885   2.183   0.866  21.749
 2086SOL    HW117886   2.205   0.941  21.803
 2086SOL    HW217887   2.222   0.885  21.664
 2087SOL     OW17888   4.153   3.804   7.834
 2087SOL    HW117889   4.181   3.857   7.759
 2087SOL    HW217890   4.066   3.773   7.811
 2088SOL     OW17891   3.288   3.927  11.179
 2088SOL    HW117892   3.346   3.881  11.240
 2088SOL    HW217893   3.304   4.020  11.195
 2089SOL     OW17894   4.365   3.598  11.698
 2089SOL    HW117895   4.276   3.618  11.727
 2089SOL    HW217896   4.421   3.644  11.761
 2090SOL     OW17897   4.013   0.361   4.631
 2090SOL    HW117898   3.919   0.361   4.650
 2090SOL    HW217899   4.027   0.282   4.579
 2091SOL     OW17900   4.762   0.924   9.056
 2091SOL    HW117901   4.695   0.992   9.051
 2091SOL    HW217902   4.712   0.843   9.068
 2092SOL     OW17903   4.166   1.088  20.002
 2092SOL    HW117904   4.157   1.041  19.919
 2092SOL    HW217905   4.078   1.092  20.038
 2093SOL     OW17906   1.666   4.454   8.563
 2093SOL    HW117907   1.692   4.500   8.484
 2093SOL    HW217908   1.748   4.445   8.613
 2094SOL     OW17909   1.892   1.313  20.000
 2094SOL    HW117910   1.858   1.318  19.910
 2094SOL    HW217911   1.862   1.394  20.041
 2095SOL     OW17912   2.392   2.372  25.608
 2095SOL    HW117913   2.451   2.298  25.597
 2095SOL    HW217914   2.354   2.360  25.696
 2096SOL     OW17915   0.804   3.364   8.015
 2096SOL    HW117916   0.729   3.334   7.963
 2096SOL    HW217917   0.872   3.300   7.997
 2097SOL     OW17918   1.995   3.941  26.596
 2097SOL    HW117919   1.935   3.866  26.600
 2097SOL    HW217920   2.003   3.971  26.686
 2098SOL     OW17921   3.318   1.410  25.800
 2098SOL    HW117922   3.245   1.379  25.746
 2098SOL    HW217923   3.340   1.495  25.764
 2099SOL     OW17924   4.637   3.347  26.391
 2099SOL    HW117925   4.542   3.346  26.380
 2099SOL    HW217926   4.668   3.270  26.343
 2100SOL     OW17927   2.670   2.073  21.946
 2100SOL    HW117928   2.761   2.079  21.973
 2100SOL    HW217929   2.631   2.009  22.007
 2101SOL     OW17930   1.690   0.931   8.563
 2101SOL    HW117931   1.686   0.939   8.468
 2101SOL    HW217932   1.702   1.021   8.594
 2102SOL     OW17933   4.237   0.770  27.863
 2102SOL    HW117934   4.214   0.792  27.773
 2102SOL    HW217935   4.226   0.852  27.911
 2103SOL     OW17936   1.434   0.969  23.798
 2103SOL    HW117937   1.380   1.049  23.800
 2103SOL    HW217938   1.435   0.940  23.889
 2104SOL     OW17939   1.985   2.617  21.769
 2104SOL    HW117940   2.050   2.568  21.819
 2104SOL    HW217941   1.914   2.554  21.754
 2105SOL     OW17942   0.955   2.896  11.818
 2105SOL    HW117943   1.002   2.821  11.781
 2105SOL    HW217944   1.009   2.925  11.891
 2106SOL     OW17945   1.582   1.559   1.049
 2106SOL    HW117946   1.577   1.642   1.001
 2106SOL    HW217947   1.494   1.521   1.040
 2107SOL     OW17948   1.821   0.154   2.401
 2107SOL    HW117949   1.730   0.128   2.388
 2107SOL    HW217950   1.849   0.106   2.479
 2108SOL     OW17951   2.160   3.543  25.412
 2108SOL    HW117952   2.113   3.621  25.443
 2108SOL    HW217953   2.100   3.502  25.350
 2109SOL     OW17954   2.240   0.092  23.211
 2109SOL    HW117955   2.310   0.152  23.185
 2109SOL    HW217956   2.274   0.005  23.190
 2110SOL     OW17957   0.014   3.389   7.676
 2110SOL    HW117958   0.017   3.417   7.585
 2110SOL    HW217959   0.105   3.389   7.704
 2111SOL     OW17960   3.098   2.074  10.308
 2111SOL    HW117961   3.005   2.090  10.327
 2111SOL    HW217962   3.143   2.153  10.338
 2112SOL     OW17963   0.861   2.226  22.786
 2112SOL    HW117964   0.912   2.145  22.785
 2112SOL    HW217965   0.901   2.279  22.855
 2113SOL     OW17966   2.524   0.891   3.109
 2113SOL    HW117967   2.556   0.805   3.082
 2113SOL    HW217968   2.429   0.885   3.100
 2114SOL     OW17969   2.402   4.332   8.454
 2114SOL    HW117970   2.350   4.317   8.374
 2114SOL    HW217971   2.430   4.423   8.447
 2115SOL     OW17972   4.335   1.948  23.630
 2115SOL    HW117973   4.302   1.871  23.676
 2115SOL    HW217974   4.263   1.974  23.573
 2116SOL     OW17975   3.404   4.398  28.334
 2116SOL    HW117976   3.373   4.366  28.419
 2116SOL    HW217977   3.474   4.337  28.311
 2117SOL     OW17978   3.669   2.679   0.646
 2117SOL    HW117979   3.750   2.661   0.599
 2117SOL    HW217980   3.617   2.731   0.586
 2118SOL     OW17981   0.549   4.449  20.347
 2118SOL    HW117982   0.526   4.441  20.440
 2118SOL    HW217983   0.491   4.517  20.313
 2119SOL     OW17984   1.777   0.555   7.000
 2119SOL    HW117985   1.724   0.627   7.034
 2119SOL    HW217986   1.714   0.491   6.968
 2120SOL     OW17987   1.859   3.788  18.994
 2120SOL    HW117988   1.764   3.784  18.981
 2120SOL    HW217989   1.879   3.881  18.991
 2121SOL     OW17990   4.579   0.784  21.848
 2121SOL    HW117991   4.509   0.836  21.885
 2121SOL    HW217992   4.545   0.753  21.765
 2122SOL     OW17993   4.598   1.904  10.915
 2122SOL    HW117994   4.689   1.879  10.906
 2122SOL    HW217995   4.554   1.826  10.949
 2123SOL     OW17996   3.406   3.431  26.906
 2123SOL    HW117997   3.394   3.522  26.881
 2123SOL    HW217998   3.414   3.384  26.822
 2124SOL     OW17999   3.153   3.762  22.979
 2124SOL    HW118000   3.092   3.688  22.983
 2124SOL    HW218001   3.221   3.742  23.043
 2125SOL     OW18002   0.729   3.431   9.424
 2125SOL    HW118003   0.688   3.349   9.450
 2125SOL    HW218004   0.823   3.413   9.430
 2126SOL     OW18005   2.620   0.901  11.612
 2126SOL    HW118006   2.599   0.955  11.688
 2126SOL    HW218007   2.702   0.858  11.634
 2127SOL     OW18008   1.493   1.370   4.890
 2127SOL    HW118009   1.442   1.310   4.944
 2127SOL    HW218010   1.582   1.363   4.924
 2128SOL     OW18011   3.778   0.947  28.218
 2128SOL    HW118012   3.752   0.856  28.230
 2128SOL    HW218013   3.720   0.980  28.149
 2129SOL     OW18014   4.043   1.439  27.110
 2129SOL    HW118015   4.058   1.512  27.049
 2129SOL    HW218016   4.100   1.370  27.077
 2130SOL     OW18017   0.427   0.455  25.174
 2130SOL    HW118018   0.443   0.549  25.171
 2130SOL    HW218019   0.436   0.427  25.083
 2131SOL     OW18020   0.525   4.191  23.259
 2131SOL    HW118021   0.528   4.096  23.244
 2131SOL    HW218022   0.538   4.201  23.353
 2132SOL     OW18023   0.512   4.228   8.286
 2132SOL    HW118024   0.433   4.175   8.280
 2132SOL    HW218025   0.494   4.290   8.356
 2133SOL     OW18026   1.907   3.317  10.656
 2133SOL    HW118027   1.991   3.361  10.649
 2133SOL    HW218028   1.914   3.241  10.599
 2134SOL     OW18029   2.719   3.359  17.458
 2134SOL    HW118030   2.707   3.324  17.370
 2134SOL    HW218031   2.781   3.431  17.447
 2135SOL     OW18032   3.104   1.742  17.812
 2135SOL    HW118033   3.029   1.690  17.840
 2135SOL    HW218034   3.115   1.808  17.881
 2136SOL     OW18035   1.306   3.341   6.657
 2136SOL    HW118036   1.308   3.274   6.590
 2136SOL    HW218037   1.345   3.299   6.734
 2137SOL     OW18038   1.768   4.397  22.305
 2137SOL    HW118039   1.737   4.392  22.214
 2137SOL    HW218040   1.849   4.347  22.305
 2138SOL     OW18041   1.110   1.066  23.854
 2138SOL    HW118042   1.044   1.054  23.785
 2138SOL    HW218043   1.157   1.146  23.828
 2139SOL     OW18044   3.376   3.928  11.784
 2139SOL    HW118045   3.465   3.959  11.798
 2139SOL    HW218046   3.346   3.900  11.870
 2140SOL     OW18047   3.014   3.162  13.255
 2140SOL    HW118048   3.053   3.232  13.307
 2140SOL    HW218049   2.997   3.092  13.317
 2141SOL     OW18050   2.588   3.444  14.085
 2141SOL    HW118051   2.677   3.434  14.119
 2141SOL    HW218052   2.600   3.464  13.992
 2142SOL     OW18053   3.258   0.144  11.222
 2142SOL    HW118054   3.171   0.106  11.235
 2142SOL    HW218055   3.292   0.159  11.310
 2143SOL     OW18056   3.156   3.309  13.454
 2143SOL    HW118057   3.212   3.272  13.522
 2143SOL    HW218058   3.117   3.387  13.494
 2144SOL     OW18059   3.193   1.474  11.253
 2144SOL    HW118060   3.210   1.561  11.289
 2144SOL    HW218061   3.161   1.491  11.164
 2145SOL     OW18062   2.416   3.078  11.634
 2145SOL    HW118063   2.419   3.073  11.539
 2145SOL    HW218064   2.437   2.990  11.664
 2146SOL     OW18065   3.963   3.084  13.051
 2146SOL    HW118066   4.017   3.121  13.121
 2146SOL    HW218067   3.877   3.124  13.063
 2147SOL     OW18068   3.492   2.089  12.752
 2147SOL    HW118069   3.442   2.026  12.804
 2147SOL    HW218070   3.519   2.156  12.815
 2148SOL     OW18071   3.070   0.667  11.190
 2148SOL    HW118072   3.051   0.609  11.263
 2148SOL    HW218073   3.089   0.752  11.230
 2149SOL     OW18074   0.998   2.797  26.347
 2149SOL    HW118075   1.026   2.874  26.397
 2149SOL    HW218076   1.025   2.722  26.401
 2150SOL     OW18077   3.207   3.149  13.020
 2150SOL    HW118078   3.161   3.071  13.051
 2150SOL    HW218079   3.199   3.212  13.092
 2151SOL     OW18080   4.183   3.822  12.725
 2151SOL    HW118081   4.211   3.730  12.729
 2151SOL    HW218082   4.264   3.872  12.724
 2152SOL     OW18083   1.789   3.372  11.966
 2152SOL    HW118084   1.831   3.434  12.025
 2152SOL    HW218085   1.734   3.426  11.909
 2153SOL     OW18086   1.868   3.406  13.095
 2153SOL    HW118087   1.905   3.415  13.182
 2153SOL    HW218088   1.856   3.496  13.064
 2154SOL     OW18089   2.055   3.706  12.022
 2154SOL    HW118090   1.966   3.673  12.034
 2154SOL    HW218091   2.093   3.651  11.954
 2155SOL     OW18092   3.838   3.452  14.062
 2155SOL    HW118093   3.817   3.367  14.025
 2155SOL    HW218094   3.918   3.437  14.112
 2156SOL     OW18095   2.682   4.246  14.068
 2156SOL    HW118096   2.593   4.241  14.103
 2156SOL    HW218097   2.692   4.337  14.041
 2157SOL     OW18098   0.369   0.687  12.167
 2157SOL    HW118099   0.339   0.657  12.253
 2157SOL    HW218100   0.439   0.749  12.187
 2158SOL     OW18101   2.173   3.407  10.635
 2158SOL    HW118102   2.251   3.462  10.635
 2158SOL    HW218103   2.203   3.323  10.598
 2159SOL     OW18104   3.970   2.731  12.703
 2159SOL    HW118105   3.888   2.721  12.655
 2159SOL    HW218106   3.944   2.746  12.793
 2160SOL     OW18107   4.487   3.333  10.603
 2160SOL    HW118108   4.406   3.370  10.567
 2160SOL    HW218109   4.512   3.395  10.672
 2161SOL     OW18110   2.948   3.740  12.569
 2161SOL    HW118111   2.993   3.668  12.611
 2161SOL    HW218112   3.001   3.760  12.492
 2162SOL     OW18113   2.520   3.209  12.670
 2162SOL    HW118114   2.613   3.200  12.691
 2162SOL    HW218115   2.474   3.170  12.745
 2163SOL     OW18116   2.268   3.520  13.428
 2163SOL    HW118117   2.286   3.569  13.348
 2163SOL    HW218118   2.339   3.544  13.487
 2164SOL     OW18119   1.546   1.091   2.104
 2164SOL    HW118120   1.610   1.033   2.064
 2164SOL    HW218121   1.587   1.178   2.100
 2165SOL     OW18122   1.954   3.778  12.306
 2165SOL    HW118123   2.000   3.828  12.239
 2165SOL    HW218124   1.929   3.843  12.372
 2166SOL     OW18125   2.225   3.366  12.285
 2166SOL    HW118126   2.223   3.347  12.191
 2166SOL    HW218127   2.134   3.384  12.308
 2167SOL     OW18128   1.062   3.140   1.256
 2167SOL    HW118129   1.123   3.170   1.322
 2167SOL    HW218130   1.013   3.218   1.230
 2168SOL     OW18131   3.350   1.871  12.888
 2168SOL    HW118132   3.352   1.780  12.918
 2168SOL    HW218133   3.318   1.920  12.963
 2169SOL     OW18134   3.007   3.673  12.923
 2169SOL    HW118135   2.976   3.764  12.916
 2169SOL    HW218136   3.101   3.681  12.942
 2170SOL     OW18137   3.088   0.039  14.157
 2170SOL    HW118138   3.009   0.001  14.118
 2170SOL    HW218139   3.133   0.081  14.083
 2171SOL     OW18140   2.313   2.262  12.333
 2171SOL    HW118141   2.305   2.259  12.428
 2171SOL    HW218142   2.244   2.204  12.301
 2172SOL     OW18143   2.678   2.174  14.592
 2172SOL    HW118144   2.592   2.166  14.635
 2172SOL    HW218145   2.665   2.132  14.507
 2173SOL     OW18146   2.446   3.479  12.421
 2173SOL    HW118147   2.365   3.443  12.385
 2173SOL    HW218148   2.431   3.485  12.515
 2174SOL     OW18149   4.599   0.494  12.404
 2174SOL    HW118150   4.585   0.507  12.498
 2174SOL    HW218151   4.694   0.484  12.395
 2175SOL     OW18152   1.913   4.430  13.035
 2175SOL    HW118153   1.964   4.452  13.113
 2175SOL    HW218154   1.970   4.371  12.985
 2176SOL     OW18155   3.336   4.031  11.533
 2176SOL    HW118156   3.413   4.008  11.481
 2176SOL    HW218157   3.358   4.000  11.621
 2177SOL     OW18158   2.231   3.154  12.462
 2177SOL    HW118159   2.236   3.222  12.395
 2177SOL    HW218160   2.188   3.196  12.536
 2178SOL     OW18161   2.375   3.455  12.669
 2178SOL    HW118162   2.321   3.480  12.743
 2178SOL    HW218163   2.395   3.363  12.683
 2179SOL     OW18164   2.171   0.121  12.141
 2179SOL    HW118165   2.235   0.100  12.209
 2179SOL    HW218166   2.111   0.182  12.183
 2180SOL     OW18167   4.197   0.615  11.272
 2180SOL    HW118168   4.286   0.639  11.299
 2180SOL    HW218169   4.152   0.699  11.261
 2181SOL     OW18170   3.023   3.448  13.933
 2181SOL    HW118171   3.072   3.516  13.979
 2181SOL    HW218172   3.021   3.374  13.995
 2182SOL     OW18173   2.034   1.415  13.454
 2182SOL    HW118174   2.041   1.510  13.448
 2182SOL    HW218175   1.942   1.399  13.477
 2183SOL     OW18176   2.551   3.226  12.385
 2183SOL    HW118177   2.492   3.301  12.389
 2183SOL    HW218178   2.553   3.193  12.475
 2184SOL     OW18179   2.247   0.312  13.514
 2184SOL    HW118180   2.189   0.369  13.564
 2184SOL    HW218181   2.291   0.258  13.579
 2185SOL     OW18182   1.156   0.083   2.355
 2185SOL    HW118183   1.081   0.043   2.311
 2185SOL    HW218184   1.193   0.143   2.291
 2186SOL     OW18185   3.006   1.990  13.007
 2186SOL    HW118186   2.939   2.015  13.072
 2186SOL    HW218187   2.959   1.990  12.924
 2187SOL     OW18188   3.733   3.233  13.119
 2187SOL    HW118189   3.646   3.258  13.087
 2187SOL    HW218190   3.720   3.215  13.212
 2188SOL     OW18191   4.730   3.623   4.414
 2188SOL    HW118192   4.663   3.601   4.350
 2188SOL    HW218193   4.769   3.539   4.439
 2189SOL     OW18194   2.365   2.762  14.160
 2189SOL    HW118195   2.400   2.848  14.134
 2189SOL    HW218196   2.279   2.782  14.197
 2190SOL     OW18197   2.048   3.966  11.947
 2190SOL    HW118198   2.125   4.004  11.988
 2190SOL    HW218199   2.057   3.871  11.960
 2191SOL     OW18200   1.023   2.838  13.008
 2191SOL    HW118201   1.064   2.865  13.090
 2191SOL    HW218202   1.059   2.897  12.942
 2192SOL     OW18203   3.276   3.270  12.274
 2192SOL    HW118204   3.367   3.293  12.255
 2192SOL    HW218205   3.262   3.301  12.364
 2193SOL     OW18206   4.367   3.165   3.533
 2193SOL    HW118207   4.303   3.222   3.575
 2193SOL    HW218208   4.347   3.077   3.567
 2194SOL     OW18209   3.021   4.401  11.925
 2194SOL    HW118210   3.094   4.463  11.913
 2194SOL    HW218211   3.039   4.360  12.010
 2195SOL     OW18212   4.345   2.734  23.741
 2195SOL    HW118213   4.251   2.713  23.739
 2195SOL    HW218214   4.387   2.651  23.764
 2196SOL     OW18215   1.274   1.164  11.314
 2196SOL    HW118216   1.284   1.177  11.409
 2196SOL    HW218217   1.196   1.108  11.306
 2197SOL     OW18218   2.694   3.767  13.120
 2197SOL    HW118219   2.733   3.683  13.145
 2197SOL    HW218220   2.720   3.826  13.190
 2198SOL     OW18221   2.011   3.711  13.545
 2198SOL    HW118222   2.001   3.630  13.595
 2198SOL    HW218223   1.936   3.711  13.485
 2199SOL     OW18224   4.138   2.328  20.767
 2199SOL    HW118225   4.220   2.279  20.771
 2199SOL    HW218226   4.071   2.260  20.759
 2200SOL     OW18227   3.040   0.506  13.484
 2200SOL    HW118228   2.973   0.544  13.427
 2200SOL    HW218229   3.001   0.509  13.572
 2201SOL     OW18230   3.259   4.225  13.993
 2201SOL    HW118231   3.177   4.220  13.943
 2201SOL    HW218232   3.249   4.158  14.061
 2202SOL     OW18233   3.351   4.090  14.239
 2202SOL    HW118234   3.269   4.044  14.222
 2202SOL    HW218235   3.344   4.120  14.330
 2203SOL     OW18236   1.816   4.427  13.381
 2203SOL    HW118237   1.810   4.510  13.429
 2203SOL    HW218238   1.910   4.408  13.379
 2204SOL     OW18239   4.182   0.503  12.768
 2204SOL    HW118240   4.197   0.452  12.688
 2204SOL    HW218241   4.088   0.493  12.784
 2205SOL     OW18242   2.787   0.694  13.482
 2205SOL    HW118243   2.861   0.749  13.457
 2205SOL    HW218244   2.718   0.755  13.507
 2206SOL     OW18245   3.554   3.766  14.409
 2206SOL    HW118246   3.602   3.849  14.406
 2206SOL    HW218247   3.510   3.766  14.494
 2207SOL     OW18248   2.311   3.288  13.852
 2207SOL    HW118249   2.332   3.382  13.847
 2207SOL    HW218250   2.396   3.245  13.854
 2208SOL     OW18251   2.023   3.480  13.326
 2208SOL    HW118252   2.098   3.502  13.382
 2208SOL    HW218253   1.975   3.562  13.317
 2209SOL     OW18254   3.431   4.384  13.683
 2209SOL    HW118255   3.475   4.349  13.760
 2209SOL    HW218256   3.435   4.479  13.693
 2210SOL     OW18257   2.885   4.567  13.466
 2210SOL    HW118258   2.864   4.641  13.522
 2210SOL    HW218259   2.831   4.580  13.388
 2211SOL     OW18260   2.421   2.285  14.197
 2211SOL    HW118261   2.507   2.275  14.156
 2211SOL    HW218262   2.360   2.244  14.136
 2212SOL     OW18263   3.094   3.820  14.412
 2212SOL    HW118264   3.150   3.743  14.409
 2212SOL    HW218265   3.018   3.792  14.464
 2213SOL     OW18266   4.056   4.558  12.876
 2213SOL    HW118267   4.088   4.550  12.786
 2213SOL    HW218268   4.096   4.484  12.921
 2214SOL     OW18269   2.564   2.237  12.401
 2214SOL    HW118270   2.560   2.307  12.465
 2214SOL    HW218271   2.479   2.240  12.357
 2215SOL     OW18272   1.940   4.155  14.521
 2215SOL    HW118273   2.029   4.123  14.502
 2215SOL    HW218274   1.885   4.077  14.513
 2216SOL     OW18275   3.462   0.048  13.392
 2216SOL    HW118276   3.464   0.080  13.482
 2216SOL    HW218277   3.485   0.125  13.339
 2217SOL     OW18278   2.050   3.485  13.699
 2217SOL    HW118279   2.034   3.447  13.785
 2217SOL    HW218280   2.143   3.510  13.701
 2218SOL     OW18281   3.322   3.255  14.959
 2218SOL    HW118282   3.281   3.214  14.883
 2218SOL    HW218283   3.299   3.348  14.952
 2219SOL     OW18284   1.571   4.397  14.252
 2219SOL    HW118285   1.493   4.437  14.289
 2219SOL    HW218286   1.616   4.356  14.326
 2220SOL     OW18287   2.683   3.819  12.866
 2220SOL    HW118288   2.679   3.798  12.959
 2220SOL    HW218289   2.761   3.873  12.857
 2221SOL     OW18290   3.488   0.526  13.431
 2221SOL    HW118291   3.559   0.587  13.451
 2221SOL    HW218292   3.422   0.544  13.497
 2222SOL     OW18293   2.716   3.491  12.459
 2222SOL    HW118294   2.629   3.455  12.440
 2222SOL    HW218295   2.698   3.578  12.493
 2223SOL     OW18296   3.551   3.964  14.103
 2223SOL    HW118297   3.491   4.016  14.155
 2223SOL    HW218298   3.597   4.029  14.048
 2224SOL     OW18299   3.103   3.983  14.184
 2224SOL    HW118300   3.022   4.034  14.185
 2224SOL    HW218301   3.094   3.922  14.257
 2225SOL     OW18302   3.984   4.179  13.751
 2225SOL    HW118303   3.949   4.266  13.770
 2225SOL    HW218304   3.913   4.119  13.772
 2226SOL     OW18305   3.904   4.149  14.140
 2226SOL    HW118306   3.823   4.167  14.187
 2226SOL    HW218307   3.876   4.097  14.064
 2227SOL     OW18308   3.256   3.351  13.208
 2227SOL    HW118309   3.188   3.415  13.186
 2227SOL    HW218310   3.234   3.322  13.296
 2228SOL     OW18311   1.050   4.032  13.677
 2228SOL    HW118312   0.960   4.030  13.709
 2228SOL    HW218313   1.069   4.125  13.664
 2229SOL     OW18314   3.328   0.277  13.847
 2229SOL    HW118315   3.337   0.225  13.927
 2229SOL    HW218316   3.311   0.366  13.879
 2230SOL     OW18317   3.980   4.699  15.368
 2230SOL    HW118318   4.037   4.772  15.344
 2230SOL    HW218319   3.908   4.739  15.415
 2231SOL     OW18320   3.365   3.370  12.833
 2231SOL    HW118321   3.413   3.313  12.772
 2231SOL    HW218322   3.278   3.330  12.840
 2232SOL     OW18323   3.287   0.570  13.597
 2232SOL    HW118324   3.195   0.567  13.571
 2232SOL    HW218325   3.286   0.614  13.681
 2233SOL     OW18326   2.525   3.530  13.139
 2233SOL    HW118327   2.602   3.533  13.196
 2233SOL    HW218328   2.496   3.439  13.142
 2234SOL     OW18329   1.799   3.967  14.418
 2234SOL    HW118330   1.776   4.021  14.342
 2234SOL    HW218331   1.857   3.900  14.383
 2235SOL     OW18332   1.897   3.586  12.532
 2235SOL    HW118333   1.990   3.598  12.553
 2235SOL    HW218334   1.881   3.647  12.461
 2236SOL     OW18335   2.180   3.389  13.074
 2236SOL    HW118336   2.262   3.345  13.099
 2236SOL    HW218337   2.134   3.403  13.157
 2237SOL     OW18338   2.796   4.627  13.184
 2237SOL    HW118339   2.849   4.699  13.217
 2237SOL    HW218340   2.772   4.654  13.095
 2238SOL     OW18341   2.660   0.475  13.401
 2238SOL    HW118342   2.656   0.495  13.308
 2238SOL    HW218343   2.716   0.544  13.438
 2239SOL     OW18344   2.101   3.151  13.749
 2239SOL    HW118345   2.182   3.192  13.778
 2239SOL    HW218346   2.114   3.136  13.656
 2240SOL     OW18347   2.517   4.112  14.432
 2240SOL    HW118348   2.471   4.153  14.506
 2240SOL    HW218349   2.478   4.152  14.354
 2241SOL     OW18350   4.384   3.659  12.560
 2241SOL    HW118351   4.360   3.596  12.492
 2241SOL    HW218352   4.355   3.619  12.641
 2242SOL     OW18353   1.850   3.708  13.296
 2242SOL    HW118354   1.795   3.782  13.323
 2242SOL    HW218355   1.823   3.691  13.205
 2243SOL     OW18356   2.053   1.683  13.374
 2243SOL    HW118357   2.137   1.725  13.354
 2243SOL    HW218358   2.002   1.694  13.294
 2244SOL     OW18359   2.931   3.747  13.660
 2244SOL    HW118360   2.846   3.787  13.678
 2244SOL    HW218361   2.990   3.820  13.645
 2245SOL     OW18362   2.381   2.940  12.521
 2245SOL    HW118363   2.334   3.018  12.490
 2245SOL    HW218364   2.337   2.916  12.603
 2246SOL     OW18365   2.691   3.732  12.607
 2246SOL    HW118366   2.786   3.735  12.599
 2246SOL    HW218367   2.674   3.756  12.698
 2247SOL     OW18368   3.265   3.279  13.694
 2247SOL    HW118369   3.318   3.285  13.773
 2247SOL    HW218370   3.212   3.358  13.693
 2248SOL     OW18371   3.225   0.159  13.154
 2248SOL    HW118372   3.196   0.078  13.197
 2248SOL    HW218373   3.254   0.215  13.226
 2249SOL     OW18374   3.778   4.022  13.805
 2249SOL    HW118375   3.790   3.948  13.863
 2249SOL    HW218376   3.689   4.014  13.772
 2250SOL     OW18377   2.748   4.376  14.749
 2250SOL    HW118378   2.685   4.400  14.681
 2250SOL    HW218379   2.797   4.456  14.766
 2251SOL     OW18380   1.987   0.184  13.762
 2251SOL    HW118381   2.002   0.090  13.770
 2251SOL    HW218382   1.965   0.213  13.851
 2252SOL     OW18383   3.163   4.367  13.380
 2252SOL    HW118384   3.103   4.377  13.306
 2252SOL    HW218385   3.218   4.445  13.378
 2253SOL     OW18386   2.427   4.229  14.209
 2253SOL    HW118387   2.337   4.237  14.240
 2253SOL    HW218388   2.419   4.202  14.118
 2254SOL     OW18389   2.130   3.946  13.606
 2254SOL    HW118390   2.099   3.856  13.605
 2254SOL    HW218391   2.154   3.965  13.515
 2255SOL     OW18392   2.395   3.164  14.413
 2255SOL    HW118393   2.338   3.214  14.470
 2255SOL    HW218394   2.401   3.216  14.332
 2256SOL     OW18395   3.235   0.056  14.380
 2256SOL    HW118396   3.191   0.031  14.299
 2256SOL    HW218397   3.295   0.126  14.354
 2257SOL     OW18398   3.557   3.453  14.041
 2257SOL    HW118399   3.527   3.535  14.080
 2257SOL    HW218400   3.651   3.451  14.059
 2258SOL     OW18401   3.062   3.489  13.665
 2258SOL    HW118402   3.021   3.576  13.669
 2258SOL    HW218403   3.039   3.448  13.748
 2259SOL     OW18404   1.604   0.876  14.672
 2259SOL    HW118405   1.591   0.927  14.752
 2259SOL    HW218406   1.695   0.893  14.647
 2260SOL     OW18407   3.055   2.970  12.648
 2260SOL    HW118408   2.988   2.988  12.582
 2260SOL    HW218409   3.130   3.024  12.622
 2261SOL     OW18410   3.072   3.973  13.621
 2261SOL    HW118411   3.060   3.988  13.714
 2261SOL    HW218412   3.139   4.036  13.595
 2262SOL     OW18413   1.970   3.392  12.374
 2262SOL    HW118414   1.894   3.334  12.366
 2262SOL    HW218415   1.948   3.451  12.447
 2263SOL     OW18416   2.195   4.006  13.360
 2263SOL    HW118417   2.168   3.955  13.284
 2263SOL    HW218418   2.230   4.088  13.323
 2264SOL     OW18419   3.523   4.210  13.900
 2264SOL    HW118420   3.431   4.215  13.926
 2264SOL    HW218421   3.530   4.125  13.857
 2265SOL     OW18422   3.276   4.190  13.583
 2265SOL    HW118423   3.310   4.259  13.641
 2265SOL    HW218424   3.276   4.230  13.496
 2266SOL     OW18425   1.801   0.393  12.126
 2266SOL    HW118426   1.786   0.450  12.202
 2266SOL    HW218427   1.878   0.342  12.149
 2267SOL     OW18428   2.491   3.021  15.390
 2267SOL    HW118429   2.467   2.930  15.372
 2267SOL    HW218430   2.585   3.025  15.371
 2268SOL     OW18431   3.840   3.039  15.120
 2268SOL    HW118432   3.852   2.955  15.076
 2268SOL    HW218433   3.745   3.053  15.119
 2269SOL     OW18434   1.127   1.885  16.169
 2269SOL    HW118435   1.084   1.799  16.163
 2269SOL    HW218436   1.055   1.947  16.178
 2270SOL     OW18437   4.681   0.081   2.555
 2270SOL    HW118438   4.648   0.095   2.466
 2270SOL    HW218439   4.725   4.779   2.551
 2271SOL     OW18440   1.585   4.125  15.502
 2271SOL    HW118441   1.661   4.167  15.541
 2271SOL    HW218442   1.579   4.039  15.545
 2272SOL     OW18443   1.271   3.554  16.415
 2272SOL    HW118444   1.184   3.541  16.376
 2272SOL    HW218445   1.322   3.596  16.346
 2273SOL     OW18446   2.715   2.585  15.950
 2273SOL    HW118447   2.626   2.620  15.949
 2273SOL    HW218448   2.715   2.519  15.880
 2274SOL     OW18449   3.049   4.540  15.606
 2274SOL    HW118450   3.055   4.626  15.647
 2274SOL    HW218451   2.982   4.494  15.656
 2275SOL     OW18452   3.351   4.602  15.370
 2275SOL    HW118453   3.338   4.566  15.283
 2275SOL    HW218454   3.264   4.597  15.410
 2276SOL     OW18455   0.107   4.560   6.452
 2276SOL    HW118456   0.154   4.501   6.393
 2276SOL    HW218457   0.127   4.648   6.419
 2277SOL     OW18458   4.522   2.348  15.662
 2277SOL    HW118459   4.582   2.422  15.659
 2277SOL    HW218460   4.509   2.324  15.570
 2278SOL     OW18461   1.687   3.319  15.799
 2278SOL    HW118462   1.596   3.332  15.775
 2278SOL    HW218463   1.736   3.334  15.719
 2279SOL     OW18464   3.197   3.469  16.573
 2279SOL    HW118465   3.199   3.432  16.485
 2279SOL    HW218466   3.112   3.514  16.579
 2280SOL     OW18467   2.439   3.181  15.597
 2280SOL    HW118468   2.375   3.233  15.550
 2280SOL    HW218469   2.451   3.103  15.543
 2281SOL     OW18470   2.373   0.098  14.959
 2281SOL    HW118471   2.360   0.081  14.866
 2281SOL    HW218472   2.431   0.029  14.989
 2282SOL     OW18473   2.186   3.562  15.329
 2282SOL    HW118474   2.230   3.647  15.333
 2282SOL    HW218475   2.126   3.570  15.255
 2283SOL     OW18476   3.057   4.696  15.384
 2283SOL    HW118477   3.059   4.627  15.450
 2283SOL    HW218478   3.091   4.654  15.304
 2284SOL     OW18479   2.619   2.985  15.999
 2284SOL    HW118480   2.553   3.047  15.968
 2284SOL    HW218481   2.579   2.899  15.985
 2285SOL     OW18482   3.556   3.187  15.074
 2285SOL    HW118483   3.572   3.272  15.115
 2285SOL    HW218484   3.476   3.199  15.024
 2286SOL     OW18485   1.099   3.213  14.863
 2286SOL    HW118486   1.190   3.193  14.884
 2286SOL    HW218487   1.048   3.156  14.921
 2287SOL     OW18488   3.509   0.136  17.284
 2287SOL    HW118489   3.450   0.095  17.222
 2287SOL    HW218490   3.557   0.064  17.324
 2288SOL     OW18491   2.589   4.126  17.174
 2288SOL    HW118492   2.523   4.159  17.114
 2288SOL    HW218493   2.596   4.193  17.242
 2289SOL     OW18494   2.266   3.789  16.326
 2289SOL    HW118495   2.205   3.843  16.276
 2289SOL    HW218496   2.335   3.766  16.263
 2290SOL     OW18497   3.577   0.015  16.347
 2290SOL    HW118498   3.623   4.746  16.281
 2290SOL    HW218499   3.522   0.075  16.297
 2291SOL     OW18500   1.537   3.904  15.157
 2291SOL    HW118501   1.445   3.932  15.158
 2291SOL    HW218502   1.543   3.844  15.083
 2292SOL     OW18503   2.109   4.432  16.039
 2292SOL    HW118504   2.074   4.482  16.113
 2292SOL    HW218505   2.140   4.499  15.977
 2293SOL     OW18506   2.895   3.476  16.052
 2293SOL    HW118507   2.900   3.407  16.118
 2293SOL    HW218508   2.954   3.447  15.982
 2294SOL     OW18509   3.489   3.492  15.643
 2294SOL    HW118510   3.425   3.425  15.620
 2294SOL    HW218511   3.455   3.533  15.722
 2295SOL     OW18512   3.776   0.179  16.971
 2295SOL    HW118513   3.742   0.100  17.015
 2295SOL    HW218514   3.871   0.173  16.981
 2296SOL     OW18515   3.086   3.182  15.122
 2296SOL    HW118516   3.163   3.206  15.071
 2296SOL    HW218517   3.102   3.092  15.149
 2297SOL     OW18518   2.265   3.143  17.803
 2297SOL    HW118519   2.346   3.180  17.839
 2297SOL    HW218520   2.241   3.074  17.866
 2298SOL     OW18521   2.848   0.293  16.028
 2298SOL    HW118522   2.770   0.288  16.083
 2298SOL    HW218523   2.817   0.272  15.940
 2299SOL     OW18524   1.087   2.163  15.389
 2299SOL    HW118525   1.148   2.237  15.382
 2299SOL    HW218526   1.073   2.153  15.483
 2300SOL     OW18527   0.260   2.100  18.378
 2300SOL    HW118528   0.293   2.184  18.408
 2300SOL    HW218529   0.204   2.070  18.450
 2301SOL     OW18530   2.228   3.086  15.359
 2301SOL    HW118531   2.321   3.078  15.336
 2301SOL    HW218532   2.214   3.180  15.369
 2302SOL     OW18533   4.291   4.650  17.732
 2302SOL    HW118534   4.374   4.687  17.703
 2302SOL    HW218535   4.227   4.681  17.668
 2303SOL     OW18536   2.966   0.118  16.216
 2303SOL    HW118537   3.050   0.147  16.179
 2303SOL    HW218538   2.903   0.182  16.182
 2304SOL     OW18539   2.457   3.728  16.152
 2304SOL    HW118540   2.524   3.791  16.123
 2304SOL    HW218541   2.502   3.643  16.152
 2305SOL     OW18542   2.306   3.615  15.001
 2305SOL    HW118543   2.338   3.533  14.964
 2305SOL    HW218544   2.254   3.589  15.076
 2306SOL     OW18545   2.145   4.150  16.064
 2306SOL    HW118546   2.201   4.157  15.987
 2306SOL    HW218547   2.108   4.238  16.075
 2307SOL     OW18548   1.841   4.341  16.313
 2307SOL    HW118549   1.854   4.295  16.396
 2307SOL    HW218550   1.926   4.382  16.295
 2308SOL     OW18551   3.568   3.463  15.966
 2308SOL    HW118552   3.662   3.479  15.974
 2308SOL    HW218553   3.559   3.369  15.984
 2309SOL     OW18554   1.776   2.921  14.955
 2309SOL    HW118555   1.780   2.976  15.033
 2309SOL    HW218556   1.765   2.982  14.882
 2310SOL     OW18557   4.215   4.295  17.011
 2310SOL    HW118558   4.142   4.357  17.008
 2310SOL    HW218559   4.204   4.241  16.932
 2311SOL     OW18560   0.037   0.075  15.172
 2311SOL    HW118561   0.014   0.021  15.096
 2311SOL    HW218562   0.064   0.012  15.239
 2312SOL     OW18563   2.955   2.535  28.404
 2312SOL    HW118564   2.866   2.571  28.412
 2312SOL    HW218565   2.942   2.440  28.406
 2313SOL     OW18566   2.635   4.151  14.882
 2313SOL    HW118567   2.669   4.224  14.830
 2313SOL    HW218568   2.710   4.120  14.933
 2314SOL     OW18569   0.725   0.030  16.184
 2314SOL    HW118570   0.779   0.017  16.107
 2314SOL    HW218571   0.768   4.761  16.253
 2315SOL     OW18572   2.861   1.615  17.831
 2315SOL    HW118573   2.849   1.549  17.899
 2315SOL    HW218574   2.773   1.643  17.809
 2316SOL     OW18575   3.358   3.719  17.878
 2316SOL    HW118576   3.348   3.706  17.972
 2316SOL    HW218577   3.296   3.657  17.839
 2317SOL     OW18578   0.140   3.136  16.091
 2317SOL    HW118579   0.170   3.111  16.004
 2317SOL    HW218580   0.071   3.201  16.075
 2318SOL     OW18581   3.866   2.564  14.162
 2318SOL    HW118582   3.811   2.643  14.157
 2318SOL    HW218583   3.890   2.546  14.071
 2319SOL     OW18584   1.465   3.051  18.214
 2319SOL    HW118585   1.375   3.019  18.209
 2319SOL    HW218586   1.517   2.972  18.229
 2320SOL     OW18587   0.984   0.285   9.615
 2320SOL    HW118588   1.028   0.276   9.700
 2320SOL    HW218589   0.942   0.370   9.619
 2321SOL     OW18590   3.820   2.755  15.233
 2321SOL    HW118591   3.735   2.796  15.220
 2321SOL    HW218592   3.844   2.778  15.323
 2322SOL     OW18593   3.741   1.217  17.427
 2322SOL    HW118594   3.805   1.242  17.361
 2322SOL    HW218595   3.670   1.280  17.418
 2323SOL     OW18596   4.074   1.005  26.543
 2323SOL    HW118597   3.985   0.978  26.565
 2323SOL    HW218598   4.124   0.989  26.623
 2324SOL     OW18599   4.421   3.738  20.619
 2324SOL    HW118600   4.384   3.809  20.567
 2324SOL    HW218601   4.516   3.751  20.613
 2325SOL     OW18602   0.129   0.390  24.815
 2325SOL    HW118603   0.034   0.381  24.808
 2325SOL    HW218604   0.142   0.436  24.898
 2326SOL     OW18605   0.083   1.779  19.856
 2326SOL    HW118606   0.074   1.686  19.876
 2326SOL    HW218607   0.153   1.783  19.790
 2327SOL     OW18608   3.142   4.314  18.039
 2327SOL    HW118609   3.105   4.241  18.090
 2327SOL    HW218610   3.205   4.273  17.980
 2328SOL     OW18611   1.076   1.107   0.767
 2328SOL    HW118612   1.155   1.069   0.728
 2328SOL    HW218613   1.011   1.037   0.764
 2329SOL     OW18614   3.998   4.447  16.969
 2329SOL    HW118615   3.933   4.459  16.901
 2329SOL    HW218616   3.961   4.491  17.046
 2330SOL     OW18617   4.693   2.058  17.413
 2330SOL    HW118618   4.730   2.144  17.393
 2330SOL    HW218619   4.632   2.040  17.342
 2331SOL     OW18620   2.620   3.631  18.209
 2331SOL    HW118621   2.681   3.664  18.275
 2331SOL    HW218622   2.543   3.687  18.217
 2332SOL     OW18623   1.704   2.342  16.308
 2332SOL    HW118624   1.650   2.310  16.236
 2332SOL    HW218625   1.791   2.353  16.271
 2333SOL     OW18626   1.897   4.561  17.770
 2333SOL    HW118627   1.907   4.639  17.824
 2333SOL    HW218628   1.935   4.584  17.686
 2334SOL     OW18629   3.458   0.774  15.335
 2334SOL    HW118630   3.365   0.767  15.355
 2334SOL    HW218631   3.468   0.735  15.248
 2335SOL     OW18632   2.857   3.601  17.370
 2335SOL    HW118633   2.897   3.537  17.312
 2335SOL    HW218634   2.792   3.646  17.316
 2336SOL     OW18635   3.432   3.282  16.304
 2336SOL    HW118636   3.507   3.338  16.284
 2336SOL    HW218637   3.469   3.210  16.356
 2337SOL     OW18638   2.440   3.901  17.095
 2337SOL    HW118639   2.455   3.923  17.003
 2337SOL    HW218640   2.508   3.950  17.142
 2338SOL     OW18641   0.800   0.282  18.197
 2338SOL    HW118642   0.828   0.367  18.230
 2338SOL    HW218643   0.828   0.281  18.105
 2339SOL     OW18644   4.220   3.290  16.836
 2339SOL    HW118645   4.212   3.307  16.743
 2339SOL    HW218646   4.302   3.240  16.845
 2340SOL     OW18647   1.979   1.792  21.978
 2340SOL    HW118648   1.894   1.794  22.023
 2340SOL    HW218649   1.960   1.818  21.888
 2341SOL     OW18650   3.653   2.051  18.220
 2341SOL    HW118651   3.560   2.063  18.204
 2341SOL    HW218652   3.689   2.022  18.136
 2342SOL     OW18653   3.827   3.469  16.053
 2342SOL    HW118654   3.917   3.488  16.030
 2342SOL    HW218655   3.818   3.500  16.143
 2343SOL     OW18656   2.626   1.516  18.553
 2343SOL    HW118657   2.665   1.502  18.466
 2343SOL    HW218658   2.581   1.600  18.545
 2344SOL     OW18659   3.097   4.725  17.234
 2344SOL    HW118660   3.073   0.032  17.260
 2344SOL    HW218661   3.013   4.679  17.228
 2345SOL     OW18662   2.883   3.080  16.606
 2345SOL    HW118663   2.828   3.015  16.563
 2345SOL    HW218664   2.894   3.149  16.541
 2346SOL     OW18665   3.923   4.231  27.111
 2346SOL    HW118666   3.981   4.283  27.055
 2346SOL    HW218667   3.868   4.183  27.050
 2347SOL     OW18668   0.496   0.661  16.924
 2347SOL    HW118669   0.584   0.672  16.961
 2347SOL    HW218670   0.498   0.712  16.843
 2348SOL     OW18671   3.539   4.545  18.254
 2348SOL    HW118672   3.569   4.636  18.248
 2348SOL    HW218673   3.471   4.539  18.186
 2349SOL     OW18674   2.913   4.381  16.691
 2349SOL    HW118675   2.941   4.397  16.781
 2349SOL    HW218676   2.856   4.455  16.670
 2350SOL     OW18677   1.309   1.773  19.577
 2350SOL    HW118678   1.221   1.800  19.600
 2350SOL    HW218679   1.335   1.833  19.506
 2351SOL     OW18680   0.727   3.643  17.687
 2351SOL    HW118681   0.756   3.640  17.596
 2351SOL    HW218682   0.807   3.665  17.736
 2352SOL     OW18683   1.817   0.738  17.113
 2352SOL    HW118684   1.774   0.750  17.198
 2352SOL    HW218685   1.755   0.685  17.063
 2353SOL     OW18686   0.838   4.599  23.514
 2353SOL    HW118687   0.847   4.668  23.580
 2353SOL    HW218688   0.748   4.569  23.522
 2354SOL     OW18689   2.569   3.846  19.683
 2354SOL    HW118690   2.502   3.913  19.672
 2354SOL    HW218691   2.628   3.859  19.608
 2355SOL     OW18692   4.705   3.615  28.020
 2355SOL    HW118693   4.703   3.671  27.943
 2355SOL    HW218694   0.011   3.576  28.019
 2356SOL     OW18695   0.856   2.699  17.496
 2356SOL    HW118696   0.809   2.693  17.413
 2356SOL    HW218697   0.946   2.675  17.475
 2357SOL     OW18698   1.018   0.049  25.541
 2357SOL    HW118699   0.929   0.022  25.565
 2357SOL    HW218700   1.010   0.142  25.522
 2358SOL     OW18701   3.910   3.524  17.016
 2358SOL    HW118702   3.892   3.562  17.102
 2358SOL    HW218703   3.834   3.549  16.963
 2359SOL     OW18704   2.682   4.245  16.579
 2359SOL    HW118705   2.705   4.160  16.541
 2359SOL    HW218706   2.753   4.263  16.641
 2360SOL     OW18707   0.506   2.787  25.159
 2360SOL    HW118708   0.568   2.820  25.094
 2360SOL    HW218709   0.545   2.812  25.243
 2361SOL     OW18710   4.593   3.748  15.909
 2361SOL    HW118711   4.510   3.700  15.905
 2361SOL    HW218712   4.570   3.837  15.883
 2362SOL     OW18713   0.271   0.526  21.608
 2362SOL    HW118714   0.181   0.533  21.638
 2362SOL    HW218715   0.323   0.522  21.689
 2363SOL     OW18716   0.576   3.535  16.965
 2363SOL    HW118717   0.672   3.539  16.966
 2363SOL    HW218718   0.554   3.507  16.876
 2364SOL     OW18719   0.344   4.344  21.394
 2364SOL    HW118720   0.253   4.356  21.367
 2364SOL    HW218721   0.347   4.377  21.484
 2365SOL     OW18722   4.604   3.861  17.753
 2365SOL    HW118723   4.657   3.850  17.674
 2365SOL    HW218724   4.664   3.901  17.816
 2366SOL     OW18725   1.668   1.077  16.414
 2366SOL    HW118726   1.754   1.080  16.373
 2366SOL    HW218727   1.628   1.162  16.394
 2367SOL     OW18728   0.037   1.062  17.734
 2367SOL    HW118729   0.067   1.104  17.653
 2367SOL    HW218730   4.764   0.990  17.704
 2368SOL     OW18731   2.823   3.666  16.241
 2368SOL    HW118732   2.882   3.696  16.310
 2368SOL    HW218733   2.874   3.605  16.190
 2369SOL     OW18734   2.803   2.806  16.960
 2369SOL    HW118735   2.804   2.778  17.051
 2369SOL    HW218736   2.853   2.738  16.913
 2370SOL     OW18737   2.879   3.087  16.891
 2370SOL    HW118738   2.863   3.088  16.797
 2370SOL    HW218739   2.858   2.998  16.918
 2371SOL     OW18740   3.201   3.188  18.381
 2371SOL    HW118741   3.142   3.259  18.408
 2371SOL    HW218742   3.142   3.121  18.346
 2372SOL     OW18743   0.027   3.335  15.118
 2372SOL    HW118744   0.003   3.400  15.052
 2372SOL    HW218745   0.005   3.251  15.079
 2373SOL     OW18746   1.857   3.301  17.191
 2373SOL    HW118747   1.824   3.357  17.121
 2373SOL    HW218748   1.947   3.330  17.206
 2374SOL     OW18749   1.023   4.619  20.786
 2374SOL    HW118750   0.998   4.665  20.866
 2374SOL    HW218751   1.092   4.673  20.748
 2375SOL     OW18752   3.016   3.989  16.220
 2375SOL    HW118753   3.022   3.909  16.272
 2375SOL    HW218754   3.055   3.966  16.136
 2376SOL     OW18755   3.961   3.422  16.667
 2376SOL    HW118756   3.990   3.331  16.673
 2376SOL    HW218757   4.042   3.474  16.667
 2377SOL     OW18758   1.370   4.161  17.008
 2377SOL    HW118759   1.342   4.158  17.100
 2377SOL    HW218760   1.460   4.195  17.012
 2378SOL     OW18761   1.758   4.514  18.362
 2378SOL    HW118762   1.737   4.580  18.296
 2378SOL    HW218763   1.673   4.487  18.397
 2379SOL     OW18764   2.735   2.827  26.001
 2379SOL    HW118765   2.652   2.875  25.998
 2379SOL    HW218766   2.759   2.826  26.094
 2380SOL     OW18767   0.102   4.052  17.119
 2380SOL    HW118768   0.167   4.117  17.092
 2380SOL    HW218769   0.030   4.063  17.057
 2381SOL     OW18770   3.049   3.675  15.781
 2381SOL    HW118771   3.062   3.704  15.872
 2381SOL    HW218772   3.054   3.579  15.785
 2382SOL     OW18773   3.725   3.337  28.143
 2382SOL    HW118774   3.716   3.256  28.093
 2382SOL    HW218775   3.735   3.405  28.076
 2383SOL     OW18776   1.146   1.943  14.901
 2383SOL    HW118777   1.188   2.029  14.896
 2383SOL    HW218778   1.054   1.962  14.919
 2384SOL     OW18779   2.093   3.420  17.196
 2384SOL    HW118780   2.072   3.469  17.117
 2384SOL    HW218781   2.188   3.410  17.194
 2385SOL     OW18782   1.722   1.818  25.105
 2385SOL    HW118783   1.777   1.791  25.179
 2385SOL    HW218784   1.662   1.883  25.143
 2386SOL     OW18785   3.174   4.667  17.673
 2386SOL    HW118786   3.249   4.706  17.629
 2386SOL    HW218787   3.181   4.574  17.654
 2387SOL     OW18788   1.141   1.052  17.791
 2387SOL    HW118789   1.113   1.131  17.836
 2387SOL    HW218790   1.134   1.073  17.698
 2388SOL     OW18791   3.445   3.554  16.676
 2388SOL    HW118792   3.505   3.504  16.621
 2388SOL    HW218793   3.361   3.549  16.631
 2389SOL     OW18794   3.368   0.067   1.366
 2389SOL    HW118795   3.282   0.092   1.333
 2389SOL    HW218796   3.411   0.023   1.293
 2390SOL     OW18797   1.909   0.431  16.869
 2390SOL    HW118798   1.918   0.526  16.873
 2390SOL    HW218799   1.999   0.399  16.868
 2391SOL     OW18800   4.094   2.293  18.380
 2391SOL    HW118801   4.102   2.216  18.437
 2391SOL    HW218802   4.012   2.279  18.333
 2392SOL     OW18803   1.909   1.319  16.907
 2392SOL    HW118804   1.835   1.287  16.854
 2392SOL    HW218805   1.970   1.245  16.910
 2393SOL     OW18806   3.820   2.662  17.904
 2393SOL    HW118807   3.847   2.706  17.824
 2393SOL    HW218808   3.792   2.733  17.963
 2394SOL     OW18809   3.315   3.251  16.065
 2394SOL    HW118810   3.396   3.208  16.038
 2394SOL    HW218811   3.335   3.286  16.152
 2395SOL     OW18812   3.612   3.613  16.885
 2395SOL    HW118813   3.562   3.592  16.806
 2395SOL    HW218814   3.610   3.709  16.890
 2396SOL     OW18815   0.651   1.798  27.755
 2396SOL    HW118816   0.690   1.885  27.758
 2396SOL    HW218817   0.595   1.794  27.832
 2397SOL     OW18818   4.399   0.603  24.989
 2397SOL    HW118819   4.464   0.673  24.996
 2397SOL    HW218820   4.389   0.570  25.079
 2398SOL     OW18821   4.187   4.704  23.129
 2398SOL    HW118822   4.155   4.730  23.043
 2398SOL    HW218823   4.224   4.617  23.116
 2399SOL     OW18824   2.938   2.142   1.777
 2399SOL    HW118825   2.943   2.220   1.832
 2399SOL    HW218826   2.995   2.078   1.819
 2400SOL     OW18827   1.374   3.397   1.992
 2400SOL    HW118828   1.425   3.316   1.989
 2400SOL    HW218829   1.421   3.453   2.054
 2401SOL     OW18830   3.026   2.822   9.808
 2401SOL    HW118831   2.947   2.774   9.782
 2401SOL    HW218832   2.993   2.906   9.840
 2402SOL     OW18833   1.986   2.795  28.330
 2402SOL    HW118834   1.984   2.766  28.421
 2402SOL    HW218835   2.078   2.812  28.312
 2403SOL     OW18836   2.575   4.651  22.987
 2403SOL    HW118837   2.615   4.729  22.950
 2403SOL    HW218838   2.481   4.666  22.978
 2404SOL     OW18839   0.984   1.552  18.529
 2404SOL    HW118840   1.012   1.476  18.579
 2404SOL    HW218841   0.955   1.516  18.445
 2405SOL     OW18842   3.503   3.917  22.093
 2405SOL    HW118843   3.596   3.896  22.083
 2405SOL    HW218844   3.491   3.926  22.188
 2406SOL     OW18845   4.001   0.358  27.642
 2406SOL    HW118846   4.053   0.436  27.623
 2406SOL    HW218847   3.911   0.388  27.643
 2407SOL     OW18848   0.986   2.690  23.653
 2407SOL    HW118849   0.983   2.676  23.748
 2407SOL    HW218850   0.917   2.634  23.619
 2408SOL     OW18851   3.576   3.749   6.010
 2408SOL    HW118852   3.603   3.658   6.020
 2408SOL    HW218853   3.655   3.800   6.027
 2409SOL     OW18854   4.406   0.583   0.247
 2409SOL    HW118855   4.494   0.620   0.239
 2409SOL    HW218856   4.411   0.526   0.324
 2410SOL     OW18857   0.365   2.161   4.203
 2410SOL    HW118858   0.394   2.169   4.294
 2410SOL    HW218859   0.269   2.166   4.208
 2411SOL     OW18860   4.102   1.073   4.284
 2411SOL    HW118861   4.140   1.149   4.329
 2411SOL    HW218862   4.173   1.010   4.278
 2412SOL     OW18863   4.652   3.227   4.369
 2412SOL    HW118864   4.680   3.142   4.337
 2412SOL    HW218865   4.640   3.215   4.463
 2413SOL     OW18866   3.985   4.498  22.274
 2413SOL    HW118867   3.983   4.457  22.188
 2413SOL    HW218868   3.938   4.580  22.263
 2414SOL     OW18869   3.891   0.690  23.434
 2414SOL    HW118870   3.906   0.598  23.453
 2414SOL    HW218871   3.802   0.694  23.398
 2415SOL     OW18872   2.297   0.144  16.947
 2415SOL    HW118873   2.367   0.209  16.939
 2415SOL    HW218874   2.341   0.060  16.945
 2416SOL     OW18875   1.323   4.050  24.716
 2416SOL    HW118876   1.367   4.008  24.641
 2416SOL    HW218877   1.247   3.995  24.733
 2417SOL     OW18878   1.741   2.949  28.530
 2417SOL    HW118879   1.812   3.012   0.002
 2417SOL    HW218880   1.783   2.864   0.013
 2418SOL     OW18881   2.842   4.644  21.570
 2418SOL    HW118882   2.783   4.591  21.517
 2418SOL    HW218883   2.926   4.640  21.524
 2419SOL     OW18884   1.539   4.714  18.456
 2419SOL    HW118885   1.610   4.753  18.506
 2419SOL    HW218886   1.460   4.756  18.490
 2420SOL     OW18887   1.165   2.530   8.091
 2420SOL    HW118888   1.228   2.602   8.081
 2420SOL    HW218889   1.133   2.539   8.181
 2421SOL     OW18890   1.394   1.369  17.323
 2421SOL    HW118891   1.369   1.324  17.403
 2421SOL    HW218892   1.475   1.415  17.346
 2422SOL     OW18893   2.186   4.207  22.918
 2422SOL    HW118894   2.138   4.156  22.853
 2422SOL    HW218895   2.119   4.248  22.971
 2423SOL     OW18896   3.010   3.967   4.061
 2423SOL    HW118897   2.939   3.910   4.090
 2423SOL    HW218898   3.086   3.908   4.054
 2424SOL     OW18899   2.858   0.453   7.893
 2424SOL    HW118900   2.817   0.401   7.824
 2424SOL    HW218901   2.793   0.454   7.964
 2425SOL     OW18902   0.008   3.631  20.812
 2425SOL    HW118903   4.763   3.717  20.843
 2425SOL    HW218904   4.738   3.617  20.732
 2426SOL     OW18905   2.089   4.670   6.446
 2426SOL    HW118906   2.110   4.763   6.456
 2426SOL    HW218907   2.071   4.640   6.535
 2427SOL     OW18908   0.585   4.700   5.747
 2427SOL    HW118909   0.590   0.000   5.700
 2427SOL    HW218910   0.648   4.709   5.819
 2428SOL     OW18911   1.951   0.369  17.281
 2428SOL    HW118912   1.900   0.331  17.210
 2428SOL    HW218913   2.041   0.372  17.246
 2429SOL     OW18914   2.408   2.864  27.203
 2429SOL    HW118915   2.325   2.879  27.248
 2429SOL    HW218916   2.474   2.897  27.263
 2430SOL     OW18917   2.343   4.189  10.122
 2430SOL    HW118918   2.401   4.173  10.048
 2430SOL    HW218919   2.377   4.267  10.164
 2431SOL     OW18920   2.633   4.312  17.379
 2431SOL    HW118921   2.700   4.362  17.333
 2431SOL    HW218922   2.555   4.368  17.376
 2432SOL     OW18923   4.007   1.120  24.897
 2432SOL    HW118924   3.916   1.143  24.882
 2432SOL    HW218925   4.005   1.027  24.920
 2433SOL     OW18926   2.952   0.341  16.487
 2433SOL    HW118927   3.026   0.344  16.426
 2433SOL    HW218928   2.874   0.340  16.431
 2434SOL     OW18929   2.813   1.746   6.433
 2434SOL    HW118930   2.739   1.756   6.373
 2434SOL    HW218931   2.872   1.686   6.387
 2435SOL     OW18932   2.397   2.141   2.325
 2435SOL    HW118933   2.478   2.093   2.346
 2435SOL    HW218934   2.329   2.074   2.326
 2436SOL     OW18935   1.722   1.030   4.291
 2436SOL    HW118936   1.696   0.940   4.271
 2436SOL    HW218937   1.742   1.029   4.385
 2437SOL     OW18938   1.949   2.633   1.447
 2437SOL    HW118939   1.858   2.658   1.433
 2437SOL    HW218940   2.000   2.706   1.412
 2438SOL     OW18941   0.809   0.350   0.375
 2438SOL    HW118942   0.830   0.256   0.368
 2438SOL    HW218943   0.892   0.394   0.355
 2439SOL     OW18944   0.311   0.621   1.502
 2439SOL    HW118945   0.301   0.688   1.434
 2439SOL    HW218946   0.232   0.628   1.556
 2440SOL     OW18947   0.664   2.144   3.439
 2440SOL    HW118948   0.586   2.160   3.493
 2440SOL    HW218949   0.660   2.051   3.419
 2441SOL     OW18950   2.733   2.563   2.301
 2441SOL    HW118951   2.724   2.634   2.237
 2441SOL    HW218952   2.743   2.484   2.247
 2442SOL     OW18953   1.476   0.846   1.652
 2442SOL    HW118954   1.463   0.751   1.661
 2442SOL    HW218955   1.428   0.869   1.572
 2443SOL     OW18956   1.234   4.282   9.580
 2443SOL    HW118957   1.325   4.269   9.606
 2443SOL    HW218958   1.184   4.269   9.661
 2444SOL     OW18959   3.584   2.034   5.516
 2444SOL    HW118960   3.619   1.948   5.493
 2444SOL    HW218961   3.518   2.052   5.450
 2445SOL     OW18962   0.687   2.573   7.623
 2445SOL    HW118963   0.619   2.518   7.585
 2445SOL    HW218964   0.718   2.524   7.699
 2446SOL     OW18965   0.823   4.331  24.244
 2446SOL    HW118966   0.832   4.421  24.273
 2446SOL    HW218967   0.745   4.298  24.289
 2447SOL     OW18968   0.144   2.137   0.808
 2447SOL    HW118969   0.136   2.096   0.895
 2447SOL    HW218970   0.147   2.063   0.748
 2448SOL     OW18971   0.051   1.693   9.491
 2448SOL    HW118972   0.088   1.773   9.453
 2448SOL    HW218973   4.772   1.660   9.425
 2449SOL     OW18974   3.385   4.496  16.609
 2449SOL    HW118975   3.315   4.556  16.631
 2449SOL    HW218976   3.463   4.551  16.602
 2450SOL     OW18977   3.565   1.318  16.196
 2450SOL    HW118978   3.597   1.407  16.178
 2450SOL    HW218979   3.471   1.323  16.182
 2451SOL     OW18980   1.063   0.878   6.609
 2451SOL    HW118981   0.980   0.919   6.634
 2451SOL    HW218982   1.050   0.849   6.519
 2452SOL     OW18983   4.531   0.323  25.739
 2452SOL    HW118984   4.483   0.316  25.657
 2452SOL    HW218985   4.493   0.254  25.794
 2453SOL     OW18986   3.898   0.566   0.962
 2453SOL    HW118987   3.909   0.633   1.030
 2453SOL    HW218988   3.816   0.588   0.919
 2454SOL     OW18989   2.494   0.143  21.168
 2454SOL    HW118990   2.453   0.225  21.139
 2454SOL    HW218991   2.446   0.075  21.121
 2455SOL     OW18992   4.014   3.266  17.009
 2455SOL    HW118993   3.966   3.349  17.015
 2455SOL    HW218994   4.066   3.274  16.930
 2456SOL     OW18995   0.010   0.726  26.368
 2456SOL    HW118996   4.700   0.701  26.360
 2456SOL    HW218997   0.031   0.768  26.284
 2457SOL     OW18998   0.875   1.692   2.128
 2457SOL    HW118999   0.878   1.608   2.174
 2457SOL    HW219000   0.963   1.703   2.092
 2458SOL     OW19001   4.380   1.293  20.000
 2458SOL    HW119002   4.336   1.208  20.011
 2458SOL    HW219003   4.335   1.335  19.927
 2459SOL     OW19004   3.439   0.392  28.465
 2459SOL    HW119005   3.419   0.370   0.025
 2459SOL    HW219006   3.360   0.435  28.432
 2460SOL     OW19007   3.542   3.251  16.775
 2460SOL    HW119008   3.573   3.161  16.773
 2460SOL    HW219009   3.600   3.298  16.715
 2461SOL     OW19010   0.527   3.545  17.251
 2461SOL    HW119011   0.548   3.533  17.158
 2461SOL    HW219012   0.606   3.519  17.298
 2462SOL     OW19013   3.551   0.838  20.608
 2462SOL    HW119014   3.466   0.800  20.587
 2462SOL    HW219015   3.531   0.920  20.653
 2463SOL     OW19016   1.278   2.237   9.049
 2463SOL    HW119017   1.282   2.148   9.014
 2463SOL    HW219018   1.328   2.233   9.131
 2464SOL     OW19019   3.121   4.227  20.491
 2464SOL    HW119020   3.095   4.273  20.571
 2464SOL    HW219021   3.110   4.291  20.421
 2465SOL     OW19022   0.744   3.235   8.782
 2465SOL    HW119023   0.660   3.216   8.824
 2465SOL    HW219024   0.752   3.330   8.789
 2466SOL     OW19025   3.634   3.660  18.123
 2466SOL    HW119026   3.618   3.708  18.205
 2466SOL    HW219027   3.730   3.653  18.118
 2467SOL     OW19028   0.583   1.052   3.842
 2467SOL    HW119029   0.536   1.091   3.769
 2467SOL    HW219030   0.602   1.125   3.900
 2468SOL     OW19031   1.035   3.732  17.395
 2468SOL    HW119032   1.102   3.665  17.383
 2468SOL    HW219033   1.042   3.788  17.318
 2469SOL     OW19034   1.829   3.339  26.779
 2469SOL    HW119035   1.785   3.272  26.832
 2469SOL    HW219036   1.763   3.408  26.768
 2470SOL     OW19037   1.917   0.027   2.669
 2470SOL    HW119038   1.866   0.077   2.733
 2470SOL    HW219039   2.008   0.052   2.685
 2471SOL     OW19040   2.378   4.526  25.680
 2471SOL    HW119041   2.305   4.587  25.690
 2471SOL    HW219042   2.455   4.584  25.670
 2472SOL     OW19043   1.280   4.653   8.576
 2472SOL    HW119044   1.325   4.569   8.568
 2472SOL    HW219045   1.348   4.718   8.562
 2473SOL     OW19046   2.754   1.345   9.965
 2473SOL    HW119047   2.696   1.420   9.975
 2473SOL    HW219048   2.696   1.269   9.978
 2474SOL     OW19049   1.664   2.501   2.296
 2474SOL    HW119050   1.590   2.441   2.287
 2474SOL    HW219051   1.729   2.468   2.235
 2475SOL     OW19052   3.355   3.285  27.945
 2475SOL    HW119053   3.405   3.207  27.919
 2475SOL    HW219054   3.306   3.256  28.023
 2476SOL     OW19055   4.657   2.597  25.312
 2476SOL    HW119056   4.661   2.637  25.399
 2476SOL    HW219057   4.611   2.513  25.326
 2477SOL     OW19058   1.153   2.228  21.074
 2477SOL    HW119059   1.235   2.193  21.039
 2477SOL    HW219060   1.126   2.294  21.010
 2478SOL     OW19061   4.664   0.705  22.876
 2478SOL    HW119062   4.658   0.621  22.922
 2478SOL    HW219063   4.574   0.738  22.875
 2479SOL     OW19064   2.177   3.117   7.615
 2479SOL    HW119065   2.114   3.057   7.575
 2479SOL    HW219066   2.124   3.191   7.645
 2480SOL     OW19067   0.218   0.953   0.592
 2480SOL    HW119068   0.213   0.858   0.603
 2480SOL    HW219069   0.306   0.976   0.623
 2481SOL     OW19070   4.186   4.603   1.829
 2481SOL    HW119071   4.227   4.518   1.849
 2481SOL    HW219072   4.260   4.663   1.820
 2482SOL     OW19073   3.555   3.898  24.788
 2482SOL    HW119074   3.475   3.882  24.838
 2482SOL    HW219075   3.619   3.927  24.853
 2483SOL     OW19076   3.076   1.268  25.053
 2483SOL    HW119077   3.013   1.221  25.107
 2483SOL    HW219078   3.125   1.199  25.008
 2484SOL     OW19079   3.828   4.658   0.572
 2484SOL    HW119080   3.885   4.727   0.604
 2484SOL    HW219081   3.845   4.583   0.629
 2485SOL     OW19082   1.552   0.553  19.259
 2485SOL    HW119083   1.470   0.600  19.246
 2485SOL    HW219084   1.528   0.461  19.257
 2486SOL     OW19085   0.475   1.753  22.741
 2486SOL    HW119086   0.497   1.681  22.800
 2486SOL    HW219087   0.466   1.712  22.655
 2487SOL     OW19088   1.786   2.105  21.011
 2487SOL    HW119089   1.740   2.174  20.964
 2487SOL    HW219090   1.868   2.092  20.963
 2488SOL     OW19091   3.219   1.813  21.527
 2488SOL    HW119092   3.126   1.807  21.507
 2488SOL    HW219093   3.237   1.737  21.582
 2489SOL     OW19094   4.611   1.093   1.322
 2489SOL    HW119095   4.687   1.071   1.269
 2489SOL    HW219096   4.550   1.136   1.261
 2490SOL     OW19097   2.969   3.334  24.008
 2490SOL    HW119098   2.923   3.392  24.070
 2490SOL    HW219099   2.917   3.338  23.928
 2491SOL     OW19100   4.449   0.988   8.401
 2491SOL    HW119101   4.392   1.058   8.432
 2491SOL    HW219102   4.512   1.032   8.343
 2492SOL     OW19103   0.638   0.323  21.880
 2492SOL    HW119104   0.700   0.343  21.811
 2492SOL    HW219105   0.692   0.306  21.957
 2493SOL     OW19106   1.649   1.380   7.172
 2493SOL    HW119107   1.685   1.363   7.085
 2493SOL    HW219108   1.645   1.294   7.213
 2494SOL     OW19109   3.150   1.747  22.520
 2494SOL    HW119110   3.069   1.696  22.512
 2494SOL    HW219111   3.219   1.681  22.525
 2495SOL     OW19112   0.300   3.897  22.497
 2495SOL    HW119113   0.367   3.964  22.483
 2495SOL    HW219114   0.330   3.822  22.445
 2496SOL     OW19115   2.411   1.765  24.328
 2496SOL    HW119116   2.317   1.782  24.317
 2496SOL    HW219117   2.452   1.848  24.304
 2497SOL     OW19118   0.160   0.518  22.566
 2497SOL    HW119119   0.086   0.579  22.572
 2497SOL    HW219120   0.126   0.446  22.513
 2498SOL     OW19121   3.990   1.118   1.860
 2498SOL    HW119122   3.936   1.152   1.789
 2498SOL    HW219123   3.933   1.060   1.910
 2499SOL     OW19124   1.417   4.562   4.471
 2499SOL    HW119125   1.448   4.478   4.440
 2499SOL    HW219126   1.324   4.548   4.490
 2500SOL     OW19127   0.290   1.106  27.005
 2500SOL    HW119128   0.329   1.102  26.918
 2500SOL    HW219129   0.363   1.090  27.065
 2501SOL     OW19130   2.948   0.408  28.193
 2501SOL    HW119131   2.854   0.394  28.195
 2501SOL    HW219132   2.963   0.462  28.115
 2502SOL     OW19133   0.238   2.277  24.185
 2502SOL    HW119134   0.295   2.218  24.136
 2502SOL    HW219135   0.176   2.310  24.120
 2503SOL     OW19136   3.368   2.312  26.147
 2503SOL    HW119137   3.283   2.311  26.103
 2503SOL    HW219138   3.380   2.403  26.173
 2504SOL     OW19139   2.037   0.204  27.794
 2504SOL    HW119140   2.076   0.144  27.858
 2504SOL    HW219141   2.066   0.170  27.709
 2505SOL     OW19142   0.026   3.200   3.484
 2505SOL    HW119143   0.008   3.137   3.554
 2505SOL    HW219144   0.117   3.183   3.460
 2506SOL     OW19145   0.929   1.263   1.599
 2506SOL    HW119146   0.837   1.263   1.570
 2506SOL    HW219147   0.928   1.311   1.682
 2507SOL     OW19148   2.827   2.065  27.453
 2507SOL    HW119149   2.839   2.145  27.403
 2507SOL    HW219150   2.901   2.062  27.513
 2508SOL     OW19151   1.738   3.525  24.736
 2508SOL    HW119152   1.810   3.554  24.792
 2508SOL    HW219153   1.667   3.587  24.753
 2509SOL     OW19154   1.165   1.653  15.167
 2509SOL    HW119155   1.082   1.700  15.154
 2509SOL    HW219156   1.232   1.721  15.162
 2510SOL     OW19157   1.863   4.114   3.192
 2510SOL    HW119158   1.799   4.146   3.129
 2510SOL    HW219159   1.948   4.133   3.152
 2511SOL     OW19160   0.859   1.469  27.520
 2511SOL    HW119161   0.929   1.527  27.491
 2511SOL    HW219162   0.844   1.493  27.612
 2512SOL     OW19163   1.154   0.413   7.702
 2512SOL    HW119164   1.067   0.424   7.740
 2512SOL    HW219165   1.138   0.413   7.607
 2513SOL     OW19166   2.851   0.657   6.928
 2513SOL    HW119167   2.830   0.749   6.937
 2513SOL    HW219168   2.926   0.643   6.987
 2514SOL     OW19169   2.281   3.385   4.998
 2514SOL    HW119170   2.366   3.366   5.038
 2514SOL    HW219171   2.281   3.479   4.985
 2515SOL     OW19172   0.796   0.909  27.913
 2515SOL    HW119173   0.843   0.991  27.929
 2515SOL    HW219174   0.704   0.935  27.907
 2516SOL     OW19175   3.328   2.475   3.594
 2516SOL    HW119176   3.242   2.517   3.591
 2516SOL    HW219177   3.381   2.521   3.529
 2517SOL     OW19178   0.288   0.102  11.309
 2517SOL    HW119179   0.378   0.126  11.330
 2517SOL    HW219180   0.240   0.115  11.392
 2518SOL     OW19181   4.002   0.949   1.311
 2518SOL    HW119182   4.068   1.008   1.276
 2518SOL    HW219183   3.924   1.004   1.323
 2519SOL     OW19184   1.210   2.581   3.531
 2519SOL    HW119185   1.305   2.575   3.516
 2519SOL    HW219186   1.200   2.575   3.626
 2520SOL     OW19187   3.546   0.191   8.215
 2520SOL    HW119188   3.604   0.209   8.289
 2520SOL    HW219189   3.458   0.198   8.252
 2521SOL     OW19190   3.107   0.243  24.173
 2521SOL    HW119191   3.114   0.167  24.231
 2521SOL    HW219192   3.150   0.314  24.222
 2522SOL     OW19193   0.381   1.819   6.495
 2522SOL    HW119194   0.355   1.905   6.528
 2522SOL    HW219195   0.330   1.807   6.416
 2523SOL     OW19196   3.805   1.322  27.274
 2523SOL    HW119197   3.765   1.237  27.295
 2523SOL    HW219198   3.894   1.300  27.245
 2524SOL     OW19199   3.864   2.604  21.099
 2524SOL    HW119200   3.842   2.532  21.158
 2524SOL    HW219201   3.881   2.562  21.015
 2525SOL     OW19202   2.941   1.248   2.215
 2525SOL    HW119203   2.900   1.227   2.131
 2525SOL    HW219204   2.867   1.266   2.273
 2526SOL     OW19205   1.502   2.841  19.297
 2526SOL    HW119206   1.583   2.867  19.341
 2526SOL    HW219207   1.435   2.895  19.338
 2527SOL     OW19208   3.530   1.820  17.981
 2527SOL    HW119209   3.605   1.773  17.946
 2527SOL    HW219210   3.476   1.840  17.905
 2528SOL     OW19211   0.191   2.508   5.844
 2528SOL    HW119212   0.232   2.542   5.764
 2528SOL    HW219213   0.222   2.566   5.913
 2529SOL     OW19214   4.238   0.549  23.397
 2529SOL    HW119215   4.251   0.597  23.314
 2529SOL    HW219216   4.326   0.546  23.436
 2530SOL     OW19217   2.849   3.941  20.053
 2530SOL    HW119218   2.872   3.953  20.145
 2530SOL    HW219219   2.754   3.946  20.051
 2531SOL     OW19220   1.112   1.911  24.534
 2531SOL    HW119221   1.103   1.845  24.602
 2531SOL    HW219222   1.173   1.975  24.571
 2532SOL     OW19223   1.916   0.980  20.855
 2532SOL    HW119224   1.859   1.009  20.784
 2532SOL    HW219225   1.970   1.056  20.875
 2533SOL     OW19226   4.169   2.860  26.111
 2533SOL    HW119227   4.093   2.803  26.114
 2533SOL    HW219228   4.192   2.865  26.018
 2534SOL     OW19229   0.411   3.117   5.998
 2534SOL    HW119230   0.472   3.190   6.008
 2534SOL    HW219231   0.443   3.069   5.922
 2535SOL     OW19232   2.210   3.203  23.048
 2535SOL    HW119233   2.166   3.263  23.108
 2535SOL    HW219234   2.298   3.240  23.037
 2536SOL     OW19235   0.778   3.122  26.018
 2536SOL    HW119236   0.785   3.030  25.996
 2536SOL    HW219237   0.851   3.164  25.972
 2537SOL     OW19238   2.458   1.400  27.814
 2537SOL    HW119239   2.379   1.349  27.794
 2537SOL    HW219240   2.431   1.491  27.804
 2538SOL     OW19241   4.202   3.813  27.392
 2538SOL    HW119242   4.207   3.762  27.311
 2538SOL    HW219243   4.283   3.865  27.392
 2539SOL     OW19244   4.766   1.706   4.572
 2539SOL    HW119245   4.765   1.797   4.601
 2539SOL    HW219246   4.767   1.654   4.652
 2540SOL     OW19247   2.917   3.672  22.192
 2540SOL    HW119248   2.833   3.716  22.181
 2540SOL    HW219249   2.955   3.672  22.104
 2541SOL     OW19250   3.901   1.602   1.430
 2541SOL    HW119251   3.939   1.563   1.352
 2541SOL    HW219252   3.818   1.640   1.399
 2542SOL     OW19253   0.887   0.323   6.711
 2542SOL    HW119254   0.839   0.296   6.632
 2542SOL    HW219255   0.979   0.310   6.688
 2543SOL     OW19256   1.656   4.270  17.083
 2543SOL    HW119257   1.704   4.240  17.160
 2543SOL    HW219258   1.724   4.288  17.018
 2544SOL     OW19259   4.334   1.354   1.569
 2544SOL    HW119260   4.270   1.416   1.603
 2544SOL    HW219261   4.292   1.314   1.493
 2545SOL     OW19262   3.527   4.691  25.622
 2545SOL    HW119263   3.448   4.638  25.609
 2545SOL    HW219264   3.563   4.702  25.534
 2546SOL     OW19265   1.934   0.214  19.946
 2546SOL    HW119266   1.961   0.210  19.855
 2546SOL    HW219267   1.989   0.150  19.991
 2547SOL     OW19268   3.191   1.988   1.425
 2547SOL    HW119269   3.121   2.046   1.456
 2547SOL    HW219270   3.158   1.900   1.442
 2548SOL     OW19271   4.059   2.897  19.857
 2548SOL    HW119272   4.126   2.829  19.861
 2548SOL    HW219273   4.108   2.977  19.837
 2549SOL     OW19274   0.882   3.484  24.894
 2549SOL    HW119275   0.808   3.441  24.936
 2549SOL    HW219276   0.942   3.413  24.873
 2550SOL     OW19277   0.567   2.087  15.110
 2550SOL    HW119278   0.633   2.148  15.079
 2550SOL    HW219279   0.526   2.053  15.031
 2551SOL     OW19280   4.336   4.516  23.606
 2551SOL    HW119281   4.430   4.499  23.603
 2551SOL    HW219282   4.328   4.610  23.621
 2552SOL     OW19283   3.606   1.027  10.483
 2552SOL    HW119284   3.577   1.073  10.562
 2552SOL    HW219285   3.680   0.973  10.513
 2553SOL     OW19286   4.410   2.909  16.850
 2553SOL    HW119287   4.401   2.854  16.772
 2553SOL    HW219288   4.416   2.847  16.923
 2554SOL     OW19289   2.831   4.755  19.388
 2554SOL    HW119290   2.765   4.743  19.456
 2554SOL    HW219291   2.830   0.066  19.370
 2555SOL     OW19292   2.479   3.449  20.219
 2555SOL    HW119293   2.478   3.406  20.133
 2555SOL    HW219294   2.421   3.395  20.273
 2556SOL     OW19295   2.051   3.230   3.367
 2556SOL    HW119296   2.019   3.142   3.349
 2556SOL    HW219297   2.017   3.251   3.454
 2557SOL     OW19298   3.749   0.202  22.700
 2557SOL    HW119299   3.808   0.183  22.772
 2557SOL    HW219300   3.712   0.117  22.676
 2558SOL     OW19301   1.928   0.541   9.520
 2558SOL    HW119302   1.977   0.460   9.526
 2558SOL    HW219303   1.926   0.576   9.609
 2559SOL     OW19304   0.181   3.847   2.685
 2559SOL    HW119305   0.132   3.869   2.764
 2559SOL    HW219306   0.233   3.771   2.709
 2560SOL     OW19307   0.995   3.898  22.667
 2560SOL    HW119308   0.936   3.834  22.706
 2560SOL    HW219309   1.067   3.906  22.730
 2561SOL     OW19310   1.563   0.683   7.094
 2561SOL    HW119311   1.522   0.764   7.123
 2561SOL    HW219312   1.553   0.623   7.168
 2562SOL     OW19313   1.769   2.593  24.960
 2562SOL    HW119314   1.846   2.535  24.954
 2562SOL    HW219315   1.695   2.537  24.937
 2563SOL     OW19316   2.509   2.576  21.078
 2563SOL    HW119317   2.498   2.590  20.984
 2563SOL    HW219318   2.508   2.664  21.116
 2564SOL     OW19319   0.233   1.915  23.314
 2564SOL    HW119320   0.240   1.978  23.386
 2564SOL    HW219321   0.274   1.959  23.240
 2565SOL     OW19322   1.456   1.352   6.576
 2565SOL    HW119323   1.391   1.347   6.505
 2565SOL    HW219324   1.405   1.380   6.652
 2566SOL     OW19325   3.517   2.166  19.988
 2566SOL    HW119326   3.502   2.128  20.075
 2566SOL    HW219327   3.431   2.162  19.945
 2567SOL     OW19328   0.497   4.141   9.197
 2567SOL    HW119329   0.410   4.171   9.173
 2567SOL    HW219330   0.483   4.058   9.242
 2568SOL     OW19331   3.111   3.981  24.307
 2568SOL    HW119332   3.071   4.020  24.385
 2568SOL    HW219333   3.170   3.915  24.342
 2569SOL     OW19334   1.242   1.986  28.462
 2569SOL    HW119335   1.239   2.063  28.405
 2569SOL    HW219336   1.151   1.959  28.470
 2570SOL     OW19337   3.156   2.451   1.496
 2570SOL    HW119338   3.236   2.422   1.538
 2570SOL    HW219339   3.107   2.371   1.478
 2571SOL     OW19340   1.753   3.019  25.137
 2571SOL    HW119341   1.721   3.066  25.060
 2571SOL    HW219342   1.785   2.935  25.103
 2572SOL     OW19343   4.197   1.255  17.653
 2572SOL    HW119344   4.264   1.252  17.721
 2572SOL    HW219345   4.227   1.323  17.592
 2573SOL     OW19346   1.552   3.035  27.846
 2573SOL    HW119347   1.600   3.105  27.801
 2573SOL    HW219348   1.576   2.955  27.799
 2574SOL     OW19349   3.107   4.433  20.324
 2574SOL    HW119350   3.138   4.500  20.263
 2574SOL    HW219351   3.092   4.356  20.270
 2575SOL     OW19352   2.559   0.178   4.402
 2575SOL    HW119353   2.650   0.154   4.383
 2575SOL    HW219354   2.520   0.098   4.437
 2576SOL     OW19355   2.067   2.463   2.319
 2576SOL    HW119356   2.103   2.390   2.268
 2576SOL    HW219357   1.998   2.499   2.263
 2577SOL     OW19358   2.219   3.264  26.635
 2577SOL    HW119359   2.214   3.176  26.598
 2577SOL    HW219360   2.147   3.312  26.594
 2578SOL     OW19361   2.964   0.497  10.635
 2578SOL    HW119362   2.889   0.554  10.619
 2578SOL    HW219363   2.990   0.466  10.548
 2579SOL     OW19364   0.525   1.327  26.686
 2579SOL    HW119365   0.522   1.421  26.669
 2579SOL    HW219366   0.598   1.295  26.634
 2580SOL     OW19367   2.152   4.075  24.772
 2580SOL    HW119368   2.101   4.111  24.845
 2580SOL    HW219369   2.226   4.031  24.814
 2581SOL     OW19370   4.056   1.995   1.541
 2581SOL    HW119371   4.024   2.082   1.566
 2581SOL    HW219372   4.013   1.935   1.603
 2582SOL     OW19373   3.011   4.471   2.101
 2582SOL    HW119374   2.928   4.482   2.055
 2582SOL    HW219375   3.077   4.505   2.040
 2583SOL     OW19376   2.567   3.215   6.592
 2583SOL    HW119377   2.654   3.209   6.554
 2583SOL    HW219378   2.521   3.279   6.537
 2584SOL     OW19379   1.732   1.134   7.260
 2584SOL    HW119380   1.733   1.070   7.189
 2584SOL    HW219381   1.820   1.173   7.258
 2585SOL     OW19382   2.451   4.102   8.134
 2585SOL    HW119383   2.398   4.159   8.190
 2585SOL    HW219384   2.513   4.060   8.195
 2586SOL     OW19385   0.453   3.861  21.380
 2586SOL    HW119386   0.501   3.883  21.300
 2586SOL    HW219387   0.362   3.854  21.352
 2587SOL     OW19388   1.617   2.336   6.281
 2587SOL    HW119389   1.637   2.300   6.367
 2587SOL    HW219390   1.523   2.321   6.270
 2588SOL     OW19391   4.396   0.346  11.123
 2588SOL    HW119392   4.475   0.349  11.068
 2588SOL    HW219393   4.425   0.379  11.207
 2589SOL     OW19394   0.334   1.879  25.849
 2589SOL    HW119395   0.359   1.944  25.914
 2589SOL    HW219396   0.396   1.807  25.862
 2590SOL     OW19397   3.632   1.466  18.581
 2590SOL    HW119398   3.652   1.556  18.557
 2590SOL    HW219399   3.539   1.454  18.559
 2591SOL     OW19400   1.583   0.714  28.520
 2591SOL    HW119401   1.495   0.685   0.014
 2591SOL    HW219402   1.610   0.651  28.453
 2592SOL     OW19403   2.228   3.996   7.506
 2592SOL    HW119404   2.135   3.986   7.527
 2592SOL    HW219405   2.261   3.906   7.504
 2593SOL     OW19406   3.090   2.348  25.849
 2593SOL    HW119407   3.186   2.355  25.842
 2593SOL    HW219408   3.073   2.351  25.943
 2594SOL     OW19409   4.129   0.895  21.596
 2594SOL    HW119410   4.045   0.941  21.591
 2594SOL    HW219411   4.178   0.926  21.520
 2595SOL     OW19412   2.360   0.234  21.744
 2595SOL    HW119413   2.438   0.280  21.713
 2595SOL    HW219414   2.303   0.303  21.778
 2596SOL     OW19415   0.219   1.861  27.163
 2596SOL    HW119416   0.310   1.892  27.160
 2596SOL    HW219417   0.212   1.815  27.246
 2597SOL     OW19418   2.534   0.576  20.333
 2597SOL    HW119419   2.443   0.562  20.307
 2597SOL    HW219420   2.533   0.658  20.383
 2598SOL     OW19421   3.689   1.702   3.677
 2598SOL    HW119422   3.747   1.741   3.612
 2598SOL    HW219423   3.741   1.630   3.715
 2599SOL     OW19424   0.127   2.665  28.469
 2599SOL    HW119425   0.195   2.724  28.437
 2599SOL    HW219426   0.064   2.722  28.513
 2600SOL     OW19427   0.389   0.655  24.104
 2600SOL    HW119428   0.397   0.701  24.188
 2600SOL    HW219429   0.397   0.563  24.127
 2601SOL     OW19430   3.976   0.434   1.977
 2601SOL    HW119431   3.937   0.408   1.894
 2601SOL    HW219432   4.052   0.376   1.987
 2602SOL     OW19433   1.008   1.944   1.111
 2602SOL    HW119434   1.039   1.891   1.185
 2602SOL    HW219435   0.990   2.030   1.150
 2603SOL     OW19436   4.513   0.166  26.558
 2603SOL    HW119437   4.458   0.244  26.558
 2603SOL    HW219438   4.593   0.194  26.603
 2604SOL     OW19439   2.677   0.920  10.445
 2604SOL    HW119440   2.717   0.982  10.507
 2604SOL    HW219441   2.617   0.868  10.499
 2605SOL     OW19442   3.487   2.211   4.411
 2605SOL    HW119443   3.564   2.180   4.457
 2605SOL    HW219444   3.448   2.132   4.373
 2606SOL     OW19445   4.242   4.088  16.249
 2606SOL    HW119446   4.151   4.116  16.244
 2606SOL    HW219447   4.282   4.148  16.313
 2607SOL     OW19448   0.838   0.934  18.672
 2607SOL    HW119449   0.878   0.935  18.585
 2607SOL    HW219450   0.748   0.906  18.656
 2608SOL     OW19451   1.142   4.185  23.989
 2608SOL    HW119452   1.192   4.266  24.003
 2608SOL    HW219453   1.054   4.215  23.964
 2609SOL     OW19454   2.171   1.348  19.088
 2609SOL    HW119455   2.142   1.328  19.177
 2609SOL    HW219456   2.090   1.356  19.037
 2610SOL     OW19457   1.534   0.012   2.337
 2610SOL    HW119458   1.599   4.725   2.321
 2610SOL    HW219459   1.450   4.750   2.326
 2611SOL     OW19460   1.734   3.987   2.052
 2611SOL    HW119461   1.726   3.894   2.033
 2611SOL    HW219462   1.646   4.013   2.082
 2612SOL     OW19463   3.897   4.389   6.674
 2612SOL    HW119464   3.933   4.478   6.679
 2612SOL    HW219465   3.936   4.344   6.749
 2613SOL     OW19466   1.200   0.068   3.268
 2613SOL    HW119467   1.292   0.068   3.294
 2613SOL    HW219468   1.183   0.157   3.239
 2614SOL     OW19469   0.617   1.938   5.772
 2614SOL    HW119470   0.626   1.881   5.696
 2614SOL    HW219471   0.558   1.891   5.831
 2615SOL     OW19472   1.523   1.237   0.044
 2615SOL    HW119473   1.502   1.149   0.014
 2615SOL    HW219474   1.581   1.272  28.508
 2616SOL     OW19475   4.102   1.490  25.981
 2616SOL    HW119476   4.101   1.586  25.982
 2616SOL    HW219477   4.013   1.464  26.003
 2617SOL     OW19478   2.742   0.670  17.795
 2617SOL    HW119479   2.750   0.754  17.750
 2617SOL    HW219480   2.688   0.690  17.872
 2618SOL     OW19481   0.317   1.934  25.420
 2618SOL    HW119482   0.324   1.965  25.330
 2618SOL    HW219483   0.288   2.010  25.470
 2619SOL     OW19484   0.295   4.697  24.037
 2619SOL    HW119485   0.262   0.004  24.026
 2619SOL    HW219486   0.370   4.706  24.095
 2620SOL     OW19487   4.608   3.989   8.376
 2620SOL    HW119488   4.666   3.935   8.430
 2620SOL    HW219489   4.626   3.961   8.286
 2621SOL     OW19490   2.348   2.636  22.752
 2621SOL    HW119491   2.307   2.673  22.830
 2621SOL    HW219492   2.282   2.645  22.684
 2622SOL     OW19493   1.642   3.039  19.704
 2622SOL    HW119494   1.733   3.055  19.729
 2622SOL    HW219495   1.641   2.948  19.674
 2623SOL     OW19496   4.329   2.299   3.217
 2623SOL    HW119497   4.312   2.279   3.308
 2623SOL    HW219498   4.247   2.339   3.186
 2624SOL     OW19499   2.151   2.701  22.958
 2624SOL    HW119500   2.199   2.704  23.040
 2624SOL    HW219501   2.102   2.783  22.956
 2625SOL     OW19502   3.302   3.786   5.946
 2625SOL    HW119503   3.269   3.739   6.023
 2625SOL    HW219504   3.393   3.806   5.968
 2626SOL     OW19505   1.660   0.315   8.442
 2626SOL    HW119506   1.693   0.376   8.376
 2626SOL    HW219507   1.567   0.333   8.448
 2627SOL     OW19508   0.814   3.722  20.395
 2627SOL    HW119509   0.754   3.729  20.321
 2627SOL    HW219510   0.874   3.795  20.385
 2628SOL     OW19511   3.633   4.296  25.051
 2628SOL    HW119512   3.729   4.301  25.051
 2628SOL    HW219513   3.606   4.348  24.975
 2629SOL     OW19514   1.201   3.663   6.691
 2629SOL    HW119515   1.162   3.700   6.770
 2629SOL    HW219516   1.144   3.590   6.667
 2630SOL     OW19517   2.137   4.473  25.115
 2630SOL    HW119518   2.189   4.439  25.042
 2630SOL    HW219519   2.051   4.489  25.078
 2631SOL     OW19520   0.672   2.630  26.278
 2631SOL    HW119521   0.658   2.575  26.201
 2631SOL    HW219522   0.723   2.705  26.246
 2632SOL     OW19523   0.984   1.612   0.140
 2632SOL    HW119524   0.899   1.627   0.097
 2632SOL    HW219525   0.996   1.517   0.134
 2633SOL     OW19526   3.283   0.145  23.098
 2633SOL    HW119527   3.204   0.182  23.137
 2633SOL    HW219528   3.258   0.057  23.069
 2634SOL     OW19529   1.009   4.078   1.757
 2634SOL    HW119530   0.964   3.998   1.731
 2634SOL    HW219531   0.940   4.142   1.771
 2635SOL     OW19532   3.902   2.471  20.870
 2635SOL    HW119533   3.848   2.444  20.795
 2635SOL    HW219534   3.987   2.432  20.853
 2636SOL     OW19535   0.981   2.267   0.512
 2636SOL    HW119536   1.063   2.314   0.497
 2636SOL    HW219537   0.937   2.316   0.581
 2637SOL     OW19538   0.246   1.749   7.186
 2637SOL    HW119539   0.284   1.705   7.110
 2637SOL    HW219540   0.187   1.685   7.225
 2638SOL     OW19541   2.898   0.001  24.006
 2638SOL    HW119542   2.847   0.060  24.061
 2638SOL    HW219543   2.890   0.037  23.918
 2639SOL     OW19544   1.370   3.449  24.074
 2639SOL    HW119545   1.279   3.427  24.053
 2639SOL    HW219546   1.364   3.506  24.150
 2640SOL     OW19547   2.277   2.263  18.430
 2640SOL    HW119548   2.284   2.326  18.502
 2640SOL    HW219549   2.197   2.288  18.384
 2641SOL     OW19550   4.221   4.635   6.197
 2641SOL    HW119551   4.204   4.585   6.117
 2641SOL    HW219552   4.157   4.601   6.260
 2642SOL     OW19553   0.208   3.679   7.449
 2642SOL    HW119554   0.220   3.757   7.395
 2642SOL    HW219555   0.291   3.631   7.440
 2643SOL     OW19556   1.136   0.861  26.769
 2643SOL    HW119557   1.105   0.807  26.842
 2643SOL    HW219558   1.066   0.856  26.704
 2644SOL     OW19559   1.578   3.138   6.551
 2644SOL    HW119560   1.500   3.168   6.503
 2644SOL    HW219561   1.552   3.054   6.589
 2645SOL     OW19562   4.402   2.219  22.581
 2645SOL    HW119563   4.431   2.188  22.666
 2645SOL    HW219564   4.466   2.183  22.519
 2646SOL     OW19565   1.553   2.183   1.708
 2646SOL    HW119566   1.632   2.130   1.699
 2646SOL    HW219567   1.578   2.269   1.676
 2647SOL     OW19568   3.893   4.385  18.264
 2647SOL    HW119569   3.852   4.305  18.232
 2647SOL    HW219570   3.982   4.383  18.230
 2648SOL     OW19571   1.942   0.135  22.132
 2648SOL    HW119572   1.962   0.046  22.105
 2648SOL    HW219573   1.889   0.125  22.212
 2649SOL     OW19574   1.649   3.306   8.477
 2649SOL    HW119575   1.694   3.336   8.398
 2649SOL    HW219576   1.717   3.260   8.527
 2650SOL     OW19577   2.609   1.671   8.286
 2650SOL    HW119578   2.639   1.590   8.327
 2650SOL    HW219579   2.636   1.663   8.194
 2651SOL     OW19580   2.487   4.534   5.362
 2651SOL    HW119581   2.513   4.449   5.399
 2651SOL    HW219582   2.421   4.567   5.423
 2652SOL     OW19583   1.231   2.500  20.594
 2652SOL    HW119584   1.305   2.498  20.534
 2652SOL    HW219585   1.204   2.592  20.595
 2653SOL     OW19586   1.489   3.850   4.080
 2653SOL    HW119587   1.551   3.881   4.146
 2653SOL    HW219588   1.460   3.930   4.036
 2654SOL     OW19589   0.681   2.207  25.604
 2654SOL    HW119590   0.699   2.131  25.550
 2654SOL    HW219591   0.756   2.212  25.664
 2655SOL     OW19592   4.108   4.138  20.386
 2655SOL    HW119593   4.054   4.073  20.341
 2655SOL    HW219594   4.066   4.222  20.368
 2656SOL     OW19595   1.333   3.027  27.995
 2656SOL    HW119596   1.305   2.937  27.978
 2656SOL    HW219597   1.420   3.033  27.954
 2657SOL     OW19598   1.776   2.452   3.682
 2657SOL    HW119599   1.721   2.374   3.688
 2657SOL    HW219600   1.727   2.520   3.726
 2658SOL     OW19601   3.571   3.168  28.305
 2658SOL    HW119602   3.599   3.252  28.269
 2658SOL    HW219603   3.551   3.115  28.228
 2659SOL     OW19604   1.075   3.256  27.191
 2659SOL    HW119605   1.089   3.227  27.102
 2659SOL    HW219606   0.994   3.213  27.218
 2660SOL     OW19607   0.330   3.545  22.694
 2660SOL    HW119608   0.348   3.452  22.681
 2660SOL    HW219609   0.317   3.580  22.605
 2661SOL     OW19610   0.797   0.224  10.643
 2661SOL    HW119611   0.814   0.172  10.722
 2661SOL    HW219612   0.704   0.212  10.626
 2662SOL     OW19613   1.206   3.100  20.378
 2662SOL    HW119614   1.127   3.147  20.351
 2662SOL    HW219615   1.274   3.168  20.384
 2663SOL     OW19616   1.130   3.604  25.140
 2663SOL    HW119617   1.147   3.568  25.227
 2663SOL    HW219618   1.035   3.599  25.131
 2664SOL     OW19619   4.542   0.045  22.868
 2664SOL    HW119620   4.635   0.065  22.872
 2664SOL    HW219621   4.499   0.131  22.865
 2665SOL     OW19622   1.653   4.147  21.827
 2665SOL    HW119623   1.664   4.052  21.829
 2665SOL    HW219624   1.644   4.171  21.920
 2666SOL     OW19625   3.764   1.636  24.110
 2666SOL    HW119626   3.826   1.590  24.053
 2666SOL    HW219627   3.808   1.718  24.132
 2667SOL     OW19628   3.702   1.449  27.777
 2667SOL    HW119629   3.657   1.376  27.820
 2667SOL    HW219630   3.632   1.498  27.734
 2668SOL     OW19631   0.386   2.481  25.324
 2668SOL    HW119632   0.471   2.459  25.286
 2668SOL    HW219633   0.365   2.567  25.287
 2669SOL     OW19634   3.516   4.447  18.730
 2669SOL    HW119635   3.545   4.356  18.724
 2669SOL    HW219636   3.550   4.489  18.651
 2670SOL     OW19637   2.001   1.992   7.618
 2670SOL    HW119638   2.089   2.018   7.589
 2670SOL    HW219639   1.984   2.047   7.694
 2671SOL     OW19640   0.003   1.643  12.291
 2671SOL    HW119641   0.071   1.577  12.279
 2671SOL    HW219642   4.770   1.646  12.385
 2672SOL     OW19643   4.739   2.712  23.711
 2672SOL    HW119644   0.029   2.717  23.772
 2672SOL    HW219645   4.767   2.764  23.635
 2673SOL     OW19646   3.283   2.545  18.265
 2673SOL    HW119647   3.235   2.607  18.210
 2673SOL    HW219648   3.371   2.542  18.227
 2674SOL     OW19649   4.665   1.450  23.305
 2674SOL    HW119650   4.689   1.542  23.313
 2674SOL    HW219651   4.720   1.417  23.233
 2675SOL     OW19652   4.485   0.039   8.194
 2675SOL    HW119653   4.428   4.766   8.141
 2675SOL    HW219654   4.444   0.125   8.192
 2676SOL     OW19655   3.688   1.515  10.787
 2676SOL    HW119656   3.739   1.593  10.807
 2676SOL    HW219657   3.638   1.498  10.867
 2677SOL     OW19658   2.131   2.709   0.661
 2677SOL    HW119659   2.098   2.797   0.679
 2677SOL    HW219660   2.061   2.650   0.690
 2678SOL     OW19661   2.199   0.827   9.359
 2678SOL    HW119662   2.256   0.757   9.327
 2678SOL    HW219663   2.111   0.792   9.351
 2679SOL     OW19664   0.879   4.433  28.115
 2679SOL    HW119665   0.941   4.445  28.043
 2679SOL    HW219666   0.841   4.347  28.099
 2680SOL     OW19667   0.410   4.733   7.364
 2680SOL    HW119668   0.410   4.684   7.282
 2680SOL    HW219669   0.324   4.774   7.368
 2681SOL     OW19670   4.521   1.828  25.866
 2681SOL    HW119671   4.562   1.901  25.820
 2681SOL    HW219672   4.558   1.830  25.954
 2682SOL     OW19673   2.315   2.619  25.539
 2682SOL    HW119674   2.342   2.528  25.550
 2682SOL    HW219675   2.365   2.649  25.463
 2683SOL     OW19676   1.407   3.071  21.857
 2683SOL    HW119677   1.469   3.097  21.789
 2683SOL    HW219678   1.446   3.102  21.938
 2684SOL     OW19679   0.872   3.378  27.702
 2684SOL    HW119680   0.788   3.418  27.679
 2684SOL    HW219681   0.936   3.448  27.687
 2685SOL     OW19682   0.169   1.806  25.628
 2685SOL    HW119683   0.210   1.816  25.714
 2685SOL    HW219684   0.241   1.815  25.565
 2686SOL     OW19685   1.570   0.237   3.708
 2686SOL    HW119686   1.611   0.247   3.794
 2686SOL    HW219687   1.543   0.326   3.685
 2687SOL     OW19688   1.297   4.055   7.622
 2687SOL    HW119689   1.204   4.075   7.638
 2687SOL    HW219690   1.342   4.091   7.698
 2688SOL     OW19691   2.433   4.172  21.759
 2688SOL    HW119692   2.386   4.096  21.723
 2688SOL    HW219693   2.418   4.168  21.853
 2689SOL     OW19694   2.076   3.832   1.058
 2689SOL    HW119695   2.140   3.817   0.989
 2689SOL    HW219696   2.127   3.840   1.138
 2690SOL     OW19697   1.063   3.582  25.747
 2690SOL    HW119698   1.053   3.594  25.653
 2690SOL    HW219699   1.015   3.655  25.786
 2691SOL     OW19700   2.328   4.330   0.028
 2691SOL    HW119701   2.417   4.366   0.038
 2691SOL    HW219702   2.272   4.395   0.071
 2692SOL     OW19703   1.721   4.299  25.626
 2692SOL    HW119704   1.665   4.365  25.666
 2692SOL    HW219705   1.734   4.328  25.536
 2693SOL     OW19706   0.957   0.204  20.785
 2693SOL    HW119707   1.032   0.219  20.727
 2693SOL    HW219708   0.992   0.215  20.873
 2694SOL     OW19709   1.804   0.533   5.607
 2694SOL    HW119710   1.897   0.552   5.598
 2694SOL    HW219711   1.770   0.533   5.518
 2695SOL     OW19712   2.427   4.170   9.338
 2695SOL    HW119713   2.401   4.216   9.258
 2695SOL    HW219714   2.504   4.119   9.311
 2696SOL     OW19715   2.464   0.675   1.014
 2696SOL    HW119716   2.470   0.594   0.964
 2696SOL    HW219717   2.460   0.646   1.105
 2697SOL     OW19718   2.826   0.718  23.239
 2697SOL    HW119719   2.899   0.694  23.183
 2697SOL    HW219720   2.862   0.783  23.300
 2698SOL     OW19721   3.649   0.447   1.308
 2698SOL    HW119722   3.698   0.406   1.379
 2698SOL    HW219723   3.592   0.511   1.351
 2699SOL     OW19724   0.616   4.297  21.829
 2699SOL    HW119725   0.571   4.381  21.820
 2699SOL    HW219726   0.703   4.321  21.862
 2700SOL     OW19727   3.877   1.638  25.780
 2700SOL    HW119728   3.816   1.620  25.709
 2700SOL    HW219729   3.837   1.598  25.857
 2701SOL     OW19730   0.498   4.052  10.010
 2701SOL    HW119731   0.484   3.958  10.004
 2701SOL    HW219732   0.592   4.062  10.025
 2702SOL     OW19733   2.868   2.570   0.730
 2702SOL    HW119734   2.911   2.616   0.802
 2702SOL    HW219735   2.776   2.596   0.736
 2703SOL     OW19736   4.027   3.733  25.866
 2703SOL    HW119737   3.967   3.727  25.791
 2703SOL    HW219738   3.973   3.710  25.941
 2704SOL     OW19739   2.851   2.369  27.396
 2704SOL    HW119740   2.773   2.401  27.353
 2704SOL    HW219741   2.923   2.393  27.338
 2705SOL     OW19742   0.672   3.040   9.556
 2705SOL    HW119743   0.763   3.059   9.534
 2705SOL    HW219744   0.676   3.001   9.643
 2706SOL     OW19745   3.359   1.729   0.889
 2706SOL    HW119746   3.278   1.689   0.858
 2706SOL    HW219747   3.416   1.656   0.911
 2707SOL     OW19748   4.292   3.115   4.257
 2707SOL    HW119749   4.249   3.169   4.324
 2707SOL    HW219750   4.340   3.177   4.203
 2708SOL     OW19751   2.105   1.662  19.132
 2708SOL    HW119752   2.150   1.707  19.205
 2708SOL    HW219753   2.169   1.598  19.102
 2709SOL     OW19754   0.669   3.278   1.359
 2709SOL    HW119755   0.584   3.235   1.356
 2709SOL    HW219756   0.661   3.352   1.299
 2710SOL     OW19757   4.411   4.503  26.771
 2710SOL    HW119758   4.439   4.411  26.775
 2710SOL    HW219759   4.321   4.499  26.740
 2711SOL     OW19760   0.546   4.450   5.696
 2711SOL    HW119761   0.464   4.440   5.744
 2711SOL    HW219762   0.575   4.540   5.716
 2712SOL     OW19763   2.864   4.644   1.170
 2712SOL    HW119764   2.801   4.714   1.187
 2712SOL    HW219765   2.820   4.588   1.107
 2713SOL     OW19766   2.890   0.888  21.612
 2713SOL    HW119767   2.843   0.949  21.669
 2713SOL    HW219768   2.849   0.803  21.628
 2714SOL     OW19769   0.425   0.709   5.270
 2714SOL    HW119770   0.402   0.643   5.336
 2714SOL    HW219771   0.396   0.792   5.308
 2715SOL     OW19772   1.867   4.573   7.857
 2715SOL    HW119773   1.795   4.616   7.812
 2715SOL    HW219774   1.911   4.643   7.905
 2716SOL     OW19775   3.785   1.104  26.822
 2716SOL    HW119776   3.714   1.163  26.799
 2716SOL    HW219777   3.812   1.066  26.738
 2717SOL     OW19778   1.653   3.442   3.480
 2717SOL    HW119779   1.641   3.533   3.506
 2717SOL    HW219780   1.574   3.421   3.429
 2718SOL     OW19781   3.627   0.192   1.141
 2718SOL    HW119782   3.628   0.284   1.166
 2718SOL    HW219783   3.623   0.193   1.045
 2719SOL     OW19784   2.645   1.068  25.855
 2719SOL    HW119785   2.613   1.010  25.923
 2719SOL    HW219786   2.591   1.048  25.779
 2720SOL     OW19787   4.606   0.263  27.900
 2720SOL    HW119788   4.566   0.182  27.931
 2720SOL    HW219789   4.570   0.331  27.957
 2721SOL     OW19790   1.745   2.631   8.937
 2721SOL    HW119791   1.706   2.671   9.015
 2721SOL    HW219792   1.839   2.651   8.945
 2722SOL     OW19793   3.882   0.331   1.146
 2722SOL    HW119794   3.836   0.249   1.125
 2722SOL    HW219795   3.866   0.387   1.070
 2723SOL     OW19796   3.432   0.250   8.932
 2723SOL    HW119797   3.424   0.232   9.026
 2723SOL    HW219798   3.343   0.270   8.904
 2724SOL     OW19799   3.279   3.332   0.400
 2724SOL    HW119800   3.189   3.347   0.428
 2724SOL    HW219801   3.325   3.413   0.421
 2725SOL     OW19802   0.739   0.276  18.994
 2725SOL    HW119803   0.828   0.256  18.968
 2725SOL    HW219804   0.684   0.239  18.925
 2726SOL     OW19805   1.865   0.209   6.391
 2726SOL    HW119806   1.803   0.148   6.352
 2726SOL    HW219807   1.901   0.257   6.316
 2727SOL     OW19808   2.314   0.659   0.088
 2727SOL    HW119809   2.225   0.632   0.113
 2727SOL    HW219810   2.305   0.751   0.065
 2728SOL     OW19811   2.576   0.199   5.488
 2728SOL    HW119812   2.620   0.283   5.480
 2728SOL    HW219813   2.498   0.218   5.542
 2729SOL     OW19814   2.017   3.597  23.444
 2729SOL    HW119815   2.082   3.627  23.381
 2729SOL    HW219816   2.022   3.502  23.441
 2730SOL     OW19817   1.071   0.842  23.538
 2730SOL    HW119818   1.035   0.783  23.473
 2730SOL    HW219819   1.162   0.855  23.511
 2731SOL     OW19820   1.486   3.741   5.585
 2731SOL    HW119821   1.519   3.804   5.521
 2731SOL    HW219822   1.556   3.677   5.594
 2732SOL     OW19823   2.930   3.862  26.640
 2732SOL    HW119824   2.841   3.866  26.605
 2732SOL    HW219825   2.918   3.839  26.732
 2733SOL     OW19826   0.289   1.300   0.847
 2733SOL    HW119827   0.371   1.254   0.864
 2733SOL    HW219828   0.222   1.250   0.895
 2734SOL     OW19829   4.346   1.542  22.942
 2734SOL    HW119830   4.276   1.478  22.936
 2734SOL    HW219831   4.326   1.606  22.873
 2735SOL     OW19832   0.574   0.881   4.622
 2735SOL    HW119833   0.490   0.876   4.575
 2735SOL    HW219834   0.618   0.799   4.601
 2736SOL     OW19835   4.384   1.938  10.763
 2736SOL    HW119836   4.406   2.012  10.706
 2736SOL    HW219837   4.457   1.934  10.826
 2737SOL     OW19838   3.972   0.807   5.572
 2737SOL    HW119839   4.024   0.833   5.649
 2737SOL    HW219840   3.941   0.890   5.536
 2738SOL     OW19841   2.419   1.895  28.361
 2738SOL    HW119842   2.384   1.984  28.353
 2738SOL    HW219843   2.430   1.882  28.455
 2739SOL     OW19844   2.940   0.718   2.648
 2739SOL    HW119845   3.003   0.764   2.592
 2739SOL    HW219846   2.873   0.688   2.587
 2740SOL     OW19847   3.896   1.626   2.386
 2740SOL    HW119848   3.902   1.576   2.305
 2740SOL    HW219849   3.984   1.663   2.397
 2741SOL     OW19850   4.132   0.683  17.905
 2741SOL    HW119851   4.126   0.762  17.851
 2741SOL    HW219852   4.226   0.673  17.921
 2742SOL     OW19853   4.684   1.336  27.902
 2742SOL    HW119854   4.742   1.403  27.865
 2742SOL    HW219855   4.739   1.258  27.909
 2743SOL     OW19856   3.018   3.116   8.440
 2743SOL    HW119857   3.029   3.135   8.533
 2743SOL    HW219858   3.058   3.031   8.428
 2744SOL     OW19859   4.010   1.850  20.000
 2744SOL    HW119860   4.040   1.939  19.985
 2744SOL    HW219861   4.009   1.810  19.913
 2745SOL     OW19862   1.354   3.571   9.140
 2745SOL    HW119863   1.400   3.489   9.122
 2745SOL    HW219864   1.337   3.569   9.234
 2746SOL     OW19865   4.062   1.596  28.099
 2746SOL    HW119866   4.057   1.649  28.178
 2746SOL    HW219867   4.141   1.544  28.109
 2747SOL     OW19868   4.285   0.135   9.711
 2747SOL    HW119869   4.341   0.162   9.638
 2747SOL    HW219870   4.347   0.109   9.780
 2748SOL     OW19871   2.859   3.408  24.514
 2748SOL    HW119872   2.813   3.404  24.597
 2748SOL    HW219873   2.795   3.441  24.452
 2749SOL     OW19874   3.490   1.612   0.374
 2749SOL    HW119875   3.547   1.541   0.346
 2749SOL    HW219876   3.467   1.589   0.464
 2750SOL     OW19877   2.206   1.955  21.307
 2750SOL    HW119878   2.252   1.991  21.382
 2750SOL    HW219879   2.259   1.980  21.231
 2751SOL     OW19880   2.468   0.674   4.133
 2751SOL    HW119881   2.409   0.658   4.207
 2751SOL    HW219882   2.532   0.737   4.166
 2752SOL     OW19883   3.400   1.793  17.516
 2752SOL    HW119884   3.402   1.876  17.467
 2752SOL    HW219885   3.456   1.734  17.466
 2753SOL     OW19886   0.124   2.490  17.549
 2753SOL    HW119887   0.063   2.564  17.548
 2753SOL    HW219888   0.206   2.526  17.516
 2754SOL     OW19889   0.027   2.971   3.669
 2754SOL    HW119890   0.000   2.880   3.657
 2754SOL    HW219891   0.094   2.968   3.737
 2755SOL     OW19892   4.662   0.822  20.807
 2755SOL    HW119893   4.741   0.873  20.789
 2755SOL    HW219894   4.625   0.862  20.886
 2756SOL     OW19895   2.321   1.494  10.274
 2756SOL    HW119896   2.376   1.442  10.333
 2756SOL    HW219897   2.291   1.567  10.329
 2757SOL     OW19898   4.122   0.563   4.025
 2757SOL    HW119899   4.142   0.581   4.117
 2757SOL    HW219900   4.043   0.508   4.028
 2758SOL     OW19901   0.481   0.721  25.195
 2758SOL    HW119902   0.546   0.763  25.138
 2758SOL    HW219903   0.464   0.786  25.264
 2759SOL     OW19904   0.770   4.176   3.470
 2759SOL    HW119905   0.754   4.085   3.444
 2759SOL    HW219906   0.813   4.169   3.556
 2760SOL     OW19907   0.148   3.615  17.571
 2760SOL    HW119908   0.229   3.661  17.549
 2760SOL    HW219909   0.172   3.522  17.569
 2761SOL     OW19910   0.168   1.095  18.224
 2761SOL    HW119911   0.123   1.178  18.237
 2761SOL    HW219912   0.157   1.076  18.131
 2762SOL     OW19913   3.849   4.294   8.833
 2762SOL    HW119914   3.859   4.205   8.799
 2762SOL    HW219915   3.939   4.322   8.852
 2763SOL     OW19916   3.823   1.756  17.832
 2763SOL    HW119917   3.882   1.791  17.764
 2763SOL    HW219918   3.747   1.725  17.783
 2764SOL     OW19919   1.057   3.306   7.413
 2764SOL    HW119920   1.113   3.382   7.396
 2764SOL    HW219921   1.116   3.241   7.452
 2765SOL     OW19922   2.129   1.364   7.940
 2765SOL    HW119923   2.180   1.402   8.012
 2765SOL    HW219924   2.044   1.408   7.944
 2766SOL     OW19925   3.861   4.428  21.549
 2766SOL    HW119926   3.804   4.493  21.590
 2766SOL    HW219927   3.827   4.420  21.460
 2767SOL     OW19928   0.927   2.132   3.596
 2767SOL    HW119929   0.959   2.209   3.550
 2767SOL    HW219930   0.838   2.120   3.564
 2768SOL     OW19931   4.620   2.628   8.489
 2768SOL    HW119932   4.568   2.615   8.569
 2768SOL    HW219933   4.555   2.634   8.419
 2769SOL     OW19934   0.221   2.303  24.789
 2769SOL    HW119935   0.187   2.214  24.781
 2769SOL    HW219936   0.167   2.343  24.858
 2770SOL     OW19937   3.355   2.726   5.138
 2770SOL    HW119938   3.387   2.636   5.145
 2770SOL    HW219939   3.325   2.747   5.227
 2771SOL     OW19940   2.492   4.664  27.610
 2771SOL    HW119941   2.438   4.740  27.587
 2771SOL    HW219942   2.497   4.667  27.705
 2772SOL     OW19943   4.338   2.616   8.414
 2772SOL    HW119944   4.284   2.566   8.475
 2772SOL    HW219945   4.280   2.685   8.382
 2773SOL     OW19946   3.110   4.690   0.604
 2773SOL    HW119947   3.191   4.642   0.622
 2773SOL    HW219948   3.130   4.742   0.526
 2774SOL     OW19949   3.377   1.251  24.262
 2774SOL    HW119950   3.328   1.180  24.303
 2774SOL    HW219951   3.435   1.283  24.331
 2775SOL     OW19952   4.162   3.223   6.251
 2775SOL    HW119953   4.146   3.315   6.273
 2775SOL    HW219954   4.101   3.204   6.179
 2776SOL     OW19955   0.771   1.503  25.463
 2776SOL    HW119956   0.746   1.593  25.485
 2776SOL    HW219957   0.790   1.506  25.369
 2777SOL     OW19958   4.332   1.554   8.246
 2777SOL    HW119959   4.351   1.480   8.188
 2777SOL    HW219960   4.395   1.546   8.317
 2778SOL     OW19961   3.153   3.668  20.944
 2778SOL    HW119962   3.100   3.710  20.877
 2778SOL    HW219963   3.243   3.678  20.914
 2779SOL     OW19964   1.953   1.043  27.132
 2779SOL    HW119965   1.932   0.981  27.201
 2779SOL    HW219966   1.887   1.029  27.065
 2780SOL     OW19967   3.877   2.524   6.781
 2780SOL    HW119968   3.863   2.576   6.702
 2780SOL    HW219969   3.887   2.588   6.851
 2781SOL     OW19970   4.159   3.634  21.915
 2781SOL    HW119971   4.159   3.626  22.011
 2781SOL    HW219972   4.147   3.728  21.899
 2782SOL     OW19973   2.727   2.358  20.567
 2782SOL    HW119974   2.823   2.360  20.561
 2782SOL    HW219975   2.708   2.412  20.644
 2783SOL     OW19976   3.759   3.634   3.797
 2783SOL    HW119977   3.823   3.586   3.745
 2783SOL    HW219978   3.727   3.703   3.738
 2784SOL     OW19979   3.502   2.096  18.490
 2784SOL    HW119980   3.526   2.187  18.467
 2784SOL    HW219981   3.407   2.093  18.478
 2785SOL     OW19982   0.593   4.641  23.154
 2785SOL    HW119983   0.602   4.672  23.244
 2785SOL    HW219984   0.680   4.649  23.117
 2786SOL     OW19985   3.810   3.975  22.367
 2786SOL    HW119986   3.799   4.060  22.409
 2786SOL    HW219987   3.899   3.977  22.331
 2787SOL     OW19988   0.166   3.189   5.637
 2787SOL    HW119989   0.230   3.248   5.678
 2787SOL    HW219990   0.131   3.138   5.710
 2788SOL     OW19991   3.136   3.816  25.930
 2788SOL    HW119992   3.071   3.824  25.860
 2788SOL    HW219993   3.214   3.861  25.897
 2789SOL     OW19994   0.319   3.454   6.224
 2789SOL    HW119995   0.331   3.412   6.139
 2789SOL    HW219996   0.341   3.385   6.287
 2790SOL     OW19997   4.277   2.887   4.716
 2790SOL    HW119998   4.182   2.900   4.710
 2790SOL    HW219999   4.290   2.794   4.694
 2791SOL     OW20000   3.878   0.002  20.781
 2791SOL    HW120001   3.821   0.079  20.785
 2791SOL    HW220002   3.957   0.029  20.827
 2792SOL     OW20003   1.525   1.477   7.410
 2792SOL    HW120004   1.593   1.435   7.357
 2792SOL    HW220005   1.570   1.501   7.491
 2793SOL     OW20006   4.702   3.173   2.002
 2793SOL    HW120007   4.708   3.089   1.956
 2793SOL    HW220008   4.637   3.222   1.952
 2794SOL     OW20009   2.560   1.318   1.913
 2794SOL    HW120010   2.612   1.242   1.887
 2794SOL    HW220011   2.570   1.379   1.840
 2795SOL     OW20012   0.571   4.724  21.048
 2795SOL    HW120013   0.602   4.642  21.008
 2795SOL    HW220014   0.482   4.704  21.076
 2796SOL     OW20015   0.032   0.170  20.884
 2796SOL    HW120016   4.750   0.222  20.835
 2796SOL    HW220017   0.070   0.112  20.819
 2797SOL     OW20018   2.363   4.545   8.061
 2797SOL    HW120019   2.436   4.604   8.080
 2797SOL    HW220020   2.324   4.581   7.982
 2798SOL     OW20021   3.981   0.415   9.532
 2798SOL    HW120022   4.070   0.445   9.548
 2798SOL    HW220023   3.957   0.366   9.611
 2799SOL     OW20024   3.707   3.248   0.120
 2799SOL    HW120025   3.672   3.166   0.085
 2799SOL    HW220026   3.707   3.235   0.215
 2800SOL     OW20027   4.140   4.479   2.484
 2800SOL    HW120028   4.053   4.449   2.459
 2800SOL    HW220029   4.135   4.574   2.482
 2801SOL     OW20030   1.870   0.870  26.659
 2801SOL    HW120031   1.942   0.880  26.721
 2801SOL    HW220032   1.892   0.793  26.607
 2802SOL     OW20033   3.482   2.513   3.828
 2802SOL    HW120034   3.425   2.459   3.773
 2802SOL    HW220035   3.489   2.465   3.910
 2803SOL     OW20036   4.275   4.145   7.373
 2803SOL    HW120037   4.347   4.134   7.310
 2803SOL    HW220038   4.202   4.176   7.320
 2804SOL     OW20039   4.174   2.253  23.257
 2804SOL    HW120040   4.153   2.160  23.263
 2804SOL    HW220041   4.251   2.265  23.312
 2805SOL     OW20042   2.251   2.854   9.146
 2805SOL    HW120043   2.199   2.782   9.180
 2805SOL    HW220044   2.276   2.826   9.058
 2806SOL     OW20045   2.695   2.680  18.327
 2806SOL    HW120046   2.755   2.752  18.309
 2806SOL    HW220047   2.676   2.688  18.421
 2807SOL     OW20048   0.128   3.065   7.977
 2807SOL    HW120049   0.196   3.114   7.930
 2807SOL    HW220050   0.088   3.010   7.910
 2808SOL     OW20051   3.851   0.013  23.034
 2808SOL    HW120052   3.756   0.011  23.042
 2808SOL    HW220053   3.876   4.703  23.026
 2809SOL     OW20054   0.868   3.320   5.818
 2809SOL    HW120055   0.880   3.407   5.854
 2809SOL    HW220056   0.950   3.275   5.836
 2810SOL     OW20057   0.309   0.272  19.118
 2810SOL    HW120058   0.256   0.296  19.193
 2810SOL    HW220059   0.393   0.315  19.133
 2811SOL     OW20060   2.975   1.597  20.770
 2811SOL    HW120061   2.926   1.679  20.771
 2811SOL    HW220062   3.063   1.622  20.742
 2812SOL     OW20063   0.670   4.526   6.430
 2812SOL    HW120064   0.703   4.470   6.359
 2812SOL    HW220065   0.695   4.614   6.403
 2813SOL     OW20066   1.864   1.084   7.959
 2813SOL    HW120067   1.864   1.030   7.880
 2813SOL    HW220068   1.937   1.051   8.011
 2814SOL     OW20069   3.724   4.171  27.475
 2814SOL    HW120070   3.753   4.260  27.491
 2814SOL    HW220071   3.742   4.125  27.557
 2815SOL     OW20072   1.352   3.398   7.944
 2815SOL    HW120073   1.263   3.433   7.944
 2815SOL    HW220074   1.378   3.399   8.036
 2816SOL     OW20075   1.172   4.134  19.033
 2816SOL    HW120076   1.133   4.071  18.972
 2816SOL    HW220077   1.130   4.217  19.012
 2817SOL     OW20078   1.486   1.151   3.433
 2817SOL    HW120079   1.432   1.228   3.416
 2817SOL    HW220080   1.444   1.080   3.385
 2818SOL     OW20081   1.518   0.249   6.347
 2818SOL    HW120082   1.532   0.255   6.253
 2818SOL    HW220083   1.548   0.332   6.382
 2819SOL     OW20084   3.577   0.991   7.523
 2819SOL    HW120085   3.486   0.983   7.552
 2819SOL    HW220086   3.578   0.949   7.437
 2820SOL     OW20087   1.748   3.201  22.350
 2820SOL    HW120088   1.718   3.175  22.437
 2820SOL    HW220089   1.843   3.198  22.355
 2821SOL     OW20090   0.627   2.494  17.474
 2821SOL    HW120091   0.635   2.546  17.395
 2821SOL    HW220092   0.711   2.449  17.482
 2822SOL     OW20093   2.652   1.216  27.670
 2822SOL    HW120094   2.729   1.269  27.651
 2822SOL    HW220095   2.681   1.153  27.736
 2823SOL     OW20096   0.039   1.407  19.321
 2823SOL    HW120097   4.751   1.342  19.313
 2823SOL    HW220098   0.119   1.359  19.300
 2824SOL     OW20099   2.024   1.503  21.949
 2824SOL    HW120100   1.971   1.582  21.942
 2824SOL    HW220101   1.965   1.436  21.984
 2825SOL     OW20102   3.265   3.434   2.623
 2825SOL    HW120103   3.290   3.415   2.713
 2825SOL    HW220104   3.344   3.469   2.582
 2826SOL     OW20105   4.032   2.628   8.130
 2826SOL    HW120106   3.937   2.635   8.143
 2826SOL    HW220107   4.059   2.716   8.106
 2827SOL     OW20108   0.696   1.298  28.285
 2827SOL    HW120109   0.788   1.298  28.259
 2827SOL    HW220110   0.649   1.301  28.201
 2828SOL     OW20111   2.267   1.843  22.615
 2828SOL    HW120112   2.194   1.902  22.597
 2828SOL    HW220113   2.345   1.899  22.608
 2829SOL     OW20114   0.461   3.925  24.131
 2829SOL    HW120115   0.420   3.838  24.132
 2829SOL    HW220116   0.397   3.982  24.174
 2830SOL     OW20117   3.940   2.827   8.507
 2830SOL    HW120118   4.007   2.780   8.456
 2830SOL    HW220119   3.857   2.799   8.467
 2831SOL     OW20120   2.495   3.804   5.547
 2831SOL    HW120121   2.421   3.862   5.566
 2831SOL    HW220122   2.571   3.862   5.553
 2832SOL     OW20123   0.022   3.917   3.169
 2832SOL    HW120124   0.115   3.912   3.191
 2832SOL    HW220125   0.019   3.899   3.075
 2833SOL     OW20126   2.423   3.838   8.312
 2833SOL    HW120127   2.365   3.906   8.345
 2833SOL    HW220128   2.509   3.861   8.346
 2834SOL     OW20129   1.811   1.628   6.865
 2834SOL    HW120130   1.807   1.543   6.909
 2834SOL    HW220131   1.856   1.686   6.927
 2835SOL     OW20132   4.751   0.884  24.260
 2835SOL    HW120133   0.001   0.879  24.170
 2835SOL    HW220134   4.656   0.888  24.251
 2836SOL     OW20135   3.490   4.349  19.821
 2836SOL    HW120136   3.488   4.326  19.728
 2836SOL    HW220137   3.547   4.425  19.825
 2837SOL     OW20138   3.748   1.992   4.942
 2837SOL    HW120139   3.821   2.034   4.987
 2837SOL    HW220140   3.711   2.060   4.886
 2838SOL     OW20141   1.583   3.571   0.165
 2838SOL    HW120142   1.633   3.502   0.208
 2838SOL    HW220143   1.648   3.619   0.113
 2839SOL     OW20144   3.804   4.032  20.711
 2839SOL    HW120145   3.893   3.998  20.698
 2839SOL    HW220146   3.802   4.113  20.660
 2840SOL     OW20147   3.836   4.412  24.546
 2840SOL    HW120148   3.910   4.455  24.504
 2840SOL    HW220149   3.871   4.329  24.577
 2841SOL     OW20150   1.123   2.801  22.841
 2841SOL    HW120151   1.210   2.841  22.840
 2841SOL    HW220152   1.130   2.728  22.779
 2842SOL     OW20153   0.425   4.246  25.482
 2842SOL    HW120154   0.512   4.281  25.500
 2842SOL    HW220155   0.368   4.288  25.547
 2843SOL     OW20156   3.550   0.264   6.666
 2843SOL    HW120157   3.529   0.234   6.754
 2843SOL    HW220158   3.617   0.202   6.635
 2844SOL     OW20159   2.247   4.633   4.636
 2844SOL    HW120160   2.247   4.723   4.669
 2844SOL    HW220161   2.319   4.631   4.572
 2845SOL     OW20162   2.401   3.635  26.456
 2845SOL    HW120163   2.401   3.671  26.368
 2845SOL    HW220164   2.401   3.711  26.514
 2846SOL     OW20165   1.062   2.029   0.719
 2846SOL    HW120166   1.091   2.119   0.704
 2846SOL    HW220167   0.971   2.038   0.746
 2847SOL     OW20168   2.029   2.059  25.811
 2847SOL    HW120169   2.077   1.996  25.757
 2847SOL    HW220170   1.948   2.014  25.834
 2848SOL     OW20171   4.641   3.668   3.400
 2848SOL    HW120172   4.704   3.640   3.466
 2848SOL    HW220173   4.662   3.615   3.323
 2849SOL     OW20174   0.055   4.350  26.488
 2849SOL    HW120175   0.053   4.255  26.479
 2849SOL    HW220176   4.752   4.379  26.457
 2850SOL     OW20177   4.150   0.434   7.172
 2850SOL    HW120178   4.096   0.513   7.160
 2850SOL    HW220179   4.210   0.458   7.243
 2851SOL     OW20180   2.886   3.601  10.753
 2851SOL    HW120181   2.969   3.554  10.766
 2851SOL    HW220182   2.847   3.607  10.840
 2852SOL     OW20183   1.811   1.913  26.137
 2852SOL    HW120184   1.728   1.958  26.148
 2852SOL    HW220185   1.807   1.839  26.198
 2853SOL     OW20186   0.327   4.596  21.123
 2853SOL    HW120187   0.299   4.508  21.098
 2853SOL    HW220188   0.269   4.619  21.196
 2854SOL     OW20189   2.002   2.554   0.016
 2854SOL    HW120190   2.030   2.604   0.092
 2854SOL    HW220191   1.910   2.578   0.005
 2855SOL     OW20192   2.694   3.207   0.471
 2855SOL    HW120193   2.686   3.129   0.415
 2855SOL    HW220194   2.656   3.278   0.419
 2856SOL     OW20195   2.969   1.199  25.881
 2856SOL    HW120196   2.952   1.260  25.954
 2856SOL    HW220197   2.895   1.139  25.882
 2857SOL     OW20198   1.416   4.694   4.920
 2857SOL    HW120199   1.430   4.611   4.875
 2857SOL    HW220200   1.453   4.681   5.008
 2858SOL     OW20201   1.405   1.273  26.989
 2858SOL    HW120202   1.447   1.201  26.941
 2858SOL    HW220203   1.454   1.279  27.071
 2859SOL     OW20204   1.706   2.432  28.461
 2859SOL    HW120205   1.664   2.439  28.375
 2859SOL    HW220206   1.633   2.430  28.523
 2860SOL     OW20207   4.221   3.272  20.057
 2860SOL    HW120208   4.182   3.359  20.054
 2860SOL    HW220209   4.302   3.284  20.105
 2861SOL     OW20210   0.418   3.193  23.849
 2861SOL    HW120211   0.355   3.148  23.794
 2861SOL    HW220212   0.471   3.123  23.888
 2862SOL     OW20213   2.372   2.563  26.452
 2862SOL    HW120214   2.280   2.589  26.452
 2862SOL    HW220215   2.397   2.565  26.359
 2863SOL     OW20216   4.558   2.312  22.884
 2863SOL    HW120217   4.555   2.336  22.977
 2863SOL    HW220218   4.589   2.391  22.840
 2864SOL     OW20219   1.310   4.164   5.787
 2864SOL    HW120220   1.400   4.133   5.800
 2864SOL    HW220221   1.318   4.259   5.782
 2865SOL     OW20222   1.224   1.056  25.120
 2865SOL    HW120223   1.238   1.082  25.029
 2865SOL    HW220224   1.301   1.088  25.167
 2866SOL     OW20225   2.282   0.013   8.476
 2866SOL    HW120226   2.197   0.025   8.518
 2866SOL    HW220227   2.314   0.102   8.461
 2867SOL     OW20228   0.351   1.086   7.514
 2867SOL    HW120229   0.363   1.098   7.608
 2867SOL    HW220230   0.297   1.161   7.488
 2868SOL     OW20231   4.384   2.327  23.443
 2868SOL    HW120232   4.416   2.417  23.448
 2868SOL    HW220233   4.435   2.287  23.372
 2869SOL     OW20234   1.517   3.315   1.443
 2869SOL    HW120235   1.426   3.302   1.418
 2869SOL    HW220236   1.529   3.261   1.521
 2870SOL     OW20237   3.958   2.417   7.146
 2870SOL    HW120238   4.053   2.423   7.141
 2870SOL    HW220239   3.926   2.493   7.098
 2871SOL     OW20240   2.166   1.080   4.095
 2871SOL    HW120241   2.136   1.088   4.186
 2871SOL    HW220242   2.261   1.087   4.100
 2872SOL     OW20243   2.753   4.747   6.832
 2872SOL    HW120244   2.786   4.675   6.779
 2872SOL    HW220245   2.803   0.041   6.803
 2873SOL     OW20246   0.400   3.527   8.958
 2873SOL    HW120247   0.353   3.476   9.025
 2873SOL    HW220248   0.360   3.614   8.963
 2874SOL     OW20249   4.019   0.256  19.721
 2874SOL    HW120250   4.043   0.180  19.668
 2874SOL    HW220251   4.100   0.281  19.766
 2875SOL     OW20252   0.186   0.986   8.886
 2875SOL    HW120253   0.260   0.959   8.940
 2875SOL    HW220254   0.109   0.969   8.941
 2876SOL     OW20255   0.903   4.082  25.911
 2876SOL    HW120256   0.994   4.087  25.942
 2876SOL    HW220257   0.860   4.023  25.972
 2877SOL     OW20258   3.858   0.538   7.829
 2877SOL    HW120259   3.805   0.618   7.831
 2877SOL    HW220260   3.883   0.524   7.920
 2878SOL     OW20261   3.248   0.106  21.551
 2878SOL    HW120262   3.250   0.011  21.540
 2878SOL    HW220263   3.283   0.141  21.468
 2879SOL     OW20264   2.751   2.358   4.413
 2879SOL    HW120265   2.701   2.381   4.491
 2879SOL    HW220266   2.840   2.389   4.431
 2880SOL     OW20267   4.403   4.117  24.297
 2880SOL    HW120268   4.431   4.199  24.339
 2880SOL    HW220269   4.464   4.051  24.330
 2881SOL     OW20270   1.175   1.061   0.012
 2881SOL    HW120271   1.243   1.086  28.480
 2881SOL    HW220272   1.099   1.038  28.490
 2882SOL     OW20273   0.302   4.130  23.827
 2882SOL    HW120274   0.358   4.194  23.870
 2882SOL    HW220275   0.289   4.061  23.892
 2883SOL     OW20276   2.530   1.546  19.891
 2883SOL    HW120277   2.605   1.488  19.905
 2883SOL    HW220278   2.454   1.490  19.906
 2884SOL     OW20279   2.816   4.364  25.206
 2884SOL    HW120280   2.812   4.275  25.240
 2884SOL    HW220281   2.909   4.386  25.207
 2885SOL     OW20282   1.982   0.408  26.124
 2885SOL    HW120283   1.919   0.337  26.121
 2885SOL    HW220284   2.033   0.399  26.043
 2886SOL     OW20285   1.387   1.773  23.512
 2886SOL    HW120286   1.303   1.739  23.543
 2886SOL    HW220287   1.388   1.753  23.419
 2887SOL     OW20288   2.909   1.870   4.580
 2887SOL    HW120289   2.944   1.808   4.644
 2887SOL    HW220290   2.908   1.954   4.625
 2888SOL     OW20291   3.675   0.124  25.033
 2888SOL    HW120292   3.654   0.045  24.983
 2888SOL    HW220293   3.631   0.195  24.987
 2889SOL     OW20294   3.429   2.660   6.063
 2889SOL    HW120295   3.461   2.604   5.993
 2889SOL    HW220296   3.493   2.731   6.068
 2890SOL     OW20297   2.138   0.802  20.882
 2890SOL    HW120298   2.047   0.830  20.882
 2890SOL    HW220299   2.165   0.809  20.974
 2891SOL     OW20300   0.466   0.299  18.478
 2891SOL    HW120301   0.507   0.349  18.406
 2891SOL    HW220302   0.540   0.258  18.522
 2892SOL     OW20303   3.729   0.421  19.274
 2892SOL    HW120304   3.733   0.483  19.347
 2892SOL    HW220305   3.706   0.475  19.199
 2893SOL     OW20306   4.047   1.921   9.003
 2893SOL    HW120307   4.042   1.826   9.012
 2893SOL    HW220308   3.964   1.952   9.041
 2894SOL     OW20309   4.680   1.745  22.390
 2894SOL    HW120310   4.599   1.705  22.356
 2894SOL    HW220311   4.710   1.683  22.457
 2895SOL     OW20312   4.176   0.943  19.783
 2895SOL    HW120313   4.219   0.941  19.698
 2895SOL    HW220314   4.087   0.910  19.766
 2896SOL     OW20315   3.460   2.671  26.192
 2896SOL    HW120316   3.389   2.644  26.134
 2896SOL    HW220317   3.503   2.743  26.146
 2897SOL     OW20318   3.841   2.327   8.419
 2897SOL    HW120319   3.929   2.350   8.389
 2897SOL    HW220320   3.786   2.335   8.341
 2898SOL     OW20321   2.783   2.621  23.498
 2898SOL    HW120322   2.806   2.713  23.514
 2898SOL    HW220323   2.854   2.587  23.445
 2899SOL     OW20324   0.429   1.768  27.951
 2899SOL    HW120325   0.351   1.822  27.964
 2899SOL    HW220326   0.399   1.679  27.969
 2900SOL     OW20327   1.812   0.820  15.838
 2900SOL    HW120328   1.757   0.874  15.781
 2900SOL    HW220329   1.882   0.788  15.780
 2901SOL     OW20330   0.081   1.303  24.369
 2901SOL    HW120331   0.121   1.217  24.384
 2901SOL    HW220332   0.030   1.292  24.290
 2902SOL     OW20333   4.746   3.500  23.193
 2902SOL    HW120334   4.779   3.429  23.137
 2902SOL    HW220335   4.701   3.455  23.264
 2903SOL     OW20336   1.816   4.223  18.521
 2903SOL    HW120337   1.855   4.161  18.583
 2903SOL    HW220338   1.801   4.303  18.573
 2904SOL     OW20339   3.254   0.005   9.079
 2904SOL    HW120340   3.303   0.088   9.082
 2904SOL    HW220341   3.308   4.727   9.129
 2905SOL     OW20342   1.511   2.248  23.628
 2905SOL    HW120343   1.583   2.260  23.690
 2905SOL    HW220344   1.540   2.293  23.548
 2906SOL     OW20345   0.567   0.590   4.136
 2906SOL    HW120346   0.649   0.544   4.154
 2906SOL    HW220347   0.593   0.664   4.081
 2907SOL     OW20348   3.639   0.603  21.515
 2907SOL    HW120349   3.734   0.605  21.528
 2907SOL    HW220350   3.610   0.693  21.532
 2908SOL     OW20351   3.911   4.131  23.717
 2908SOL    HW120352   3.941   4.079  23.643
 2908SOL    HW220353   3.985   4.131  23.778
 2909SOL     OW20354   1.299   4.405   9.190
 2909SOL    HW120355   1.324   4.313   9.201
 2909SOL    HW220356   1.206   4.408   9.211
 2910SOL     OW20357   0.271   4.654   6.127
 2910SOL    HW120358   0.228   4.730   6.167
 2910SOL    HW220359   0.256   4.583   6.190
 2911SOL     OW20360   2.041   4.624  22.105
 2911SOL    HW120361   1.974   4.636  22.173
 2911SOL    HW220362   2.010   4.550  22.053
 2912SOL     OW20363   2.090   3.011  24.766
 2912SOL    HW120364   2.065   3.093  24.810
 2912SOL    HW220365   2.008   2.964  24.755
 2913SOL     OW20366   0.738   4.034  23.464
 2913SOL    HW120367   0.756   3.941  23.477
 2913SOL    HW220368   0.677   4.057  23.534
 2914SOL     OW20369   3.251   2.377   0.032
 2914SOL    HW120370   3.172   2.378   0.086
 2914SOL    HW220371   3.320   2.344   0.090
 2915SOL     OW20372   1.241   1.379   4.464
 2915SOL    HW120373   1.296   1.454   4.485
 2915SOL    HW220374   1.247   1.370   4.369
 2916SOL     OW20375   1.383   3.371  25.659
 2916SOL    HW120376   1.348   3.460  25.659
 2916SOL    HW220377   1.307   3.316  25.677
 2917SOL     OW20378   4.466   1.648  10.594
 2917SOL    HW120379   4.561   1.655  10.593
 2917SOL    HW220380   4.435   1.733  10.626
 2918SOL     OW20381   0.744   2.887   3.942
 2918SOL    HW120382   0.723   2.885   3.849
 2918SOL    HW220383   0.766   2.978   3.961
 2919SOL     OW20384   0.548   1.853   3.709
 2919SOL    HW120385   0.594   1.932   3.737
 2919SOL    HW220386   0.568   1.789   3.777
 2920SOL     OW20387   2.264   3.877   2.021
 2920SOL    HW120388   2.217   3.944   2.071
 2920SOL    HW220389   2.198   3.837   1.966
 2921SOL     OW20390   3.569   3.815  19.736
 2921SOL    HW120391   3.651   3.845  19.776
 2921SOL    HW220392   3.555   3.876  19.664
 2922SOL     OW20393   2.481   2.358   4.261
 2922SOL    HW120394   2.454   2.271   4.233
 2922SOL    HW220395   2.571   2.347   4.291
 2923SOL     OW20396   4.702   3.456   1.469
 2923SOL    HW120397   4.675   3.501   1.549
 2923SOL    HW220398   4.728   3.368   1.499
 2924SOL     OW20399   1.752   1.839  28.355
 2924SOL    HW120400   1.779   1.906  28.417
 2924SOL    HW220401   1.664   1.865  28.326
 2925SOL     OW20402   4.446   0.544   5.956
 2925SOL    HW120403   4.393   0.465   5.948
 2925SOL    HW220404   4.529   0.522   5.913
 2926SOL     OW20405   4.001   2.828  21.215
 2926SOL    HW120406   4.052   2.773  21.274
 2926SOL    HW220407   3.972   2.768  21.146
 2927SOL     OW20408   0.239   4.740  22.033
 2927SOL    HW120409   0.215   0.023  22.098
 2927SOL    HW220410   0.172   4.672  22.040
 2928SOL     OW20411   0.970   1.417   9.483
 2928SOL    HW120412   0.878   1.392   9.497
 2928SOL    HW220413   0.965   1.500   9.436
 2929SOL     OW20414   3.211   3.077  21.533
 2929SOL    HW120415   3.213   3.047  21.442
 2929SOL    HW220416   3.131   3.129  21.539
 2930SOL     OW20417   1.733   4.037  23.434
 2930SOL    HW120418   1.762   3.982  23.362
 2930SOL    HW220419   1.791   4.013  23.507
 2931SOL     OW20420   0.617   1.922  15.317
 2931SOL    HW120421   0.606   1.992  15.253
 2931SOL    HW220422   0.710   1.925  15.342
 2932SOL     OW20423   1.564   0.441   1.187
 2932SOL    HW120424   1.618   0.363   1.187
 2932SOL    HW220425   1.587   0.486   1.268
 2933SOL     OW20426   4.715   4.710  20.030
 2933SOL    HW120427   4.629   4.668  20.036
 2933SOL    HW220428   4.695   0.020  20.015
 2934SOL     OW20429   2.674   2.375   5.330
 2934SOL    HW120430   2.646   2.312   5.397
 2934SOL    HW220431   2.601   2.437   5.323
 2935SOL     OW20432   2.435   2.084  26.683
 2935SOL    HW120433   2.527   2.077  26.710
 2935SOL    HW220434   2.427   2.173  26.649
 2936SOL     OW20435   4.655   2.303  19.697
 2936SOL    HW120436   4.697   2.384  19.723
 2936SOL    HW220437   4.727   2.246  19.671
 2937SOL     OW20438   4.124   3.950   0.655
 2937SOL    HW120439   4.120   3.968   0.748
 2937SOL    HW220440   4.192   4.009   0.622
 2938SOL     OW20441   3.763   0.935  24.196
 2938SOL    HW120442   3.831   0.875  24.165
 2938SOL    HW220443   3.798   1.022  24.180
 2939SOL     OW20444   3.996   4.476   4.472
 2939SOL    HW120445   4.072   4.428   4.504
 2939SOL    HW220446   3.978   4.540   4.541
 2940SOL     OW20447   4.460   3.989   7.804
 2940SOL    HW120448   4.439   4.057   7.740
 2940SOL    HW220449   4.417   4.018   7.884
 2941SOL     OW20450   3.301   4.745   2.485
 2941SOL    HW120451   3.284   4.731   2.578
 2941SOL    HW220452   3.245   4.683   2.440
 2942SOL     OW20453   0.441   1.678  23.306
 2942SOL    HW120454   0.396   1.741  23.361
 2942SOL    HW220455   0.371   1.626  23.266
 2943SOL     OW20456   2.102   4.730  17.285
 2943SOL    HW120457   2.080   4.768  17.200
 2943SOL    HW220458   2.192   4.759  17.301
 2944SOL     OW20459   0.213   1.953   7.945
 2944SOL    HW120460   0.194   2.028   7.889
 2944SOL    HW220461   0.308   1.940   7.937
 2945SOL     OW20462   4.119   1.247   2.450
 2945SOL    HW120463   4.163   1.331   2.439
 2945SOL    HW220464   4.105   1.216   2.360
 2946SOL     OW20465   2.812   4.146  21.878
 2946SOL    HW120466   2.845   4.219  21.826
 2946SOL    HW220467   2.820   4.069  21.821
 2947SOL     OW20468   2.979   4.430   5.081
 2947SOL    HW120469   3.035   4.355   5.100
 2947SOL    HW220470   3.008   4.459   4.994
 2948SOL     OW20471   4.418   4.139  23.256
 2948SOL    HW120472   4.452   4.070  23.199
 2948SOL    HW220473   4.466   4.218  23.229
 2949SOL     OW20474   1.464   3.630  17.804
 2949SOL    HW120475   1.419   3.548  17.823
 2949SOL    HW220476   1.548   3.603  17.768
 2950SOL     OW20477   4.084   0.904  22.367
 2950SOL    HW120478   4.121   0.992  22.380
 2950SOL    HW220479   4.158   0.845  22.383
 2951SOL     OW20480   1.758   3.620  10.085
 2951SOL    HW120481   1.774   3.714  10.089
 2951SOL    HW220482   1.724   3.598  10.172
 2952SOL     OW20483   4.249   0.933  23.112
 2952SOL    HW120484   4.178   0.966  23.166
 2952SOL    HW220485   4.299   1.010  23.087
 2953SOL     OW20486   3.886   0.602  19.972
 2953SOL    HW120487   3.832   0.615  20.050
 2953SOL    HW220488   3.967   0.564  20.006
 2954SOL     OW20489   4.592   2.563   7.780
 2954SOL    HW120490   4.638   2.646   7.787
 2954SOL    HW220491   4.516   2.583   7.724
 2955SOL     OW20492   2.753   0.514   0.630
 2955SOL    HW120493   2.696   0.462   0.573
 2955SOL    HW220494   2.698   0.535   0.706
 2956SOL     OW20495   2.290   3.908  27.198
 2956SOL    HW120496   2.198   3.935  27.199
 2956SOL    HW220497   2.336   3.982  27.236
 2957SOL     OW20498   3.565   4.379  20.848
 2957SOL    HW120499   3.609   4.461  20.824
 2957SOL    HW220500   3.634   4.327  20.890
 2958SOL     OW20501   0.217   1.823  17.604
 2958SOL    HW120502   0.182   1.912  17.608
 2958SOL    HW220503   0.199   1.786  17.691
 2959SOL     OW20504   1.841   1.338   6.919
 2959SOL    HW120505   1.916   1.280   6.932
 2959SOL    HW220506   1.771   1.281   6.886
 2960SOL     OW20507   3.950   1.299   1.469
 2960SOL    HW120508   4.034   1.276   1.430
 2960SOL    HW220509   3.941   1.393   1.453
 2961SOL     OW20510   0.463   2.915   4.090
 2961SOL    HW120511   0.390   2.857   4.110
 2961SOL    HW220512   0.520   2.862   4.034
 2962SOL     OW20513   0.818   2.405  12.565
 2962SOL    HW120514   0.903   2.423  12.604
 2962SOL    HW220515   0.780   2.335  12.619
 2963SOL     OW20516   0.288   2.884   3.459
 2963SOL    HW120517   0.222   2.822   3.428
 2963SOL    HW220518   0.243   2.968   3.461
 2964SOL     OW20519   0.826   3.517  28.145
 2964SOL    HW120520   0.851   3.572  28.219
 2964SOL    HW220521   0.783   3.577  28.084
 2965SOL     OW20522   1.959   4.514   2.687
 2965SOL    HW120523   2.050   4.526   2.714
 2965SOL    HW220524   1.926   4.602   2.670
 2966SOL     OW20525   1.198   2.302  24.727
 2966SOL    HW120526   1.244   2.234  24.677
 2966SOL    HW220527   1.117   2.260  24.755
 2967SOL     OW20528   4.321   2.310   8.762
 2967SOL    HW120529   4.296   2.330   8.672
 2967SOL    HW220530   4.259   2.243   8.791
 2968SOL     OW20531   4.091   4.646   5.516
 2968SOL    HW120532   4.118   4.657   5.426
 2968SOL    HW220533   4.099   4.552   5.532
 2969SOL     OW20534   2.071   4.739  21.233
 2969SOL    HW120535   2.167   4.742  21.232
 2969SOL    HW220536   2.050   4.663  21.287
 2970SOL     OW20537   2.417   3.570   0.561
 2970SOL    HW120538   2.474   3.636   0.601
 2970SOL    HW220539   2.330   3.611   0.560
 2971SOL     OW20540   2.797   1.916  18.850
 2971SOL    HW120541   2.833   1.961  18.773
 2971SOL    HW220542   2.703   1.931  18.844
 2972SOL     OW20543   2.454   0.012   6.212
 2972SOL    HW120544   2.399   0.013   6.291
 2972SOL    HW220545   2.543   0.001   6.245
 2973SOL     OW20546   1.490   0.313   2.415
 2973SOL    HW120547   1.494   0.222   2.384
 2973SOL    HW220548   1.531   0.311   2.501
 2974SOL     OW20549   3.577   0.160  27.732
 2974SOL    HW120550   3.592   0.254  27.747
 2974SOL    HW220551   3.620   0.142  27.648
 2975SOL     OW20552   0.255   4.732   8.576
 2975SOL    HW120553   0.207   4.721   8.657
 2975SOL    HW220554   0.212   4.674   8.514
 2976SOL     OW20555   1.357   1.704   2.560
 2976SOL    HW120556   1.410   1.679   2.484
 2976SOL    HW220557   1.421   1.734   2.625
 2977SOL     OW20558   1.549   1.490   8.186
 2977SOL    HW120559   1.528   1.398   8.203
 2977SOL    HW220560   1.468   1.527   8.153
 2978SOL     OW20561   3.126   1.697  23.158
 2978SOL    HW120562   3.181   1.728  23.229
 2978SOL    HW220563   3.055   1.760  23.153
 2979SOL     OW20564   3.184   0.466   1.329
 2979SOL    HW120565   3.136   0.457   1.411
 2979SOL    HW220566   3.131   0.524   1.275
 2980SOL     OW20567   1.299   0.289  22.315
 2980SOL    HW120568   1.260   0.311  22.231
 2980SOL    HW220569   1.371   0.352  22.325
 2981SOL     OW20570   3.776   2.602   5.521
 2981SOL    HW120571   3.733   2.609   5.436
 2981SOL    HW220572   3.759   2.513   5.550
 2982SOL     OW20573   2.567   2.742   5.172
 2982SOL    HW120574   2.530   2.742   5.084
 2982SOL    HW220575   2.662   2.748   5.158
 2983SOL     OW20576   4.260   3.027  21.913
 2983SOL    HW120577   4.306   3.074  21.843
 2983SOL    HW220578   4.308   2.945  21.923
 2984SOL     OW20579   0.855   3.906  26.760
 2984SOL    HW120580   0.781   3.849  26.740
 2984SOL    HW220581   0.860   3.966  26.686
 2985SOL     OW20582   4.646   4.036  22.047
 2985SOL    HW120583   4.723   4.074  22.005
 2985SOL    HW220584   4.677   3.952  22.082
 2986SOL     OW20585   1.922   3.957   1.512
 2986SOL    HW120586   1.858   3.972   1.582
 2986SOL    HW220587   1.956   3.870   1.528
 2987SOL     OW20588   3.662   3.011   5.445
 2987SOL    HW120589   3.655   3.105   5.460
 2987SOL    HW220590   3.637   2.999   5.354
 2988SOL     OW20591   4.548   0.127  10.254
 2988SOL    HW120592   4.605   0.192  10.213
 2988SOL    HW220593   4.459   0.155  10.232
 2989SOL     OW20594   0.960   2.841   0.759
 2989SOL    HW120595   0.942   2.771   0.822
 2989SOL    HW220596   1.013   2.903   0.808
 2990SOL     OW20597   2.416   1.371   2.792
 2990SOL    HW120598   2.409   1.325   2.875
 2990SOL    HW220599   2.509   1.371   2.771
 2991SOL     OW20600   2.239   1.116  26.766
 2991SOL    HW120601   2.169   1.054  26.788
 2991SOL    HW220602   2.264   1.092  26.676
 2992SOL     OW20603   4.686   0.215  21.628
 2992SOL    HW120604   4.608   0.174  21.590
 2992SOL    HW220605   4.755   0.151  21.616
 2993SOL     OW20606   1.222   4.604  25.493
 2993SOL    HW120607   1.181   4.541  25.552
 2993SOL    HW220608   1.160   4.677  25.488
 2994SOL     OW20609   0.084   0.631   5.316
 2994SOL    HW120610   0.127   0.640   5.401
 2994SOL    HW220611   0.089   0.718   5.277
 2995SOL     OW20612   2.631   2.679   5.610
 2995SOL    HW120613   2.624   2.754   5.668
 2995SOL    HW220614   2.725   2.665   5.599
 2996SOL     OW20615   0.491   0.737  20.790
 2996SOL    HW120616   0.514   0.785  20.869
 2996SOL    HW220617   0.495   0.801  20.719
 2997SOL     OW20618   4.024   1.100  11.111
 2997SOL    HW120619   3.961   1.172  11.101
 2997SOL    HW220620   4.066   1.117  11.195
 2998SOL     OW20621   3.978   1.371  16.361
 2998SOL    HW120622   3.911   1.302  16.353
 2998SOL    HW220623   4.040   1.353  16.291
 2999SOL     OW20624   0.912   3.926  21.658
 2999SOL    HW120625   0.974   3.863  21.622
 2999SOL    HW220626   0.871   3.880  21.731
 3000SOL     OW20627   2.839   0.261  18.242
 3000SOL    HW120628   2.820   0.218  18.159
 3000SOL    HW220629   2.872   0.191  18.298
 3001SOL     OW20630   1.707   2.256   7.622
 3001SOL    HW120631   1.802   2.259   7.622
 3001SOL    HW220632   1.686   2.163   7.633
 3002SOL     OW20633   3.882   3.136  28.411
 3002SOL    HW120634   3.927   3.221  28.406
 3002SOL    HW220635   3.815   3.140  28.342
 3003SOL     OW20636   1.305   3.321  27.699
 3003SOL    HW120637   1.327   3.231  27.723
 3003SOL    HW220638   1.222   3.337  27.744
 3004SOL     OW20639   1.393   0.483  10.592
 3004SOL    HW120640   1.337   0.559  10.605
 3004SOL    HW220641   1.475   0.506  10.635
 3005SOL     OW20642   0.031   1.906  11.690
 3005SOL    HW120643   4.736   1.912  11.634
 3005SOL    HW220644   4.781   1.928  11.778
 3006SOL     OW20645   4.252   1.858  20.292
 3006SOL    HW120646   4.268   1.841  20.385
 3006SOL    HW220647   4.293   1.785  20.246
 3007SOL     OW20648   2.680   4.727   0.835
 3007SOL    HW120649   2.740   4.744   0.763
 3007SOL    HW220650   2.687   4.633   0.852
 3008SOL     OW20651   2.879   0.006   1.785
 3008SOL    HW120652   2.817   4.716   1.785
 3008SOL    HW220653   2.964   4.748   1.770
 3009SOL     OW20654   3.548   1.132   2.666
 3009SOL    HW120655   3.575   1.106   2.754
 3009SOL    HW220656   3.522   1.223   2.674
 3010SOL     OW20657   2.798   3.038   5.207
 3010SOL    HW120658   2.711   3.059   5.241
 3010SOL    HW220659   2.782   2.972   5.140
 3011SOL     OW20660   3.315   3.042   0.518
 3011SOL    HW120661   3.393   3.037   0.464
 3011SOL    HW220662   3.294   3.135   0.522
 3012SOL     OW20663   2.511   4.774  23.525
 3012SOL    HW120664   2.477   4.693  23.563
 3012SOL    HW220665   2.444   0.057  23.545
 3013SOL     OW20666   2.724   2.412  10.396
 3013SOL    HW120667   2.634   2.413  10.429
 3013SOL    HW220668   2.767   2.486  10.440
 3014SOL     OW20669   2.993   3.208   4.670
 3014SOL    HW120670   3.056   3.212   4.597
 3014SOL    HW220671   2.921   3.265   4.642
 3015SOL     OW20672   0.328   3.086  26.697
 3015SOL    HW120673   0.298   3.022  26.761
 3015SOL    HW220674   0.253   3.144  26.683
 3016SOL     OW20675   3.500   0.642   2.868
 3016SOL    HW120676   3.530   0.700   2.799
 3016SOL    HW220677   3.486   0.558   2.825
 3017SOL     OW20678   0.571   4.385   3.226
 3017SOL    HW120679   0.648   4.387   3.283
 3017SOL    HW220680   0.564   4.474   3.191
 3018SOL     OW20681   2.314   3.342   5.394
 3018SOL    HW120682   2.320   3.424   5.443
 3018SOL    HW220683   2.392   3.294   5.419
 3019SOL     OW20684   1.837   0.911  26.367
 3019SOL    HW120685   1.913   0.943  26.318
 3019SOL    HW220686   1.845   0.952  26.453
 3020SOL     OW20687   1.164   0.809   9.389
 3020SOL    HW120688   1.256   0.835   9.378
 3020SOL    HW220689   1.168   0.719   9.420
 3021SOL     OW20690   2.557   1.534   9.536
 3021SOL    HW120691   2.643   1.504   9.567
 3021SOL    HW220692   2.495   1.494   9.597
 3022SOL     OW20693   4.691   3.772  25.244
 3022SOL    HW120694   4.770   3.755  25.295
 3022SOL    HW220695   4.716   3.750  25.154
 3023SOL     OW20696   4.149   0.357   2.931
 3023SOL    HW120697   4.084   0.291   2.907
 3023SOL    HW220698   4.186   0.325   3.014
 3024SOL     OW20699   2.636   4.094   4.577
 3024SOL    HW120700   2.636   4.010   4.531
 3024SOL    HW220701   2.631   4.070   4.670
 3025SOL     OW20702   4.488   3.520  22.097
 3025SOL    HW120703   4.532   3.582  22.038
 3025SOL    HW220704   4.450   3.455  22.038
 3026SOL     OW20705   2.445   1.151  27.961
 3026SOL    HW120706   2.363   1.148  27.911
 3026SOL    HW220707   2.486   1.233  27.935
 3027SOL     OW20708   2.129   2.191  20.708
 3027SOL    HW120709   2.154   2.270  20.659
 3027SOL    HW220710   2.124   2.220  20.799
 3028SOL     OW20711   0.188   0.824  27.856
 3028SOL    HW120712   0.253   0.769  27.812
 3028SOL    HW220713   0.191   0.907  27.809
 3029SOL     OW20714   4.638   1.661   9.711
 3029SOL    HW120715   4.709   1.636   9.652
 3029SOL    HW220716   4.682   1.703   9.785
 3030SOL     OW20717   1.695   0.893   9.370
 3030SOL    HW120718   1.665   0.983   9.355
 3030SOL    HW220719   1.617   0.839   9.358
 3031SOL     OW20720   1.132   4.707   8.359
 3031SOL    HW120721   1.179   4.680   8.437
 3031SOL    HW220722   1.197   4.701   8.288
 3032SOL     OW20723   1.039   1.808  18.853
 3032SOL    HW120724   0.980   1.847  18.789
 3032SOL    HW220725   1.042   1.716  18.830
 3033SOL     OW20726   2.589   1.646  25.993
 3033SOL    HW120727   2.564   1.567  26.041
 3033SOL    HW220728   2.546   1.717  26.040
 3034SOL     OW20729   2.497   4.439  20.282
 3034SOL    HW120730   2.570   4.414  20.226
 3034SOL    HW220731   2.479   4.530  20.261
 3035SOL     OW20732   2.920   3.544   5.989
 3035SOL    HW120733   2.857   3.485   6.032
 3035SOL    HW220734   2.959   3.593   6.062
 3036SOL     OW20735   4.611   0.483   1.705
 3036SOL    HW120736   4.537   0.445   1.752
 3036SOL    HW220737   4.628   0.421   1.633
 3037SOL     OW20738   1.217   0.667   0.288
 3037SOL    HW120739   1.257   0.639   0.206
 3037SOL    HW220740   1.199   0.760   0.276
 3038SOL     OW20741   3.115   1.591   6.977
 3038SOL    HW120742   3.204   1.625   6.972
 3038SOL    HW220743   3.114   1.516   6.918
 3039SOL     OW20744   3.555   0.659   5.258
 3039SOL    HW120745   3.589   0.724   5.318
 3039SOL    HW220746   3.571   0.575   5.301
 3040SOL     OW20747   3.821   3.091   3.989
 3040SOL    HW120748   3.854   3.082   4.078
 3040SOL    HW220749   3.727   3.104   3.999
 3041SOL     OW20750   1.407   2.437  20.813
 3041SOL    HW120751   1.315   2.457  20.797
 3041SOL    HW220752   1.454   2.479  20.741
 3042SOL     OW20753   1.899   4.276   4.199
 3042SOL    HW120754   1.804   4.283   4.211
 3042SOL    HW220755   1.930   4.367   4.201
 3043SOL     OW20756   2.044   4.651  27.574
 3043SOL    HW120757   1.958   4.636  27.535
 3043SOL    HW220758   2.054   4.581  27.638
 3044SOL     OW20759   2.660   0.869   1.404
 3044SOL    HW120760   2.747   0.849   1.438
 3044SOL    HW220761   2.661   0.835   1.315
 3045SOL     OW20762   4.065   1.673  24.297
 3045SOL    HW120763   4.021   1.737  24.352
 3045SOL    HW220764   4.071   1.594  24.350
 3046SOL     OW20765   1.018   1.069  19.293
 3046SOL    HW120766   1.097   1.107  19.332
 3046SOL    HW220767   0.950   1.134  19.310
 3047SOL     OW20768   1.343   0.541  20.987
 3047SOL    HW120769   1.268   0.594  20.957
 3047SOL    HW220770   1.322   0.453  20.956
 3048SOL     OW20771   3.480   0.236  22.371
 3048SOL    HW120772   3.446   0.275  22.451
 3048SOL    HW220773   3.553   0.293  22.345
 3049SOL     OW20774   4.227   0.096   0.035
 3049SOL    HW120775   4.259   0.030   0.097
 3049SOL    HW220776   4.271   0.074  28.484
 3050SOL     OW20777   0.768   3.419  22.425
 3050SOL    HW120778   0.721   3.495  22.459
 3050SOL    HW220779   0.833   3.456  22.365
 3051SOL     OW20780   0.825   4.432   5.427
 3051SOL    HW120781   0.840   4.397   5.339
 3051SOL    HW220782   0.833   4.527   5.416
 3052SOL     OW20783   4.117   4.741  10.467
 3052SOL    HW120784   4.106   4.648  10.488
 3052SOL    HW220785   4.069   4.752  10.385
 3053SOL     OW20786   4.558   2.893  18.241
 3053SOL    HW120787   4.534   2.951  18.313
 3053SOL    HW220788   4.515   2.931  18.164
 3054SOL     OW20789   2.252   3.831  18.684
 3054SOL    HW120790   2.334   3.828  18.633
 3054SOL    HW220791   2.190   3.877  18.627
 3055SOL     OW20792   4.766   1.280   9.404
 3055SOL    HW120793   4.702   1.321   9.462
 3055SOL    HW220794   0.049   1.243   9.464
 3056SOL     OW20795   2.649   3.160  26.162
 3056SOL    HW120796   2.577   3.106  26.129
 3056SOL    HW220797   2.675   3.213  26.087
 3057SOL     OW20798   1.722   3.415  18.589
 3057SOL    HW120799   1.769   3.470  18.652
 3057SOL    HW220800   1.720   3.467  18.509
 3058SOL     OW20801   3.866   2.618  27.534
 3058SOL    HW120802   3.899   2.558  27.602
 3058SOL    HW220803   3.938   2.624  27.471
 3059SOL     OW20804   3.669   3.853   7.944
 3059SOL    HW120805   3.683   3.763   7.974
 3059SOL    HW220806   3.674   3.906   8.023
 3060SOL     OW20807   1.756   3.743  20.084
 3060SOL    HW120808   1.835   3.728  20.031
 3060SOL    HW220809   1.689   3.689  20.043
 3061SOL     OW20810   3.291   1.246  23.130
 3061SOL    HW120811   3.214   1.277  23.083
 3061SOL    HW220812   3.365   1.268  23.073
 3062SOL     OW20813   3.933   2.165  21.025
 3062SOL    HW120814   3.848   2.182  21.066
 3062SOL    HW220815   3.988   2.239  21.050
 3063SOL     OW20816   2.074   3.564   8.484
 3063SOL    HW120817   2.143   3.498   8.479
 3063SOL    HW220818   2.031   3.548   8.568
 3064SOL     OW20819   0.848   4.407  21.944
 3064SOL    HW120820   0.912   4.363  22.000
 3064SOL    HW220821   0.893   4.420  21.861
 3065SOL     OW20822   1.664   2.563   9.661
 3065SOL    HW120823   1.615   2.571   9.579
 3065SOL    HW220824   1.598   2.554   9.729
 3066SOL     OW20825   2.931   2.004   9.354
 3066SOL    HW120826   2.887   1.923   9.380
 3066SOL    HW220827   2.875   2.041   9.286
 3067SOL     OW20828   1.846   0.134   7.787
 3067SOL    HW120829   1.894   0.094   7.859
 3067SOL    HW220830   1.913   0.164   7.726
 3068SOL     OW20831   0.658   3.630   6.343
 3068SOL    HW120832   0.737   3.587   6.377
 3068SOL    HW220833   0.640   3.700   6.406
 3069SOL     OW20834   2.646   3.910   2.018
 3069SOL    HW120835   2.661   3.966   1.942
 3069SOL    HW220836   2.599   3.965   2.080
 3070SOL     OW20837   1.401   1.138   2.345
 3070SOL    HW120838   1.424   1.086   2.267
 3070SOL    HW220839   1.465   1.209   2.346
 3071SOL     OW20840   2.739   1.366  27.417
 3071SOL    HW120841   2.723   1.421  27.340
 3071SOL    HW220842   2.670   1.300  27.414
 3072SOL     OW20843   2.117   0.163   6.542
 3072SOL    HW120844   2.040   0.204   6.502
 3072SOL    HW220845   2.139   0.220   6.615
 3073SOL     OW20846   1.559   0.111  21.785
 3073SOL    HW120847   1.614   0.144  21.856
 3073SOL    HW220848   1.602   0.031  21.755
 3074SOL     OW20849   1.049   2.087  26.616
 3074SOL    HW120850   1.086   2.170  26.648
 3074SOL    HW220851   0.966   2.078  26.664
 3075SOL     OW20852   2.245   2.436   7.599
 3075SOL    HW120853   2.339   2.435   7.579
 3075SOL    HW220854   2.225   2.528   7.616
 3076SOL     OW20855   1.789   1.117  27.411
 3076SOL    HW120856   1.814   1.053  27.477
 3076SOL    HW220857   1.862   1.178  27.408
 3077SOL     OW20858   0.633   2.258   5.184
 3077SOL    HW120859   0.679   2.296   5.109
 3077SOL    HW220860   0.653   2.318   5.256
 3078SOL     OW20861   0.538   1.660   8.065
 3078SOL    HW120862   0.469   1.655   8.131
 3078SOL    HW220863   0.540   1.574   8.025
 3079SOL     OW20864   2.044   0.639  17.661
 3079SOL    HW120865   1.991   0.605  17.589
 3079SOL    HW220866   1.987   0.700  17.707
 3080SOL     OW20867   2.116   2.226  21.221
 3080SOL    HW120868   2.057   2.264  21.285
 3080SOL    HW220869   2.160   2.155  21.268
 3081SOL     OW20870   1.313   4.382  27.971
 3081SOL    HW120871   1.324   4.310  27.908
 3081SOL    HW220872   1.312   4.338  28.056
 3082SOL     OW20873   4.477   3.076   5.535
 3082SOL    HW120874   4.474   2.984   5.560
 3082SOL    HW220875   4.389   3.095   5.500
 3083SOL     OW20876   2.009   3.964  27.502
 3083SOL    HW120877   1.914   3.972  27.510
 3083SOL    HW220878   2.024   3.943  27.409
 3084SOL     OW20879   4.703   3.662  18.690
 3084SOL    HW120880   4.652   3.582  18.699
 3084SOL    HW220881   4.649   3.719  18.635
 3085SOL     OW20882   2.888   4.484   6.849
 3085SOL    HW120883   2.918   4.471   6.939
 3085SOL    HW220884   2.899   4.399   6.807
 3086SOL     OW20885   4.343   0.045   5.866
 3086SOL    HW120886   4.258   0.047   5.823
 3086SOL    HW220887   4.379   4.742   5.843
 3087SOL     OW20888   2.973   2.308  25.137
 3087SOL    HW120889   2.979   2.353  25.221
 3087SOL    HW220890   2.886   2.330  25.104
 3088SOL     OW20891   0.294   4.039   4.837
 3088SOL    HW120892   0.293   4.067   4.746
 3088SOL    HW220893   0.253   4.111   4.885
 3089SOL     OW20894   4.169   4.079  24.146
 3089SOL    HW120895   4.184   4.081  24.051
 3089SOL    HW220896   4.257   4.081  24.183
 3090SOL     OW20897   3.261   1.701  18.054
 3090SOL    HW120898   3.276   1.650  17.975
 3090SOL    HW220899   3.202   1.771  18.027
 3091SOL     OW20900   4.603   0.928   1.883
 3091SOL    HW120901   4.605   0.838   1.914
 3091SOL    HW220902   4.567   0.922   1.794
 3092SOL     OW20903   2.414   0.732  24.031
 3092SOL    HW120904   2.358   0.787  23.976
 3092SOL    HW220905   2.362   0.716  24.110
 3093SOL     OW20906   1.617   4.656   7.749
 3093SOL    HW120907   1.618   4.750   7.765
 3093SOL    HW220908   1.526   4.635   7.731
 3094SOL     OW20909   1.374   4.471   5.368
 3094SOL    HW120910   1.435   4.474   5.442
 3094SOL    HW220911   1.288   4.462   5.408
 3095SOL     OW20912   2.558   0.259   3.995
 3095SOL    HW120913   2.562   0.312   3.915
 3095SOL    HW220914   2.608   0.180   3.974
 3096SOL     OW20915   1.812   0.687   0.407
 3096SOL    HW120916   1.822   0.718   0.497
 3096SOL    HW220917   1.889   0.722   0.362
 3097SOL     OW20918   2.893   2.226  26.438
 3097SOL    HW120919   2.913   2.272  26.356
 3097SOL    HW220920   2.895   2.294  26.505
 3098SOL     OW20921   0.439   2.411   0.067
 3098SOL    HW120922   0.352   2.380   0.042
 3098SOL    HW220923   0.462   2.476   0.001
 3099SOL     OW20924   1.129   3.914   6.892
 3099SOL    HW120925   1.178   3.951   6.818
 3099SOL    HW220926   1.038   3.937   6.875
 3100SOL     OW20927   2.817   0.263  24.188
 3100SOL    HW120928   2.801   0.345  24.142
 3100SOL    HW220929   2.910   0.244  24.175
 3101SOL     OW20930   0.825   0.867  27.509
 3101SOL    HW120931   0.760   0.880  27.440
 3101SOL    HW220932   0.909   0.872  27.463
 3102SOL     OW20933   3.157   0.696  20.922
 3102SOL    HW120934   3.175   0.787  20.900
 3102SOL    HW220935   3.183   0.687  21.013
 3103SOL     OW20936   3.120   3.867  22.342
 3103SOL    HW120937   3.104   3.889  22.250
 3103SOL    HW220938   3.107   3.773  22.347
 3104SOL     OW20939   3.908   2.077  17.561
 3104SOL    HW120940   3.945   2.151  17.513
 3104SOL    HW220941   3.940   2.089  17.651
 3105SOL     OW20942   0.218   0.769  25.615
 3105SOL    HW120943   0.215   0.836  25.684
 3105SOL    HW220944   0.158   0.802  25.548
 3106SOL     OW20945   4.509   2.061  19.289
 3106SOL    HW120946   4.421   2.026  19.275
 3106SOL    HW220947   4.566   1.983  19.290
 3107SOL     OW20948   1.440   4.552   2.235
 3107SOL    HW120949   1.428   4.568   2.142
 3107SOL    HW220950   1.470   4.462   2.240
 3108SOL     OW20951   3.556   2.437   1.866
 3108SOL    HW120952   3.566   2.343   1.873
 3108SOL    HW220953   3.493   2.460   1.934
 3109SOL     OW20954   3.499   4.572   5.488
 3109SOL    HW120955   3.531   4.482   5.480
 3109SOL    HW220956   3.529   4.600   5.575
 3110SOL     OW20957   0.007   1.601   3.538
 3110SOL    HW120958   0.068   1.633   3.471
 3110SOL    HW220959   4.773   1.509   3.513
 3111SOL     OW20960   1.711   0.478   8.232
 3111SOL    HW120961   1.688   0.568   8.209
 3111SOL    HW220962   1.750   0.442   8.152
 3112SOL     OW20963   1.629   4.317   0.834
 3112SOL    HW120964   1.723   4.311   0.813
 3112SOL    HW220965   1.590   4.244   0.786
 3113SOL     OW20966   0.668   3.084  21.483
 3113SOL    HW120967   0.705   3.172  21.481
 3113SOL    HW220968   0.715   3.039  21.554
 3114SOL     OW20969   3.000   2.504   4.164
 3114SOL    HW120970   2.917   2.490   4.211
 3114SOL    HW220971   3.059   2.438   4.200
 3115SOL     OW20972   1.693   2.438   8.237
 3115SOL    HW120973   1.683   2.425   8.332
 3115SOL    HW220974   1.607   2.468   8.208
 3116SOL     OW20975   1.693   4.195  24.045
 3116SOL    HW120976   1.614   4.146  24.021
 3116SOL    HW220977   1.742   4.203  23.963
 3117SOL     OW20978   3.602   1.784   4.977
 3117SOL    HW120979   3.639   1.872   4.971
 3117SOL    HW220980   3.646   1.735   4.908
 3118SOL     OW20981   2.136   0.786  20.505
 3118SOL    HW120982   2.136   0.756  20.596
 3118SOL    HW220983   2.118   0.879  20.511
 3119SOL     OW20984   0.230   0.200  25.155
 3119SOL    HW120985   0.173   0.241  25.089
 3119SOL    HW220986   0.293   0.268  25.177
 3120SOL     OW20987   2.636   1.519   6.525
 3120SOL    HW120988   2.679   1.602   6.543
 3120SOL    HW220989   2.547   1.531   6.559
 3121SOL     OW20990   0.869   2.854   8.297
 3121SOL    HW120991   0.788   2.895   8.326
 3121SOL    HW220992   0.911   2.823   8.377
 3122SOL     OW20993   2.996   2.190   9.563
 3122SOL    HW120994   3.003   2.141   9.645
 3122SOL    HW220995   2.961   2.127   9.500
 3123SOL     OW20996   1.496   2.387  19.835
 3123SOL    HW120997   1.428   2.375  19.768
 3123SOL    HW220998   1.489   2.479  19.860
 3124SOL     OW20999   4.350   4.002  27.738
 3124SOL    HW121000   4.306   4.008  27.822
 3124SOL    HW221001   4.292   4.046  27.677
 3125SOL     OW21002   4.606   4.272   8.429
 3125SOL    HW121003   4.616   4.280   8.334
 3125SOL    HW221004   4.594   4.179   8.444
 3126SOL     OW21005   0.447   2.531   6.807
 3126SOL    HW121006   0.531   2.508   6.767
 3126SOL    HW221007   0.433   2.463   6.874
 3127SOL     OW21008   3.041   2.631  24.109
 3127SOL    HW121009   3.055   2.719  24.143
 3127SOL    HW221010   3.077   2.573  24.176
 3128SOL     OW21011   4.199   0.764   6.453
 3128SOL    HW121012   4.201   0.848   6.408
 3128SOL    HW221013   4.212   0.699   6.384
 3129SOL     OW21014   1.988   1.665   8.134
 3129SOL    HW121015   2.053   1.669   8.204
 3129SOL    HW221016   1.916   1.719   8.166
 3130SOL     OW21017   0.932   2.024  23.802
 3130SOL    HW121018   1.003   1.990  23.856
 3130SOL    HW221019   0.877   1.948  23.784
 3131SOL     OW21020   3.957   1.931  27.954
 3131SOL    HW121021   3.987   1.935  28.045
 3131SOL    HW221022   4.005   1.856  27.917
 3132SOL     OW21023   3.306   0.519   0.583
 3132SOL    HW121024   3.327   0.595   0.529
 3132SOL    HW221025   3.248   0.466   0.528
 3133SOL     OW21026   1.890   2.284   8.164
 3133SOL    HW121027   1.815   2.336   8.193
 3133SOL    HW221028   1.966   2.342   8.175
 3134SOL     OW21029   2.223   3.764  23.184
 3134SOL    HW121030   2.301   3.709  23.191
 3134SOL    HW221031   2.257   3.851  23.162
 3135SOL     OW21032   2.655   3.417  22.872
 3135SOL    HW121033   2.718   3.363  22.920
 3135SOL    HW221034   2.706   3.489  22.837
 3136SOL     OW21035   0.941   2.423   4.448
 3136SOL    HW121036   0.995   2.374   4.510
 3136SOL    HW221037   0.995   2.498   4.424
 3137SOL     OW21038   0.781   3.834  21.862
 3137SOL    HW121039   0.824   3.851  21.945
 3137SOL    HW221040   0.691   3.811  21.885
 3138SOL     OW21041   3.681   4.757  24.609
 3138SOL    HW121042   3.694   4.689  24.674
 3138SOL    HW221043   3.770   0.005  24.588
 3139SOL     OW21044   0.333   4.558   2.308
 3139SOL    HW121045   0.298   4.646   2.317
 3139SOL    HW221046   0.285   4.506   2.372
 3140SOL     OW21047   1.010   3.865   5.872
 3140SOL    HW121048   0.993   3.917   5.793
 3140SOL    HW221049   1.077   3.914   5.919
 3141SOL     OW21050   3.386   2.396   1.626
 3141SOL    HW121051   3.436   2.403   1.545
 3141SOL    HW221052   3.450   2.410   1.695
 3142SOL     OW21053   0.627   4.266  22.985
 3142SOL    HW121054   0.638   4.247  23.078
 3142SOL    HW221055   0.554   4.328  22.981
 3143SOL     OW21056   2.537   0.953   5.215
 3143SOL    HW121057   2.502   0.973   5.129
 3143SOL    HW221058   2.498   0.869   5.239
 3144SOL     OW21059   4.232   4.362   4.535
 3144SOL    HW121060   4.314   4.333   4.575
 3144SOL    HW221061   4.227   4.314   4.453
 3145SOL     OW21062   0.717   1.836  21.027
 3145SOL    HW121063   0.678   1.803  21.108
 3145SOL    HW221064   0.704   1.930  21.031
 3146SOL     OW21065   1.702   0.538   1.441
 3146SOL    HW121066   1.616   0.520   1.478
 3146SOL    HW221067   1.762   0.533   1.516
 3147SOL     OW21068   4.283   3.133   2.019
 3147SOL    HW121069   4.223   3.134   2.093
 3147SOL    HW221070   4.368   3.157   2.057
 3148SOL     OW21071   2.457   1.195   6.862
 3148SOL    HW121072   2.469   1.223   6.771
 3148SOL    HW221073   2.531   1.234   6.909
 3149SOL     OW21074   0.088   4.039  24.953
 3149SOL    HW121075   0.037   4.090  25.016
 3149SOL    HW221076   0.176   4.075  24.959
 3150SOL     OW21077   2.483   0.490   1.251
 3150SOL    HW121078   2.531   0.419   1.207
 3150SOL    HW221079   2.405   0.447   1.286
 3151SOL     OW21080   0.501   3.294  22.369
 3151SOL    HW121081   0.559   3.368  22.350
 3151SOL    HW221082   0.451   3.282  22.288
 3152SOL     OW21083   2.004   2.100  25.480
 3152SOL    HW121084   1.911   2.087  25.500
 3152SOL    HW221085   2.034   2.014  25.450
 3153SOL     OW21086   1.568   1.167   9.898
 3153SOL    HW121087   1.581   1.257   9.871
 3153SOL    HW221088   1.474   1.152   9.885
 3154SOL     OW21089   0.337   3.822  10.932
 3154SOL    HW121090   0.259   3.846  10.982
 3154SOL    HW221091   0.315   3.738  10.891
 3155SOL     OW21092   4.616   0.995  18.568
 3155SOL    HW121093   4.647   0.936  18.637
 3155SOL    HW221094   4.667   1.075  18.579
 3156SOL     OW21095   3.930   2.828   5.814
 3156SOL    HW121096   3.958   2.919   5.824
 3156SOL    HW221097   3.963   2.802   5.728
 3157SOL     OW21098   4.336   2.526   4.340
 3157SOL    HW121099   4.346   2.582   4.264
 3157SOL    HW221100   4.241   2.518   4.352
 3158SOL     OW21101   3.607   4.184   5.201
 3158SOL    HW121102   3.640   4.274   5.204
 3158SOL    HW221103   3.683   4.130   5.224
 3159SOL     OW21104   0.236   3.875  23.512
 3159SOL    HW121105   0.249   3.929  23.435
 3159SOL    HW221106   0.192   3.796  23.480
 3160SOL     OW21107   3.323   1.290   3.350
 3160SOL    HW121108   3.387   1.349   3.390
 3160SOL    HW221109   3.245   1.299   3.405
 3161SOL     OW21110   4.571   4.467   0.291
 3161SOL    HW121111   4.589   4.528   0.362
 3161SOL    HW221112   4.500   4.413   0.323
 3162SOL     OW21113   3.237   4.269   1.870
 3162SOL    HW121114   3.207   4.237   1.785
 3162SOL    HW221115   3.206   4.203   1.932
 3163SOL     OW21116   4.508   3.722  27.017
 3163SOL    HW121117   4.592   3.725  27.062
 3163SOL    HW221118   4.504   3.805  26.969
 3164SOL     OW21119   1.202   3.871   9.939
 3164SOL    HW121120   1.250   3.925   9.877
 3164SOL    HW221121   1.269   3.825   9.989
 3165SOL     OW21122   4.664   4.605   2.392
 3165SOL    HW121123   4.569   4.604   2.401
 3165SOL    HW221124   4.690   4.513   2.388
 3166SOL     OW21125   1.882   1.030   7.528
 3166SOL    HW121126   1.914   1.047   7.439
 3166SOL    HW221127   1.930   1.091   7.584
 3167SOL     OW21128   2.906   2.700  18.698
 3167SOL    HW121129   2.949   2.721  18.781
 3167SOL    HW221130   2.964   2.736  18.631
 3168SOL     OW21131   0.633   3.108   4.175
 3168SOL    HW121132   0.600   3.055   4.103
 3168SOL    HW221133   0.555   3.137   4.222
 3169SOL     OW21134   3.379   0.082   5.775
 3169SOL    HW121135   3.412   0.139   5.706
 3169SOL    HW221136   3.305   0.036   5.734
 3170SOL     OW21137   3.942   1.010  17.371
 3170SOL    HW121138   3.872   1.055  17.325
 3170SOL    HW221139   3.915   0.918  17.374
 3171SOL     OW21140   4.571   0.151   0.374
 3171SOL    HW121141   4.633   0.134   0.446
 3171SOL    HW221142   4.515   0.221   0.407
 3172SOL     OW21143   3.847   2.776  20.424
 3172SOL    HW121144   3.876   2.801  20.512
 3172SOL    HW221145   3.846   2.858  20.375
 3173SOL     OW21146   4.694   0.508  22.246
 3173SOL    HW121147   4.750   0.586  22.248
 3173SOL    HW221148   4.609   0.541  22.217
 3174SOL     OW21149   3.738   3.792  23.350
 3174SOL    HW121150   3.718   3.832  23.435
 3174SOL    HW221151   3.684   3.841  23.287
 3175SOL     OW21152   0.352   3.106  28.511
 3175SOL    HW121153   0.305   3.030   0.012
 3175SOL    HW221154   0.404   3.073  28.437
 3176SOL     OW21155   4.513   4.681  26.982
 3176SOL    HW121156   4.494   4.619  26.912
 3176SOL    HW221157   4.561   4.630  27.047
 3177SOL     OW21158   4.502   4.706  25.534
 3177SOL    HW121159   4.508   0.018  25.525
 3177SOL    HW221160   4.593   4.676  25.541
 3178SOL     OW21161   0.480   0.752   9.508
 3178SOL    HW121162   0.538   0.782   9.578
 3178SOL    HW221163   0.431   0.831   9.483
 3179SOL     OW21164   1.604   2.136   0.556
 3179SOL    HW121165   1.539   2.096   0.614
 3179SOL    HW221166   1.631   2.216   0.601
 3180SOL     OW21167   3.822   1.938   0.096
 3180SOL    HW121168   3.763   1.978   0.032
 3180SOL    HW221169   3.765   1.887   0.153
 3181SOL     OW21170   1.058   4.521  23.690
 3181SOL    HW121171   1.083   4.431  23.668
 3181SOL    HW221172   0.962   4.519  23.694
 3182SOL     OW21173   0.603   3.387   5.918
 3182SOL    HW121174   0.526   3.387   5.861
 3182SOL    HW221175   0.661   3.322   5.881
 3183SOL     OW21176   1.033   1.114   3.237
 3183SOL    HW121177   0.963   1.117   3.171
 3183SOL    HW221178   0.996   1.061   3.308
 3184SOL     OW21179   4.297   3.665  23.661
 3184SOL    HW121180   4.307   3.752  23.624
 3184SOL    HW221181   4.210   3.637  23.633
 3185SOL     OW21182   0.344   4.297  24.047
 3185SOL    HW121183   0.249   4.313  24.042
 3185SOL    HW221184   0.355   4.245  24.126
 3186SOL     OW21185   4.717   4.623  10.539
 3186SOL    HW121186   4.686   4.689  10.601
 3186SOL    HW221187   0.006   4.578  10.585
 3187SOL     OW21188   4.578   3.441  27.124
 3187SOL    HW121189   4.638   3.515  27.129
 3187SOL    HW221190   4.605   3.393  27.046
 3188SOL     OW21191   4.756   4.075   5.109
 3188SOL    HW121192   0.012   3.988   5.116
 3188SOL    HW221193   0.045   4.131   5.078
 3189SOL     OW21194   0.422   2.976  22.501
 3189SOL    HW121195   0.341   3.017  22.474
 3189SOL    HW221196   0.454   3.031  22.573
 3190SOL     OW21197   1.128   3.801  23.815
 3190SOL    HW121198   1.178   3.883  23.818
 3190SOL    HW221199   1.110   3.781  23.906
 3191SOL     OW21200   2.738   2.236   6.142
 3191SOL    HW121201   2.830   2.208   6.149
 3191SOL    HW221202   2.742   2.331   6.149
 3192SOL     OW21203   3.401   0.846   1.328
 3192SOL    HW121204   3.412   0.752   1.341
 3192SOL    HW221205   3.490   0.880   1.319
 3193SOL     OW21206   1.100   3.287  21.307
 3193SOL    HW121207   1.085   3.301  21.213
 3193SOL    HW221208   1.023   3.239  21.337
 3194SOL     OW21209   4.619   4.272  27.883
 3194SOL    HW121210   4.529   4.251  27.911
 3194SOL    HW221211   4.674   4.237  27.953
 3195SOL     OW21212   2.827   0.360   5.575
 3195SOL    HW121213   2.787   0.343   5.660
 3195SOL    HW221214   2.840   0.455   5.574
 3196SOL     OW21215   4.685   1.227   1.899
 3196SOL    HW121216   4.594   1.257   1.892
 3196SOL    HW221217   4.678   1.135   1.924
 3197SOL     OW21218   2.129   3.985  19.163
 3197SOL    HW121219   2.122   4.005  19.070
 3197SOL    HW221220   2.149   3.891  19.166
 3198SOL     OW21221   3.331   4.488  25.338
 3198SOL    HW121222   3.378   4.404  25.330
 3198SOL    HW221223   3.262   4.482  25.272
 3199SOL     OW21224   3.122   3.401  27.559
 3199SOL    HW121225   3.098   3.494  27.556
 3199SOL    HW221226   3.204   3.399  27.609
 3200SOL     OW21227   2.908   0.371   4.803
 3200SOL    HW121228   2.926   0.453   4.848
 3200SOL    HW221229   2.812   0.368   4.795
 3201SOL     OW21230   0.902   0.109   1.555
 3201SOL    HW121231   0.842   0.035   1.551
 3201SOL    HW221232   0.895   0.140   1.645
 3202SOL     OW21233   2.531   2.050   9.017
 3202SOL    HW121234   2.587   1.979   9.048
 3202SOL    HW221235   2.590   2.106   8.967
 3203SOL     OW21236   4.325   3.429   8.078
 3203SOL    HW121237   4.400   3.488   8.088
 3203SOL    HW221238   4.259   3.463   8.138
 3204SOL     OW21239   1.256   0.290  18.615
 3204SOL    HW121240   1.168   0.284  18.652
 3204SOL    HW221241   1.299   0.359  18.665
 3205SOL     OW21242   0.102   2.908   2.371
 3205SOL    HW121243   0.028   2.857   2.404
 3205SOL    HW221244   0.167   2.843   2.345
 3206SOL     OW21245   2.952   0.185   8.484
 3206SOL    HW121246   2.985   0.209   8.397
 3206SOL    HW221247   2.953   0.090   8.485
 3207SOL     OW21248   4.592   0.924  16.693
 3207SOL    HW121249   4.530   0.857  16.664
 3207SOL    HW221250   4.576   0.999  16.636
 3208SOL     OW21251   3.140   4.005  23.836
 3208SOL    HW121252   3.124   4.092  23.799
 3208SOL    HW221253   3.058   3.958  23.822
 3209SOL     OW21254   2.944   1.883  22.313
 3209SOL    HW121255   2.849   1.888  22.311
 3209SOL    HW221256   2.967   1.889  22.406
 3210SOL     OW21257   3.327   4.495  22.629
 3210SOL    HW121258   3.380   4.521  22.553
 3210SOL    HW221259   3.265   4.431  22.595
 3211SOL     OW21260   1.000   4.494   0.972
 3211SOL    HW121261   1.029   4.406   0.948
 3211SOL    HW221262   1.016   4.501   1.066
 3212SOL     OW21263   3.779   3.161   6.797
 3212SOL    HW121264   3.831   3.237   6.825
 3212SOL    HW221265   3.831   3.121   6.727
 3213SOL     OW21266   2.955   2.103   2.524
 3213SOL    HW121267   2.861   2.100   2.503
 3213SOL    HW221268   2.972   2.194   2.545
 3214SOL     OW21269   2.186   1.874   3.361
 3214SOL    HW121270   2.250   1.943   3.382
 3214SOL    HW221271   2.237   1.793   3.361
 3215SOL     OW21272   3.476   2.258  23.492
 3215SOL    HW121273   3.546   2.193  23.482
 3215SOL    HW221274   3.522   2.342  23.487
 3216SOL     OW21275   1.861   1.009  24.484
 3216SOL    HW121276   1.796   0.945  24.455
 3216SOL    HW221277   1.937   0.991  24.430
 3217SOL     OW21278   2.700   3.641   5.376
 3217SOL    HW121279   2.773   3.699   5.352
 3217SOL    HW221280   2.708   3.632   5.471
 3218SOL     OW21281   4.469   3.598  21.037
 3218SOL    HW121282   4.496   3.511  21.067
 3218SOL    HW221283   4.409   3.581  20.964
 3219SOL     OW21284   3.951   1.171   6.294
 3219SOL    HW121285   4.044   1.177   6.270
 3219SOL    HW221286   3.952   1.136   6.383
 3220SOL     OW21287   4.490   4.317  20.962
 3220SOL    HW121288   4.480   4.410  20.985
 3220SOL    HW221289   4.474   4.271  21.044
 3221SOL     OW21290   0.850   0.912  21.749
 3221SOL    HW121291   0.774   0.970  21.736
 3221SOL    HW221292   0.923   0.972  21.766
 3222SOL     OW21293   0.732   1.961   7.020
 3222SOL    HW121294   0.745   2.055   7.003
 3222SOL    HW221295   0.639   1.946   7.002
 3223SOL     OW21296   4.078   0.049   5.732
 3223SOL    HW121297   4.107   4.761   5.675
 3223SOL    HW221298   3.982   0.044   5.730
 3224SOL     OW21299   3.194   2.867  28.101
 3224SOL    HW121300   3.195   2.905  28.189
 3224SOL    HW221301   3.102   2.865  28.076
 3225SOL     OW21302   0.547   0.606  18.063
 3225SOL    HW121303   0.536   0.591  17.969
 3225SOL    HW221304   0.589   0.692  18.068
 3226SOL     OW21305   0.609   1.533   2.229
 3226SOL    HW121306   0.702   1.534   2.206
 3226SOL    HW221307   0.576   1.451   2.192
 3227SOL     OW21308   1.231   4.371   4.325
 3227SOL    HW121309   1.185   4.314   4.387
 3227SOL    HW221310   1.173   4.446   4.313
 3228SOL     OW21311   0.759   1.360  27.087
 3228SOL    HW121312   0.837   1.349  27.140
 3228SOL    HW221313   0.695   1.400  27.146
 3229SOL     OW21314   3.718   3.620   1.129
 3229SOL    HW121315   3.685   3.678   1.198
 3229SOL    HW221316   3.800   3.661   1.100
 3230SOL     OW21317   3.263   4.655   3.176
 3230SOL    HW121318   3.292   4.608   3.255
 3230SOL    HW221319   3.182   4.612   3.150
 3231SOL     OW21320   3.473   2.387   2.134
 3231SOL    HW121321   3.423   2.372   2.214
 3231SOL    HW221322   3.541   2.449   2.160
 3232SOL     OW21323   3.528   0.401   2.486
 3232SOL    HW121324   3.570   0.420   2.403
 3232SOL    HW221325   3.467   0.474   2.499
 3233SOL     OW21326   3.077   0.607   8.000
 3233SOL    HW121327   3.120   0.555   8.067
 3233SOL    HW221328   3.003   0.552   7.972
 3234SOL     OW21329   2.704   0.397   2.769
 3234SOL    HW121330   2.681   0.481   2.810
 3234SOL    HW221331   2.756   0.352   2.835
 3235SOL     OW21332   3.937   4.129   1.175
 3235SOL    HW121333   3.976   4.173   1.251
 3235SOL    HW221334   3.895   4.051   1.212
 3236SOL     OW21335   0.351   3.083  21.603
 3236SOL    HW121336   0.360   3.072  21.508
 3236SOL    HW221337   0.262   3.116  21.615
 3237SOL     OW21338   4.020   4.076  22.225
 3237SOL    HW121339   4.092   4.042  22.173
 3237SOL    HW221340   4.062   4.131  22.292
 3238SOL     OW21341   0.481   0.430   6.551
 3238SOL    HW121342   0.534   0.501   6.587
 3238SOL    HW221343   0.391   0.461   6.559
 3239SOL     OW21344   1.877   4.556   5.900
 3239SOL    HW121345   1.965   4.523   5.918
 3239SOL    HW221346   1.866   4.544   5.806
 3240SOL     OW21347   0.625   2.019  24.773
 3240SOL    HW121348   0.597   2.010  24.682
 3240SOL    HW221349   0.677   1.940  24.790
 3241SOL     OW21350   3.015   2.456  20.569
 3241SOL    HW121351   3.004   2.435  20.477
 3241SOL    HW221352   3.098   2.416  20.593
 3242SOL     OW21353   3.763   2.602  23.893
 3242SOL    HW121354   3.767   2.683  23.842
 3242SOL    HW221355   3.710   2.543  23.840
 3243SOL     OW21356   2.345   0.741   2.755
 3243SOL    HW121357   2.270   0.701   2.712
 3243SOL    HW221358   2.311   0.773   2.839
 3244SOL     OW21359   3.173   3.027  22.025
 3244SOL    HW121360   3.125   2.946  22.010
 3244SOL    HW221361   3.171   3.039  22.120
 3245SOL     OW21362   3.178   1.733  20.701
 3245SOL    HW121363   3.261   1.716  20.746
 3245SOL    HW221364   3.149   1.818  20.735
 3246SOL     OW21365   3.723   1.630  21.858
 3246SOL    HW121366   3.698   1.709  21.905
 3246SOL    HW221367   3.668   1.561  21.894
 3247SOL     OW21368   2.064   1.656   1.279
 3247SOL    HW121369   2.099   1.567   1.282
 3247SOL    HW221370   1.978   1.648   1.239
 3248SOL     OW21371   0.387   0.231  26.752
 3248SOL    HW121372   0.301   0.190  26.747
 3248SOL    HW221373   0.442   0.167  26.797
 3249SOL     OW21374   2.472   0.756  20.035
 3249SOL    HW121375   2.411   0.789  19.969
 3249SOL    HW221376   2.443   0.795  20.117
 3250SOL     OW21377   1.278   2.792  25.086
 3250SOL    HW121378   1.240   2.880  25.088
 3250SOL    HW221379   1.301   2.779  24.994
 3251SOL     OW21380   1.771   2.111  28.428
 3251SOL    HW121381   1.684   2.150  28.412
 3251SOL    HW221382   1.830   2.186  28.432
 3252SOL     OW21383   2.667   3.748  24.177
 3252SOL    HW121384   2.760   3.769  24.173
 3252SOL    HW221385   2.629   3.813  24.235
 3253SOL     OW21386   3.635   1.509   3.952
 3253SOL    HW121387   3.724   1.494   3.918
 3253SOL    HW221388   3.646   1.512   4.047
 3254SOL     OW21389   3.773   0.910  18.828
 3254SOL    HW121390   3.835   0.915  18.755
 3254SOL    HW221391   3.777   0.818  18.856
 3255SOL     OW21392   2.589   0.092   2.705
 3255SOL    HW121393   2.651   0.151   2.662
 3255SOL    HW221394   2.535   0.057   2.633
 3256SOL     OW21395   3.629   3.596   7.716
 3256SOL    HW121396   3.604   3.673   7.666
 3256SOL    HW221397   3.721   3.580   7.693
 3257SOL     OW21398   4.080   3.431   8.483
 3257SOL    HW121399   3.986   3.415   8.475
 3257SOL    HW221400   4.101   3.489   8.410
 3258SOL     OW21401   4.655   2.707  27.913
 3258SOL    HW121402   4.662   2.738  28.003
 3258SOL    HW221403   4.612   2.622  27.920
 3259SOL     OW21404   3.063   3.072  25.882
 3259SOL    HW121405   3.063   3.135  25.954
 3259SOL    HW221406   3.024   2.992  25.920
 3260SOL     OW21407   0.360   4.361  25.726
 3260SOL    HW121408   0.311   4.443  25.722
 3260SOL    HW221409   0.439   4.382  25.776
 3261SOL     OW21410   2.001   4.233  25.336
 3261SOL    HW121411   2.062   4.210  25.267
 3261SOL    HW221412   1.995   4.155  25.391
 3262SOL     OW21413   0.931   1.184  22.730
 3262SOL    HW121414   0.867   1.114  22.732
 3262SOL    HW221415   0.892   1.254  22.783
 3263SOL     OW21416   3.794   4.703  22.721
 3263SOL    HW121417   3.831   4.653  22.794
 3263SOL    HW221418   3.787   4.639  22.650
 3264SOL     OW21419   1.852   2.849  24.947
 3264SOL    HW121420   1.820   2.759  24.955
 3264SOL    HW221421   1.831   2.873  24.857
 3265SOL     OW21422   0.504   2.534  10.143
 3265SOL    HW121423   0.495   2.622  10.180
 3265SOL    HW221424   0.414   2.503  10.134
 3266SOL     OW21425   1.771   0.449  26.906
 3266SOL    HW121426   1.858   0.430  26.871
 3266SOL    HW221427   1.720   0.370  26.886
 3267SOL     OW21428   1.162   2.945  19.460
 3267SOL    HW121429   1.250   2.944  19.498
 3267SOL    HW221430   1.158   2.866  19.407
 3268SOL     OW21431   4.421   3.516   7.796
 3268SOL    HW121432   4.369   3.507   7.876
 3268SOL    HW221433   4.492   3.577   7.819
 3269SOL     OW21434   3.038   4.282  27.333
 3269SOL    HW121435   3.111   4.305  27.391
 3269SOL    HW221436   2.959   4.301  27.385
 3270SOL     OW21437   0.005   3.566   2.409
 3270SOL    HW121438   0.086   3.520   2.388
 3270SOL    HW221439   4.773   3.548   2.501
 3271SOL     OW21440   3.697   0.564   0.749
 3271SOL    HW121441   3.619   0.509   0.755
 3271SOL    HW221442   3.690   0.606   0.663
 3272SOL     OW21443   3.591   1.354   4.685
 3272SOL    HW121444   3.545   1.437   4.693
 3272SOL    HW221445   3.630   1.339   4.771
 3273SOL     OW21446   1.834   3.635  19.783
 3273SOL    HW121447   1.862   3.717  19.823
 3273SOL    HW221448   1.744   3.650  19.757
 3274SOL     OW21449   2.971   3.792   4.443
 3274SOL    HW121450   3.005   3.880   4.429
 3274SOL    HW221451   3.029   3.735   4.393
 3275SOL     OW21452   4.776   4.300   4.044
 3275SOL    HW121453   4.778   4.286   3.950
 3275SOL    HW221454   4.702   4.247   4.074
 3276SOL     OW21455   3.653   2.483  20.653
 3276SOL    HW121456   3.570   2.448  20.619
 3276SOL    HW221457   3.637   2.576  20.665
 3277SOL     OW21458   0.182   2.483  19.164
 3277SOL    HW121459   0.176   2.416  19.096
 3277SOL    HW221460   0.110   2.543  19.147
 3278SOL     OW21461   0.635   3.239   7.849
 3278SOL    HW121462   0.592   3.160   7.882
 3278SOL    HW221463   0.576   3.273   7.782
 3279SOL     OW21464   4.380   1.896  25.552
 3279SOL    HW121465   4.463   1.849  25.558
 3279SOL    HW221466   4.360   1.921  25.642
 3280SOL     OW21467   1.201   0.550  22.818
 3280SOL    HW121468   1.236   0.530  22.905
 3280SOL    HW221469   1.234   0.479  22.763
 3281SOL     OW21470   2.483   3.894  21.669
 3281SOL    HW121471   2.511   3.828  21.733
 3281SOL    HW221472   2.547   3.965  21.678
 3282SOL     OW21473   1.624   2.146  20.060
 3282SOL    HW121474   1.673   2.168  19.981
 3282SOL    HW221475   1.544   2.105  20.028
 3283SOL     OW21476   1.859   1.767   9.029
 3283SOL    HW121477   1.947   1.728   9.031
 3283SOL    HW221478   1.871   1.856   9.063
 3284SOL     OW21479   3.203   1.974  26.795
 3284SOL    HW121480   3.146   1.911  26.752
 3284SOL    HW221481   3.174   2.059  26.762
 3285SOL     OW21482   1.448   0.981   8.363
 3285SOL    HW121483   1.397   0.908   8.327
 3285SOL    HW221484   1.537   0.948   8.368
 3286SOL     OW21485   1.450   0.300   8.142
 3286SOL    HW121486   1.453   0.294   8.238
 3286SOL    HW221487   1.523   0.246   8.113
 3287SOL     OW21488   2.127   3.992   7.999
 3287SOL    HW121489   2.049   3.938   7.995
 3287SOL    HW221490   2.140   4.009   8.093
 3288SOL     OW21491   2.025   2.900  21.018
 3288SOL    HW121492   1.979   2.859  21.091
 3288SOL    HW221493   2.111   2.923  21.054
 3289SOL     OW21494   2.250   2.995  28.439
 3289SOL    HW121495   2.237   2.999   0.003
 3289SOL    HW221496   2.213   3.077  28.406
 3290SOL     OW21497   4.732   1.985   4.573
 3290SOL    HW121498   4.725   2.080   4.557
 3290SOL    HW221499   4.650   1.961   4.615
 3291SOL     OW21500   1.765   0.334  23.051
 3291SOL    HW121501   1.729   0.259  23.097
 3291SOL    HW221502   1.829   0.297  22.990
 3292SOL     OW21503   0.028   3.746  23.067
 3292SOL    HW121504   0.010   3.659  23.102
 3292SOL    HW221505   0.010   3.739  22.973
 3293SOL     OW21506   0.322   1.555   6.662
 3293SOL    HW121507   0.363   1.637   6.634
 3293SOL    HW221508   0.230   1.566   6.639
 3294SOL     OW21509   3.523   1.459   7.069
 3294SOL    HW121510   3.472   1.455   6.988
 3294SOL    HW221511   3.466   1.504   7.131
 3295SOL     OW21512   3.804   0.580  20.898
 3295SOL    HW121513   3.773   0.660  20.941
 3295SOL    HW221514   3.737   0.515  20.918
 3296SOL     OW21515   0.215   1.998   8.661
 3296SOL    HW121516   0.128   2.014   8.698
 3296SOL    HW221517   0.230   2.074   8.604
 3297SOL     OW21518   0.353   0.346   9.563
 3297SOL    HW121519   0.261   0.372   9.555
 3297SOL    HW221520   0.394   0.417   9.612
 3298SOL     OW21521   4.336   4.616   2.824
 3298SOL    HW121522   4.303   4.706   2.819
 3298SOL    HW221523   4.400   4.617   2.895
 3299SOL     OW21524   4.701   2.127  23.379
 3299SOL    HW121525   4.763   2.186  23.421
 3299SOL    HW221526   4.676   2.066  23.448
 3300SOL     OW21527   0.557   2.647   5.221
 3300SOL    HW121528   0.613   2.722   5.200
 3300SOL    HW221529   0.571   2.631   5.314
 3301SOL     OW21530   2.627   2.248  24.781
 3301SOL    HW121531   2.561   2.228  24.847
 3301SOL    HW221532   2.682   2.170  24.777
 3302SOL     OW21533   2.335   3.252   0.204
 3302SOL    HW121534   2.319   3.339   0.240
 3302SOL    HW221535   2.296   3.255   0.116
 3303SOL     OW21536   1.734   3.813  23.703
 3303SOL    HW121537   1.763   3.770  23.623
 3303SOL    HW221538   1.788   3.892  23.708
 3304SOL     OW21539   2.487   0.420   5.687
 3304SOL    HW121540   2.406   0.469   5.702
 3304SOL    HW221541   2.480   0.344   5.744
 3305SOL     OW21542   3.086   0.922  10.169
 3305SOL    HW121543   3.071   1.015  10.183
 3305SOL    HW221544   2.999   0.884  10.157
 3306SOL     OW21545   0.279   1.760  19.671
 3306SOL    HW121546   0.245   1.812  19.599
 3306SOL    HW221547   0.322   1.686  19.629
 3307SOL     OW21548   1.355   2.706  24.337
 3307SOL    HW121549   1.294   2.701  24.264
 3307SOL    HW221550   1.299   2.706  24.415
 3308SOL     OW21551   1.531   3.144   5.546
 3308SOL    HW121552   1.616   3.172   5.580
 3308SOL    HW221553   1.505   3.072   5.603
 3309SOL     OW21554   1.734   4.172   9.938
 3309SOL    HW121555   1.650   4.216   9.954
 3309SOL    HW221556   1.798   4.243   9.932
 3310SOL     OW21557   0.881   0.954  20.800
 3310SOL    HW121558   0.890   0.962  20.895
 3310SOL    HW221559   0.787   0.940  20.786
 3311SOL     OW21560   3.340   0.621   6.590
 3311SOL    HW121561   3.303   0.707   6.612
 3311SOL    HW221562   3.434   0.635   6.590
 3312SOL     OW21563   0.508   1.454   5.891
 3312SOL    HW121564   0.457   1.479   5.968
 3312SOL    HW221565   0.472   1.507   5.820
 3313SOL     OW21566   1.402   1.765   6.535
 3313SOL    HW121567   1.455   1.845   6.543
 3313SOL    HW221568   1.453   1.709   6.476
 3314SOL     OW21569   3.343   4.465   0.592
 3314SOL    HW121570   3.349   4.374   0.623
 3314SOL    HW221571   3.324   4.457   0.499
 3315SOL     OW21572   3.881   2.610   6.327
 3315SOL    HW121573   3.964   2.563   6.318
 3315SOL    HW221574   3.905   2.691   6.374
 3316SOL     OW21575   0.915   3.537   6.379
 3316SOL    HW121576   0.925   3.475   6.451
 3316SOL    HW221577   1.000   3.578   6.369
 3317SOL     OW21578   4.121   0.776  25.059
 3317SOL    HW121579   4.056   0.819  25.004
 3317SOL    HW221580   4.076   0.701  25.096
 3318SOL     OW21581   1.607   1.952  23.596
 3318SOL    HW121582   1.608   1.995  23.511
 3318SOL    HW221583   1.527   1.898  23.596
 3319SOL     OW21584   4.170   2.654  20.350
 3319SOL    HW121585   4.159   2.564  20.322
 3319SOL    HW221586   4.146   2.654  20.443
 3320SOL     OW21587   1.001   0.877   4.553
 3320SOL    HW121588   1.009   0.972   4.545
 3320SOL    HW221589   0.907   0.862   4.564
 3321SOL     OW21590   2.917   0.054  24.688
 3321SOL    HW121591   2.968   4.758  24.665
 3321SOL    HW221592   2.958   0.086  24.768
 3322SOL     OW21593   2.258   1.253  24.992
 3322SOL    HW121594   2.250   1.178  25.051
 3322SOL    HW221595   2.198   1.318  25.028
 3323SOL     OW21596   3.959   4.681   9.175
 3323SOL    HW121597   3.990   4.729   9.251
 3323SOL    HW221598   3.947   4.747   9.107
 3324SOL     OW21599   4.624   1.193  11.462
 3324SOL    HW121600   4.680   1.246  11.518
 3324SOL    HW221601   4.666   1.107  11.461
 3325SOL     OW21602   0.049   4.705   8.777
 3325SOL    HW121603   0.023   4.617   8.752
 3325SOL    HW221604   4.768   4.730   8.845
 3326SOL     OW21605   4.520   4.744  17.983
 3326SOL    HW121606   4.504   0.012  17.903
 3326SOL    HW221607   4.530   0.027  18.052
 3327SOL     OW21608   3.873   2.239  22.430
 3327SOL    HW121609   3.796   2.183  22.436
 3327SOL    HW221610   3.840   2.327  22.450
 3328SOL     OW21611   3.599   3.358  19.786
 3328SOL    HW121612   3.666   3.296  19.815
 3328SOL    HW221613   3.524   3.303  19.762
 3329SOL     OW21614   3.318   0.643   4.069
 3329SOL    HW121615   3.309   0.732   4.036
 3329SOL    HW221616   3.273   0.644   4.154
 3330SOL     OW21617   3.556   0.019  22.999
 3330SOL    HW121618   3.481   0.032  23.057
 3330SOL    HW221619   3.517   4.781  22.914
 3331SOL     OW21620   3.760   4.763  21.097
 3331SOL    HW121621   3.733   4.711  21.172
 3331SOL    HW221622   3.691   4.750  21.032
 3332SOL     OW21623   1.779   1.098   2.768
 3332SOL    HW121624   1.770   1.149   2.848
 3332SOL    HW221625   1.692   1.058   2.756
 3333SOL     OW21626   0.251   1.642   1.548
 3333SOL    HW121627   0.276   1.550   1.540
 3333SOL    HW221628   0.181   1.642   1.614
 3334SOL     OW21629   3.201   1.098   5.456
 3334SOL    HW121630   3.192   1.006   5.430
 3334SOL    HW221631   3.209   1.145   5.373
 3335SOL     OW21632   0.412   1.819   5.928
 3335SOL    HW121633   0.390   1.791   5.839
 3335SOL    HW221634   0.365   1.757   5.984
 3336SOL     OW21635   4.198   3.233  27.026
 3336SOL    HW121636   4.238   3.300  27.081
 3336SOL    HW221637   4.199   3.270  26.938
 3337SOL     OW21638   3.246   1.067  20.591
 3337SOL    HW121639   3.318   1.097  20.645
 3337SOL    HW221640   3.210   0.992  20.639
 3338SOL     OW21641   1.358   0.309   0.515
 3338SOL    HW121642   1.406   0.376   0.564
 3338SOL    HW221643   1.330   0.247   0.582
 3339SOL     OW21644   3.597   3.011  22.555
 3339SOL    HW121645   3.578   3.062  22.634
 3339SOL    HW221646   3.662   2.946  22.584
 3340SOL     OW21647   0.202   4.504   1.272
 3340SOL    HW121648   0.242   4.558   1.204
 3340SOL    HW221649   0.170   4.427   1.226
 3341SOL     OW21650   2.463   0.407  20.783
 3341SOL    HW121651   2.398   0.473  20.760
 3341SOL    HW221652   2.430   0.368  20.863
 3342SOL     OW21653   0.812   1.746   7.970
 3342SOL    HW121654   0.728   1.702   7.982
 3342SOL    HW221655   0.876   1.675   7.968
 3343SOL     OW21656   2.363   4.421  23.235
 3343SOL    HW121657   2.422   4.477  23.285
 3343SOL    HW221658   2.406   4.412  23.150
 3344SOL     OW21659   4.392   2.887   1.938
 3344SOL    HW121660   4.351   2.823   1.997
 3344SOL    HW221661   4.351   2.970   1.961
 3345SOL     OW21662   3.601   3.294  18.175
 3345SOL    HW121663   3.543   3.314  18.249
 3345SOL    HW221664   3.576   3.358  18.108
 3346SOL     OW21665   2.959   1.977   7.689
 3346SOL    HW121666   2.937   1.919   7.616
 3346SOL    HW221667   3.017   1.924   7.744
 3347SOL     OW21668   0.655   2.001  15.597
 3347SOL    HW121669   0.688   2.085  15.629
 3347SOL    HW221670   0.603   2.024  15.520
 3348SOL     OW21671   0.598   2.534   9.010
 3348SOL    HW121672   0.533   2.515   9.078
 3348SOL    HW221673   0.546   2.548   8.931
 3349SOL     OW21674   2.386   4.716   0.776
 3349SOL    HW121675   2.342   4.678   0.852
 3349SOL    HW221676   2.478   4.725   0.803
 3350SOL     OW21677   2.240   4.685   1.003
 3350SOL    HW121678   2.183   4.758   1.023
 3350SOL    HW221679   2.183   4.608   1.008
 3351SOL     OW21680   3.886   1.482   6.320
 3351SOL    HW121681   3.834   1.556   6.289
 3351SOL    HW221682   3.850   1.406   6.274
 3352SOL     OW21683   2.705   0.371  20.271
 3352SOL    HW121684   2.646   0.447  20.274
 3352SOL    HW221685   2.663   0.310  20.210
 3353SOL     OW21686   1.402   3.716  26.788
 3353SOL    HW121687   1.394   3.687  26.697
 3353SOL    HW221688   1.376   3.808  26.786
 3354SOL     OW21689   3.351   4.568   8.580
 3354SOL    HW121690   3.333   4.600   8.668
 3354SOL    HW221691   3.440   4.533   8.585
 3355SOL     OW21692   0.608   0.480  22.490
 3355SOL    HW121693   0.683   0.454  22.436
 3355SOL    HW221694   0.558   0.539  22.434
 3356SOL     OW21695   1.642   0.393  25.790
 3356SOL    HW121696   1.563   0.395  25.736
 3356SOL    HW221697   1.611   0.407  25.879
 3357SOL     OW21698   3.190   3.966  26.715
 3357SOL    HW121699   3.188   4.034  26.783
 3357SOL    HW221700   3.100   3.934  26.712
 3358SOL     OW21701   2.687   2.909   7.962
 3358SOL    HW121702   2.703   2.844   8.031
 3358SOL    HW221703   2.761   2.969   7.968
 3359SOL     OW21704   1.237   1.387   9.228
 3359SOL    HW121705   1.293   1.317   9.195
 3359SOL    HW221706   1.290   1.432   9.293
 3360SOL     OW21707   3.904   0.942   2.115
 3360SOL    HW121708   3.819   0.944   2.072
 3360SOL    HW221709   3.947   0.863   2.080
 3361SOL     OW21710   2.982   3.137  26.889
 3361SOL    HW121711   3.017   3.226  26.896
 3361SOL    HW221712   2.888   3.146  26.906
 3362SOL     OW21713   0.246   3.500   3.237
 3362SOL    HW121714   0.317   3.544   3.190
 3362SOL    HW221715   0.266   3.407   3.228
 3363SOL     OW21716   3.981   3.722   6.805
 3363SOL    HW121717   4.040   3.711   6.880
 3363SOL    HW221718   4.040   3.732   6.730
 3364SOL     OW21719   2.874   3.323  21.930
 3364SOL    HW121720   2.921   3.303  21.849
 3364SOL    HW221721   2.869   3.239  21.976
 3365SOL     OW21722   1.711   0.415   9.340
 3365SOL    HW121723   1.753   0.330   9.324
 3365SOL    HW221724   1.765   0.455   9.409
 3366SOL     OW21725   1.775   3.435   2.683
 3366SOL    HW121726   1.799   3.360   2.738
 3366SOL    HW221727   1.711   3.483   2.735
 3367SOL     OW21728   1.652   4.727   6.844
 3367SOL    HW121729   1.664   4.635   6.866
 3367SOL    HW221730   1.710   4.742   6.769
 3368SOL     OW21731   0.961   2.869  24.074
 3368SOL    HW121732   0.880   2.827  24.046
 3368SOL    HW221733   0.971   2.945  24.017
 3369SOL     OW21734   0.849   4.416  22.452
 3369SOL    HW121735   0.756   4.394  22.454
 3369SOL    HW221736   0.888   4.361  22.519
 3370SOL     OW21737   0.506   3.516   4.959
 3370SOL    HW121738   0.435   3.480   5.013
 3370SOL    HW221739   0.506   3.461   4.881
 3371SOL     OW21740   4.704   1.573  20.426
 3371SOL    HW121741   4.651   1.636  20.376
 3371SOL    HW221742   4.769   1.541  20.364
 3372SOL     OW21743   3.930   1.807   3.552
 3372SOL    HW121744   4.002   1.747   3.571
 3372SOL    HW221745   3.940   1.877   3.616
 3373SOL     OW21746   3.591   2.321   5.606
 3373SOL    HW121747   3.593   2.243   5.550
 3373SOL    HW221748   3.621   2.290   5.691
 3374SOL     OW21749   1.480   2.870   8.547
 3374SOL    HW121750   1.412   2.925   8.509
 3374SOL    HW221751   1.523   2.926   8.612
 3375SOL     OW21752   1.838   1.963   0.125
 3375SOL    HW121753   1.827   2.029   0.056
 3375SOL    HW221754   1.932   1.941   0.122
 3376SOL     OW21755   4.618   0.653  23.197
 3376SOL    HW121756   4.681   0.648  23.124
 3376SOL    HW221757   4.656   0.717  23.257
 3377SOL     OW21758   2.110   4.302  24.366
 3377SOL    HW121759   2.081   4.252  24.290
 3377SOL    HW221760   2.142   4.235  24.427
 3378SOL     OW21761   2.797   1.086   7.213
 3378SOL    HW121762   2.834   1.121   7.294
 3378SOL    HW221763   2.819   1.151   7.146
 3379SOL     OW21764   0.974   2.159   6.783
 3379SOL    HW121765   1.019   2.191   6.704
 3379SOL    HW221766   0.939   2.074   6.758
 3380SOL     OW21767   2.918   1.896  21.789
 3380SOL    HW121768   2.998   1.864  21.833
 3380SOL    HW221769   2.852   1.899  21.859
 3381SOL     OW21770   2.373   0.666  21.816
 3381SOL    HW121771   2.340   0.754  21.796
 3381SOL    HW221772   2.466   0.670  21.792
 3382SOL     OW21773   2.853   4.168   5.849
 3382SOL    HW121774   2.875   4.248   5.898
 3382SOL    HW221775   2.760   4.178   5.827
 3383SOL     OW21776   0.993   1.751   3.314
 3383SOL    HW121777   0.942   1.670   3.309
 3383SOL    HW221778   1.055   1.736   3.386
 3384SOL     OW21779   1.273   3.493  10.524
 3384SOL    HW121780   1.275   3.489  10.428
 3384SOL    HW221781   1.181   3.506  10.546
 3385SOL     OW21782   3.502   2.223   3.945
 3385SOL    HW121783   3.462   2.240   3.860
 3385SOL    HW221784   3.513   2.128   3.948
 3386SOL     OW21785   4.666   3.102  24.231
 3386SOL    HW121786   4.590   3.050  24.259
 3386SOL    HW221787   4.637   3.193  24.237
 3387SOL     OW21788   1.454   2.431  22.013
 3387SOL    HW121789   1.519   2.489  21.973
 3387SOL    HW221790   1.392   2.412  21.943
 3388SOL     OW21791   2.545   3.270   4.446
 3388SOL    HW121792   2.462   3.314   4.429
 3388SOL    HW221793   2.534   3.183   4.408
 3389SOL     OW21794   0.293   0.563  28.339
 3389SOL    HW121795   0.320   0.471  28.335
 3389SOL    HW221796   0.226   0.570  28.270
 3390SOL     OW21797   0.665   4.119  22.285
 3390SOL    HW121798   0.671   4.076  22.371
 3390SOL    HW221799   0.696   4.053  22.223
 3391SOL     OW21800   3.522   3.594   1.946
 3391SOL    HW121801   3.518   3.660   2.016
 3391SOL    HW221802   3.541   3.645   1.867
 3392SOL     OW21803   3.869   3.837   7.776
 3392SOL    HW121804   3.799   3.843   7.841
 3392SOL    HW221805   3.869   3.746   7.748
 3393SOL     OW21806   3.044   2.420  20.213
 3393SOL    HW121807   3.065   2.499  20.164
 3393SOL    HW221808   3.127   2.393  20.253
 3394SOL     OW21809   1.587   1.614  27.099
 3394SOL    HW121810   1.524   1.600  27.029
 3394SOL    HW221811   1.671   1.625  27.054
 3395SOL     OW21812   3.352   1.070  28.194
 3395SOL    HW121813   3.317   1.156  28.218
 3395SOL    HW221814   3.282   1.009  28.218
 3396SOL     OW21815   0.847   1.305   8.058
 3396SOL    HW121816   0.867   1.212   8.047
 3396SOL    HW221817   0.877   1.325   8.146
 3397SOL     OW21818   1.148   0.389   0.856
 3397SOL    HW121819   1.114   0.401   0.767
 3397SOL    HW221820   1.242   0.407   0.848
 3398SOL     OW21821   2.412   0.717  22.580
 3398SOL    HW121822   2.362   0.764  22.514
 3398SOL    HW221823   2.347   0.694  22.647
 3399SOL     OW21824   2.543   0.610  19.314
 3399SOL    HW121825   2.463   0.635  19.361
 3399SOL    HW221826   2.512   0.557  19.241
 3400SOL     OW21827   1.976   4.529   3.905
 3400SOL    HW121828   1.892   4.488   3.886
 3400SOL    HW221829   1.955   4.601   3.964
 3401SOL     OW21830   1.164   1.907  24.264
 3401SOL    HW121831   1.145   1.915  24.357
 3401SOL    HW221832   1.240   1.964  24.250
 3402SOL     OW21833   1.264   1.465  26.408
 3402SOL    HW121834   1.294   1.551  26.440
 3402SOL    HW221835   1.327   1.403  26.445
 3403SOL     OW21836   2.690   3.450  27.772
 3403SOL    HW121837   2.782   3.463  27.797
 3403SOL    HW221838   2.683   3.355  27.756
 3404SOL     OW21839   0.354   0.402  11.626
 3404SOL    HW121840   0.406   0.349  11.687
 3404SOL    HW221841   0.419   0.434  11.563
 3405SOL     OW21842   4.639   2.084   2.530
 3405SOL    HW121843   4.668   2.019   2.595
 3405SOL    HW221844   4.688   2.163   2.552
 3406SOL     OW21845   4.762   3.570   7.355
 3406SOL    HW121846   0.018   3.483   7.360
 3406SOL    HW221847   0.050   3.629   7.384
 3407SOL     OW21848   2.114   2.368  27.198
 3407SOL    HW121849   2.051   2.343  27.266
 3407SOL    HW221850   2.199   2.342  27.233
 3408SOL     OW21851   3.156   4.446  23.645
 3408SOL    HW121852   3.243   4.469  23.613
 3408SOL    HW221853   3.095   4.499  23.593
 3409SOL     OW21854   0.525   3.457   9.221
 3409SOL    HW121855   0.560   3.507   9.147
 3409SOL    HW221856   0.596   3.455   9.284
 3410SOL     OW21857   4.588   1.813  26.978
 3410SOL    HW121858   4.654   1.825  26.909
 3410SOL    HW221859   4.556   1.724  26.965
 3411SOL     OW21860   2.419   2.963   5.997
 3411SOL    HW121861   2.345   2.996   6.048
 3411SOL    HW221862   2.485   3.032   6.003
 3412SOL     OW21863   4.412   1.876   0.464
 3412SOL    HW121864   4.470   1.858   0.390
 3412SOL    HW221865   4.468   1.870   0.541
 3413SOL     OW21866   0.669   4.006   5.990
 3413SOL    HW121867   0.642   3.952   5.916
 3413SOL    HW221868   0.734   4.066   5.953
 3414SOL     OW21869   1.427   3.825   1.049
 3414SOL    HW121870   1.378   3.814   0.968
 3414SOL    HW221871   1.511   3.862   1.021
 3415SOL     OW21872   3.949   4.775  10.267
 3415SOL    HW121873   3.978   0.016  10.179
 3415SOL    HW221874   3.863   0.034  10.275
 3416SOL     OW21875   0.835   0.605  28.274
 3416SOL    HW121876   0.789   0.649  28.202
 3416SOL    HW221877   0.926   0.601  28.245
 3417SOL     OW21878   0.197   0.667  26.737
 3417SOL    HW121879   0.239   0.591  26.777
 3417SOL    HW221880   0.133   0.697  26.802
 3418SOL     OW21881   2.900   0.640  20.852
 3418SOL    HW121882   2.988   0.676  20.862
 3418SOL    HW221883   2.904   0.592  20.769
 3419SOL     OW21884   2.145   2.947  27.764
 3419SOL    HW121885   2.057   2.951  27.801
 3419SOL    HW221886   2.148   3.020  27.701
 3420SOL     OW21887   2.524   2.943   5.359
 3420SOL    HW121888   2.449   2.910   5.409
 3420SOL    HW221889   2.552   2.868   5.306
 3421SOL     OW21890   4.103   0.260  22.726
 3421SOL    HW121891   4.036   0.297  22.669
 3421SOL    HW221892   4.139   0.186  22.677
 3422SOL     OW21893   0.759   0.613   0.357
 3422SOL    HW121894   0.776   0.519   0.357
 3422SOL    HW221895   0.674   0.622   0.315
 3423SOL     OW21896   2.659   0.837  24.187
 3423SOL    HW121897   2.668   0.794  24.273
 3423SOL    HW221898   2.607   0.775  24.135
 3424SOL     OW21899   0.692   0.349   4.740
 3424SOL    HW121900   0.718   0.317   4.827
 3424SOL    HW221901   0.770   0.391   4.706
 3425SOL     OW21902   0.355   0.141   0.244
 3425SOL    HW121903   0.420   0.087   0.200
 3425SOL    HW221904   0.290   0.160   0.176
 3426SOL     OW21905   2.674   0.451  25.817
 3426SOL    HW121906   2.738   0.381  25.825
 3426SOL    HW221907   2.699   0.514  25.885
 3427SOL     OW21908   4.688   4.094   3.340
 3427SOL    HW121909   4.666   4.050   3.421
 3427SOL    HW221910   4.736   4.028   3.289
 3428SOL     OW21911   0.142   1.244  22.921
 3428SOL    HW121912   0.065   1.211  22.873
 3428SOL    HW221913   0.184   1.165  22.955
 3429SOL     OW21914   2.508   0.818  17.088
 3429SOL    HW121915   2.419   0.791  17.112
 3429SOL    HW221916   2.512   0.805  16.993
 3430SOL     OW21917   4.712   1.635   0.552
 3430SOL    HW121918   4.782   1.573   0.570
 3430SOL    HW221919   4.643   1.613   0.614
 3431SOL     OW21920   2.939   3.543   6.652
 3431SOL    HW121921   2.960   3.458   6.692
 3431SOL    HW221922   2.929   3.603   6.725
 3432SOL     OW21923   0.225   3.718   1.148
 3432SOL    HW121924   0.259   3.653   1.209
 3432SOL    HW221925   0.147   3.753   1.191
 3433SOL     OW21926   0.270   2.000   7.046
 3433SOL    HW121927   0.187   2.046   7.034
 3433SOL    HW221928   0.248   1.924   7.101
 3434SOL     OW21929   4.407   3.094   4.860
 3434SOL    HW121930   4.336   3.115   4.920
 3434SOL    HW221931   4.381   3.010   4.821
 3435SOL     OW21932   2.352   0.614  24.311
 3435SOL    HW121933   2.407   0.537  24.303
 3435SOL    HW221934   2.274   0.593  24.260
 3436SOL     OW21935   3.778   0.349  27.378
 3436SOL    HW121936   3.698   0.297  27.387
 3436SOL    HW221937   3.780   0.405  27.456
 3437SOL     OW21938   0.263   0.822  19.109
 3437SOL    HW121939   0.182   0.783  19.077
 3437SOL    HW221940   0.320   0.748  19.127
 3438SOL     OW21941   2.343   0.667  22.090
 3438SOL    HW121942   2.354   0.670  21.995
 3438SOL    HW221943   2.249   0.656  22.104
 3439SOL     OW21944   1.208   2.261  24.401
 3439SOL    HW121945   1.258   2.180  24.392
 3439SOL    HW221946   1.126   2.244  24.356
 3440SOL     OW21947   0.111   0.296   1.236
 3440SOL    HW121948   0.075   0.264   1.153
 3440SOL    HW221949   0.205   0.303   1.220
 3441SOL     OW21950   0.864   3.583   2.735
 3441SOL    HW121951   0.916   3.549   2.662
 3441SOL    HW221952   0.917   3.655   2.770
 3442SOL     OW21953   1.921   0.655  22.757
 3442SOL    HW121954   1.854   0.603  22.801
 3442SOL    HW221955   1.941   0.725  22.818
 3443SOL     OW21956   4.539   2.808  19.237
 3443SOL    HW121957   4.502   2.893  19.214
 3443SOL    HW221958   4.465   2.747  19.231
 3444SOL     OW21959   2.059   0.816  23.541
 3444SOL    HW121960   2.068   0.721  23.551
 3444SOL    HW221961   2.129   0.840  23.480
 3445SOL     OW21962   3.489   3.045  19.860
 3445SOL    HW121963   3.415   3.103  19.881
 3445SOL    HW221964   3.553   3.062  19.929
 3446SOL     OW21965   0.318   1.384  28.206
 3446SOL    HW121966   0.400   1.357  28.166
 3446SOL    HW221967   0.327   1.363  28.299
 3447SOL     OW21968   2.004   0.700  26.111
 3447SOL    HW121969   2.069   0.749  26.162
 3447SOL    HW221970   1.996   0.616  26.156
 3448SOL     OW21971   4.016   0.527  25.508
 3448SOL    HW121972   4.014   0.451  25.451
 3448SOL    HW221973   4.090   0.580  25.476
 3449SOL     OW21974   0.092   0.075   3.562
 3449SOL    HW121975   0.035   0.007   3.525
 3449SOL    HW221976   0.179   0.035   3.562
 3450SOL     OW21977   1.127   3.688  20.603
 3450SOL    HW121978   1.058   3.753  20.617
 3450SOL    HW221979   1.208   3.738  20.612
 3451SOL     OW21980   4.332   0.842  22.018
 3451SOL    HW121981   4.261   0.822  21.958
 3451SOL    HW221982   4.312   0.930  22.051
 3452SOL     OW21983   1.111   2.786   5.359
 3452SOL    HW121984   1.183   2.838   5.395
 3452SOL    HW221985   1.063   2.848   5.304
 3453SOL     OW21986   0.646   4.516  25.651
 3453SOL    HW121987   0.617   4.507  25.741
 3453SOL    HW221988   0.647   4.426  25.617
 3454SOL     OW21989   1.811   1.695   9.372
 3454SOL    HW121990   1.906   1.705   9.384
 3454SOL    HW221991   1.775   1.780   9.397
 3455SOL     OW21992   3.984   0.097   3.703
 3455SOL    HW121993   3.976   0.098   3.608
 3455SOL    HW221994   4.045   0.168   3.723
 3456SOL     OW21995   0.833   2.879  22.262
 3456SOL    HW121996   0.750   2.843  22.294
 3456SOL    HW221997   0.812   2.969  22.238
 3457SOL     OW21998   1.342   1.322  24.957
 3457SOL    HW121999   1.271   1.333  24.894
 3457SOL    HW222000   1.406   1.268  24.912
 3458SOL     OW22001   0.672   4.714   3.448
 3458SOL    HW122002   0.639   4.626   3.469
 3458SOL    HW222003   0.628   4.771   3.510
 3459SOL     OW22004   3.388   1.892   5.105
 3459SOL    HW122005   3.400   1.876   5.199
 3459SOL    HW222006   3.463   1.850   5.064
 3460SOL     OW22007   3.936   0.979   8.354
 3460SOL    HW122008   3.860   0.942   8.398
 3460SOL    HW222009   4.011   0.937   8.396
 3461SOL     OW22010   2.813   1.540  26.389
 3461SOL    HW122011   2.754   1.465  26.389
 3461SOL    HW222012   2.882   1.517  26.452
 3462SOL     OW22013   3.910   2.363   4.795
 3462SOL    HW122014   3.822   2.326   4.787
 3462SOL    HW222015   3.918   2.383   4.888
 3463SOL     OW22016   2.055   2.736  21.521
 3463SOL    HW122017   2.018   2.701  21.602
 3463SOL    HW222018   1.986   2.793  21.486
 3464SOL     OW22019   3.293   0.877  25.163
 3464SOL    HW122020   3.206   0.857  25.198
 3464SOL    HW222021   3.349   0.808  25.198
 3465SOL     OW22022   2.257   0.264  24.301
 3465SOL    HW122023   2.348   0.284  24.325
 3465SOL    HW222024   2.262   0.179  24.258
 3466SOL     OW22025   0.426   1.116   5.130
 3466SOL    HW122026   0.451   1.073   5.048
 3466SOL    HW222027   0.334   1.137   5.118
 3467SOL     OW22028   0.121   3.021  24.543
 3467SOL    HW122029   0.188   2.997  24.608
 3467SOL    HW222030   0.165   3.011  24.459
 3468SOL     OW22031   2.070   0.196  24.535
 3468SOL    HW122032   2.099   0.203  24.444
 3468SOL    HW222033   1.998   0.259  24.542
 3469SOL     OW22034   1.488   2.838  25.258
 3469SOL    HW122035   1.558   2.777  25.235
 3469SOL    HW222036   1.416   2.817  25.198
 3470SOL     OW22037   0.122   3.652  22.223
 3470SOL    HW122038   0.130   3.558  22.236
 3470SOL    HW222039   0.142   3.690  22.309
 3471SOL     OW22040   2.033   4.196  18.355
 3471SOL    HW122041   2.026   4.274  18.410
 3471SOL    HW222042   2.114   4.209  18.306
 3472SOL     OW22043   2.956   3.089   7.088
 3472SOL    HW122044   2.934   3.173   7.129
 3472SOL    HW222045   3.049   3.077   7.107
 3473SOL     OW22046   2.675   4.518  22.645
 3473SOL    HW122047   2.640   4.603  22.673
 3473SOL    HW222048   2.744   4.540  22.582
 3474SOL     OW22049   0.817   0.811  22.123
 3474SOL    HW122050   0.892   0.857  22.086
 3474SOL    HW222051   0.790   0.865  22.198
 3475SOL     OW22052   1.696   0.149   8.095
 3475SOL    HW122053   1.723   0.179   8.008
 3475SOL    HW222054   1.770   0.173   8.152
 3476SOL     OW22055   0.526   0.030  11.607
 3476SOL    HW122056   0.499   0.097  11.671
 3476SOL    HW222057   0.560   0.080  11.533
 3477SOL     OW22058   4.126   4.696  27.027
 3477SOL    HW122059   4.173   4.739  26.955
 3477SOL    HW222060   4.164   4.734  27.106
 3478SOL     OW22061   2.773   2.898  10.013
 3478SOL    HW122062   2.756   2.904  10.107
 3478SOL    HW222063   2.798   2.806  10.000
 3479SOL     OW22064   4.277   0.181  10.190
 3479SOL    HW122065   4.249   0.270  10.169
 3479SOL    HW222066   4.221   0.125  10.137
 3480SOL     OW22067   3.056   2.802  22.062
 3480SOL    HW122068   3.104   2.768  21.987
 3480SOL    HW222069   3.067   2.735  22.130
 3481SOL     OW22070   4.370   2.167  21.872
 3481SOL    HW122071   4.341   2.249  21.912
 3481SOL    HW222072   4.321   2.099  21.917
 3482SOL     OW22073   3.146   2.754  18.132
 3482SOL    HW122074   3.061   2.710  18.139
 3482SOL    HW222075   3.189   2.710  18.058
 3483SOL     OW22076   4.592   2.779   3.009
 3483SOL    HW122077   4.504   2.741   3.006
 3483SOL    HW222078   4.577   2.873   2.997
 3484SOL     OW22079   4.634   4.648   9.764
 3484SOL    HW122080   4.608   4.555   9.760
 3484SOL    HW222081   4.708   4.650   9.824
 3485SOL     OW22082   1.331   0.955   5.210
 3485SOL    HW122083   1.248   0.961   5.162
 3485SOL    HW222084   1.308   0.970   5.301
 3486SOL     OW22085   0.985   1.342   2.553
 3486SOL    HW122086   0.915   1.396   2.588
 3486SOL    HW222087   1.044   1.328   2.627
 3487SOL     OW22088   3.902   1.899  21.134
 3487SOL    HW122089   3.902   1.918  21.228
 3487SOL    HW222090   3.901   1.985  21.092
 3488SOL     OW22091   1.955   1.287  25.587
 3488SOL    HW122092   2.022   1.354  25.602
 3488SOL    HW222093   1.872   1.333  25.602
 3489SOL     OW22094   2.139   3.093  23.536
 3489SOL    HW122095   2.101   3.180  23.535
 3489SOL    HW222096   2.096   3.049  23.609
 3490SOL     OW22097   3.712   4.141  25.473
 3490SOL    HW122098   3.680   4.136  25.563
 3490SOL    HW222099   3.747   4.230  25.465
 3491SOL     OW22100   4.252   1.109  27.329
 3491SOL    HW122101   4.251   1.204  27.323
 3491SOL    HW222102   4.291   1.090  27.414
 3492SOL     OW22103   0.625   3.310  24.883
 3492SOL    HW122104   0.597   3.353  24.802
 3492SOL    HW222105   0.689   3.246  24.855
 3493SOL     OW22106   0.368   1.123  26.741
 3493SOL    HW122107   0.440   1.062  26.724
 3493SOL    HW222108   0.408   1.209  26.734
 3494SOL     OW22109   2.351   1.241   6.050
 3494SOL    HW122110   2.338   1.197   5.966
 3494SOL    HW222111   2.303   1.324   6.041
 3495SOL     OW22112   1.542   2.958   4.532
 3495SOL    HW122113   1.535   2.943   4.627
 3495SOL    HW222114   1.575   2.875   4.498
 3496SOL     OW22115   0.187   1.830   5.686
 3496SOL    HW122116   0.104   1.859   5.648
 3496SOL    HW222117   0.245   1.816   5.612
 3497SOL     OW22118   0.175   4.327   4.410
 3497SOL    HW122119   0.189   4.243   4.366
 3497SOL    HW222120   0.221   4.318   4.494
 3498SOL     OW22121   0.455   3.886   1.017
 3498SOL    HW122122   0.442   3.842   1.102
 3498SOL    HW222123   0.503   3.822   0.965
 3499SOL     OW22124   0.792   1.692  10.449
 3499SOL    HW122125   0.867   1.698  10.508
 3499SOL    HW222126   0.758   1.782  10.445
 3500SOL     OW22127   0.576   1.428   6.596
 3500SOL    HW122128   0.494   1.472   6.619
 3500SOL    HW222129   0.644   1.494   6.610
 3501SOL     OW22130   3.009   2.695   1.605
 3501SOL    HW122131   2.977   2.720   1.518
 3501SOL    HW222132   3.045   2.607   1.592
 3502SOL     OW22133   1.199   0.579   8.004
 3502SOL    HW122134   1.107   0.555   7.994
 3502SOL    HW222135   1.205   0.667   7.966
 3503SOL     OW22136   3.582   0.975  11.579
 3503SOL    HW122137   3.499   1.009  11.546
 3503SOL    HW222138   3.648   1.022  11.529
 3504SOL     OW22139   0.176   2.186   6.137
 3504SOL    HW122140   0.112   2.211   6.070
 3504SOL    HW222141   0.242   2.135   6.090
 3505SOL     OW22142   0.334   1.805   5.455
 3505SOL    HW122143   0.282   1.725   5.447
 3505SOL    HW222144   0.418   1.783   5.414
 3506SOL     OW22145   0.979   2.901   7.644
 3506SOL    HW122146   0.917   2.931   7.711
 3506SOL    HW222147   1.065   2.909   7.685
 3507SOL     OW22148   1.361   0.775   6.117
 3507SOL    HW122149   1.413   0.697   6.097
 3507SOL    HW222150   1.416   0.848   6.091
 3508SOL     OW22151   2.653   3.034  20.445
 3508SOL    HW122152   2.633   3.127  20.454
 3508SOL    HW222153   2.741   3.025  20.481
 3509SOL     OW22154   2.637   0.594   4.631
 3509SOL    HW122155   2.573   0.666   4.634
 3509SOL    HW222156   2.648   0.567   4.722
 3510SOL     OW22157   2.252   0.814  26.207
 3510SOL    HW122158   2.308   0.775  26.141
 3510SOL    HW222159   2.286   0.780  26.290
 3511SOL     OW22160   0.873   1.737   3.580
 3511SOL    HW122161   0.895   1.830   3.575
 3511SOL    HW222162   0.957   1.692   3.590
 3512SOL     OW22163   3.795   1.485  27.497
 3512SOL    HW122164   3.764   1.441  27.576
 3512SOL    HW222165   3.793   1.417  27.429
 3513SOL     OW22166   0.476   3.270  22.642
 3513SOL    HW122167   0.549   3.216  22.674
 3513SOL    HW222168   0.488   3.273  22.547
 3514SOL     OW22169   3.337   2.396  27.299
 3514SOL    HW122170   3.289   2.461  27.351
 3514SOL    HW222171   3.381   2.341  27.364
 3515SOL     OW22172   4.290   1.878   5.023
 3515SOL    HW122173   4.219   1.872   4.960
 3515SOL    HW222174   4.255   1.836   5.102
 3516SOL     OW22175   1.531   0.563   6.046
 3516SOL    HW122176   1.587   0.598   5.977
 3516SOL    HW222177   1.589   0.511   6.101
 3517SOL     OW22178   0.824   0.497   2.509
 3517SOL    HW122179   0.825   0.541   2.425
 3517SOL    HW222180   0.826   0.568   2.574
 3518SOL     OW22181   2.400   2.167   5.977
 3518SOL    HW122182   2.368   2.077   5.969
 3518SOL    HW222183   2.495   2.159   5.973
 3519SOL     OW22184   3.503   4.123  27.722
 3519SOL    HW122185   3.461   4.080  27.648
 3519SOL    HW222186   3.474   4.214  27.716
 3520SOL     OW22187   4.095   3.542  22.163
 3520SOL    HW122188   4.132   3.552  22.251
 3520SOL    HW222189   4.140   3.466  22.126
 3521SOL     OW22190   3.771   0.620   6.151
 3521SOL    HW122191   3.690   0.610   6.201
 3521SOL    HW222192   3.833   0.562   6.195
 3522SOL     OW22193   0.425   3.181   1.389
 3522SOL    HW122194   0.358   3.137   1.442
 3522SOL    HW222195   0.381   3.199   1.306
 3523SOL     OW22196   1.504   2.781   4.177
 3523SOL    HW122197   1.437   2.716   4.154
 3523SOL    HW222198   1.510   2.837   4.099
 3524SOL     OW22199   3.162   0.780  25.768
 3524SOL    HW122200   3.224   0.818  25.706
 3524SOL    HW222201   3.203   0.795  25.854
 3525SOL     OW22202   3.800   1.868   6.508
 3525SOL    HW122203   3.784   1.937   6.444
 3525SOL    HW222204   3.778   1.787   6.462
 3526SOL     OW22205   4.463   0.852   9.365
 3526SOL    HW122206   4.523   0.784   9.398
 3526SOL    HW222207   4.521   0.920   9.332
 3527SOL     OW22208   4.325   0.085   3.654
 3527SOL    HW122209   4.373   0.050   3.729
 3527SOL    HW222210   4.301   0.174   3.681
 3528SOL     OW22211   3.169   2.765   0.101
 3528SOL    HW122212   3.096   2.746   0.160
 3528SOL    HW222213   3.245   2.727   0.144
 3529SOL     OW22214   4.436   1.038   3.515
 3529SOL    HW122215   4.453   1.023   3.422
 3529SOL    HW222216   4.403   1.127   3.520
 3530SOL     OW22217   2.971   0.125   6.750
 3530SOL    HW122218   3.007   0.043   6.785
 3530SOL    HW222219   2.997   0.191   6.814
 3531SOL     OW22220   2.312   3.342  20.594
 3531SOL    HW122221   2.357   3.426  20.601
 3531SOL    HW222222   2.360   3.284  20.654
 3532SOL     OW22223   0.718   0.022  24.572
 3532SOL    HW122224   0.787   0.083  24.598
 3532SOL    HW222225   0.643   0.078  24.553
 3533SOL     OW22226   3.292   3.965  23.297
 3533SOL    HW122227   3.299   4.031  23.229
 3533SOL    HW222228   3.349   3.998  23.368
 3534SOL     OW22229   1.633   2.357  28.180
 3534SOL    HW122230   1.592   2.399  28.104
 3534SOL    HW222231   1.584   2.275  28.190
 3535SOL     OW22232   2.916   0.999  17.965
 3535SOL    HW122233   2.865   0.996  17.884
 3535SOL    HW222234   2.850   0.995  18.034
 3536SOL     OW22235   1.367   4.278   1.326
 3536SOL    HW122236   1.380   4.236   1.240
 3536SOL    HW222237   1.272   4.292   1.331
 3537SOL     OW22238   0.969   4.125  10.565
 3537SOL    HW122239   0.949   4.202  10.511
 3537SOL    HW222240   0.884   4.097  10.599
 3538SOL     OW22241   0.246   2.110  20.250
 3538SOL    HW122242   0.304   2.052  20.200
 3538SOL    HW222243   0.165   2.060  20.260
 3539SOL     OW22244   3.420   0.578   1.423
 3539SOL    HW122245   3.329   0.554   1.405
 3539SOL    HW222246   3.427   0.578   1.518
 3540SOL     OW22247   4.564   2.435   6.658
 3540SOL    HW122248   4.571   2.463   6.749
 3540SOL    HW222249   4.644   2.466   6.616
 3541SOL     OW22250   4.368   3.098  22.844
 3541SOL    HW122251   4.281   3.071  22.872
 3541SOL    HW222252   4.421   3.018  22.850
 3542SOL     OW22253   3.535   1.111  25.761
 3542SOL    HW122254   3.569   1.199  25.741
 3542SOL    HW222255   3.465   1.097  25.697
 3543SOL     OW22256   1.123   3.640  27.226
 3543SOL    HW122257   1.195   3.587  27.259
 3543SOL    HW222258   1.085   3.588  27.156
 3544SOL     OW22259   3.153   0.681  26.674
 3544SOL    HW122260   3.141   0.668  26.768
 3544SOL    HW222261   3.073   0.647  26.635
 3545SOL     OW22262   1.892   1.124  22.428
 3545SOL    HW122263   1.954   1.196  22.419
 3545SOL    HW222264   1.904   1.071  22.349
 3546SOL     OW22265   2.595   0.158  22.731
 3546SOL    HW122266   2.681   0.161  22.773
 3546SOL    HW222267   2.539   0.212  22.788
 3547SOL     OW22268   1.493   4.319  21.071
 3547SOL    HW122269   1.469   4.393  21.016
 3547SOL    HW222270   1.539   4.358  21.146
 3548SOL     OW22271   4.679   1.944   8.024
 3548SOL    HW122272   4.635   1.985   8.098
 3548SOL    HW222273   4.771   1.937   8.051
 3549SOL     OW22274   3.322   4.423   2.377
 3549SOL    HW122275   3.250   4.485   2.377
 3549SOL    HW222276   3.372   4.443   2.298
 3550SOL     OW22277   2.326   4.174  26.297
 3550SOL    HW122278   2.276   4.096  26.324
 3550SOL    HW222279   2.347   4.157  26.205
 3551SOL     OW22280   3.051   1.301   5.189
 3551SOL    HW122281   3.025   1.212   5.164
 3551SOL    HW222282   2.975   1.355   5.168
 3552SOL     OW22283   4.606   4.312   2.833
 3552SOL    HW122284   4.551   4.255   2.887
 3552SOL    HW222285   4.548   4.341   2.763
 3553SOL     OW22286   4.096   2.549  22.516
 3553SOL    HW122287   4.032   2.620  22.511
 3553SOL    HW222288   4.065   2.494  22.588
 3554SOL     OW22289   4.593   3.213   7.422
 3554SOL    HW122290   4.593   3.123   7.389
 3554SOL    HW222291   4.557   3.206   7.511
 3555SOL     OW22292   3.404   4.164   2.310
 3555SOL    HW122293   3.410   4.130   2.399
 3555SOL    HW222294   3.366   4.251   2.320
 3556SOL     OW22295   1.565   2.016  21.967
 3556SOL    HW122296   1.556   2.108  21.994
 3556SOL    HW222297   1.532   2.014  21.877
 3557SOL     OW22298   3.610   3.530  18.785
 3557SOL    HW122299   3.669   3.469  18.830
 3557SOL    HW222300   3.640   3.529  18.694
 3558SOL     OW22301   0.735   3.364  20.952
 3558SOL    HW122302   0.659   3.394  20.901
 3558SOL    HW222303   0.809   3.373  20.892
 3559SOL     OW22304   2.848   0.561  24.588
 3559SOL    HW122305   2.780   0.618  24.552
 3559SOL    HW222306   2.834   0.565  24.683
 3560SOL     OW22307   0.341   3.959   2.167
 3560SOL    HW122308   0.285   3.904   2.222
 3560SOL    HW222309   0.305   3.949   2.079
 3561SOL     OW22310   3.562   3.708   4.902
 3561SOL    HW122311   3.501   3.778   4.925
 3561SOL    HW222312   3.554   3.700   4.807
 3562SOL     OW22313   4.739   1.535   8.047
 3562SOL    HW122314   4.746   1.562   8.138
 3562SOL    HW222315   4.727   1.440   8.051
 3563SOL     OW22316   2.073   3.996  25.027
 3563SOL    HW122317   2.117   3.912  25.039
 3563SOL    HW222318   2.088   4.043  25.110
 3564SOL     OW22319   2.890   3.533  24.208
 3564SOL    HW122320   2.907   3.589  24.283
 3564SOL    HW222321   2.795   3.536  24.196
 3565SOL     OW22322   3.137   1.196  21.446
 3565SOL    HW122323   3.180   1.153  21.373
 3565SOL    HW222324   3.046   1.205  21.418
 3566SOL     OW22325   4.298   0.533  19.837
 3566SOL    HW122326   4.330   0.590  19.907
 3566SOL    HW222327   4.237   0.588  19.788
 3567SOL     OW22328   1.494   1.635  23.097
 3567SOL    HW122329   1.414   1.656  23.146
 3567SOL    HW222330   1.491   1.691  23.020
 3568SOL     OW22331   0.999   0.313  23.393
 3568SOL    HW122332   0.999   0.276  23.305
 3568SOL    HW222333   1.062   0.385  23.389
 3569SOL     OW22334   3.851   0.331   5.159
 3569SOL    HW122335   3.937   0.301   5.188
 3569SOL    HW222336   3.862   0.424   5.142
 3570SOL     OW22337   2.305   4.384   8.700
 3570SOL    HW122338   2.277   4.474   8.681
 3570SOL    HW222339   2.353   4.356   8.622
 3571SOL     OW22340   2.265   0.531   5.790
 3571SOL    HW122341   2.226   0.597   5.733
 3571SOL    HW222342   2.197   0.465   5.801
 3572SOL     OW22343   0.724   2.875   1.313
 3572SOL    HW122344   0.737   2.960   1.272
 3572SOL    HW222345   0.742   2.890   1.406
 3573SOL     OW22346   4.318   0.997  20.198
 3573SOL    HW122347   4.406   1.010  20.164
 3573SOL    HW222348   4.260   1.035  20.132
 3574SOL     OW22349   0.134   1.378   0.543
 3574SOL    HW122350   0.209   1.418   0.499
 3574SOL    HW222351   0.164   1.363   0.633
 3575SOL     OW22352   3.548   1.480  28.455
 3575SOL    HW122353   3.512   1.562  28.489
 3575SOL    HW222354   3.480   1.447  28.396
 3576SOL     OW22355   0.071   1.207  20.844
 3576SOL    HW122356   4.772   1.178  20.802
 3576SOL    HW222357   0.127   1.232  20.770
 3577SOL     OW22358   1.956   3.289  21.049
 3577SOL    HW122359   1.964   3.200  21.084
 3577SOL    HW222360   2.021   3.294  20.979
 3578SOL     OW22361   0.345   4.316   7.324
 3578SOL    HW122362   0.412   4.250   7.306
 3578SOL    HW222363   0.368   4.390   7.267
 3579SOL     OW22364   4.250   3.933  25.623
 3579SOL    HW122365   4.276   4.000  25.561
 3579SOL    HW222366   4.202   3.869  25.571
 3580SOL     OW22367   3.894   0.110  22.265
 3580SOL    HW122368   3.874   0.021  22.236
 3580SOL    HW222369   3.884   0.163  22.186
 3581SOL     OW22370   0.080   4.629  22.784
 3581SOL    HW122371   0.166   4.638  22.824
 3581SOL    HW222372   0.037   4.713  22.802
 3582SOL     OW22373   4.111   0.877  27.627
 3582SOL    HW122374   4.032   0.920  27.660
 3582SOL    HW222375   4.088   0.851  27.537
 3583SOL     OW22376   0.398   1.474  18.917
 3583SOL    HW122377   0.455   1.403  18.886
 3583SOL    HW222378   0.361   1.441  18.999
 3584SOL     OW22379   3.444   1.062   6.159
 3584SOL    HW122380   3.482   1.148   6.144
 3584SOL    HW222381   3.489   1.028   6.236
 3585SOL     OW22382   1.634   0.074   3.506
 3585SOL    HW122383   1.692   0.018   3.558
 3585SOL    HW222384   1.578   0.118   3.570
 3586SOL     OW22385   0.167   2.161  21.085
 3586SOL    HW122386   0.110   2.214  21.029
 3586SOL    HW222387   0.109   2.129  21.155
 3587SOL     OW22388   4.051   1.649  22.593
 3587SOL    HW122389   4.025   1.737  22.567
 3587SOL    HW222390   3.972   1.596  22.578
 3588SOL     OW22391   1.154   1.176   6.912
 3588SOL    HW122392   1.172   1.190   7.005
 3588SOL    HW222393   1.153   1.081   6.902
 3589SOL     OW22394   0.186   4.466   4.172
 3589SOL    HW122395   0.181   4.455   4.267
 3589SOL    HW222396   0.123   4.403   4.137
 3590SOL     OW22397   4.190   1.065  23.504
 3590SOL    HW122398   4.159   0.983  23.466
 3590SOL    HW222399   4.224   1.114  23.429
 3591SOL     OW22400   1.545   4.066  11.898
 3591SOL    HW122401   1.631   4.053  11.859
 3591SOL    HW222402   1.561   4.072  11.992
 3592SOL     OW22403   3.083   1.222  24.185
 3592SOL    HW122404   3.082   1.209  24.090
 3592SOL    HW222405   3.136   1.149  24.217
 3593SOL     OW22406   2.836   0.201   4.148
 3593SOL    HW122407   2.853   0.209   4.054
 3593SOL    HW222408   2.781   0.276   4.170
 3594SOL     OW22409   2.149   0.695   4.549
 3594SOL    HW122410   2.086   0.625   4.568
 3594SOL    HW222411   2.100   0.756   4.493
 3595SOL     OW22412   3.012   0.217   0.800
 3595SOL    HW122413   3.020   0.306   0.767
 3595SOL    HW222414   3.099   0.179   0.789
 3596SOL     OW22415   3.239   1.420   9.290
 3596SOL    HW122416   3.251   1.438   9.383
 3596SOL    HW222417   3.144   1.421   9.278
 3597SOL     OW22418   2.945   4.455   0.529
 3597SOL    HW122419   2.931   4.513   0.454
 3597SOL    HW222420   3.028   4.484   0.566
 3598SOL     OW22421   4.025   3.997   6.550
 3598SOL    HW122422   4.048   3.992   6.457
 3598SOL    HW222423   4.078   3.929   6.592
 3599SOL     OW22424   3.640   0.425   3.108
 3599SOL    HW122425   3.660   0.431   3.202
 3599SOL    HW222426   3.590   0.344   3.100
 3600SOL     OW22427   2.220   3.032  26.392
 3600SOL    HW122428   2.298   3.086  26.378
 3600SOL    HW222429   2.206   2.988  26.308
 3601SOL     OW22430   3.072   2.173  27.976
 3601SOL    HW122431   2.985   2.212  27.964
 3601SOL    HW222432   3.129   2.247  27.996
 3602SOL     OW22433   4.642   3.163  25.372
 3602SOL    HW122434   4.735   3.145  25.357
 3602SOL    HW222435   4.625   3.242  25.320
 3603SOL     OW22436   3.074   4.505  28.077
 3603SOL    HW122437   3.145   4.443  28.095
 3603SOL    HW222438   3.012   4.455  28.023
 3604SOL     OW22439   2.934   2.165  20.405
 3604SOL    HW122440   2.929   2.161  20.310
 3604SOL    HW222441   2.844   2.179  20.434
 3605SOL     OW22442   1.636   4.665   2.899
 3605SOL    HW122443   1.570   4.690   2.835
 3605SOL    HW222444   1.655   4.573   2.879
 3606SOL     OW22445   4.706   1.192   8.717
 3606SOL    HW122446   4.677   1.232   8.635
 3606SOL    HW222447   0.014   1.164   8.699
 3607SOL     OW22448   1.118   2.528   5.287
 3607SOL    HW122449   1.151   2.469   5.355
 3607SOL    HW222450   1.129   2.616   5.324
 3608SOL     OW22451   0.105   1.131   8.461
 3608SOL    HW122452   0.183   1.147   8.513
 3608SOL    HW222453   0.089   1.037   8.470
 3609SOL     OW22454   2.979   4.640  26.297
 3609SOL    HW122455   3.010   4.688  26.221
 3609SOL    HW222456   3.048   4.651  26.362
 3610SOL     OW22457   1.954   0.564   6.379
 3610SOL    HW122458   1.953   0.480   6.333
 3610SOL    HW222459   2.027   0.612   6.340
 3611SOL     OW22460   1.620   1.150   6.898
 3611SOL    HW122461   1.656   1.069   6.936
 3611SOL    HW222462   1.551   1.176   6.960
 3612SOL     OW22463   0.163   2.235  27.787
 3612SOL    HW122464   0.170   2.143  27.811
 3612SOL    HW222465   0.152   2.234  27.692
 3613SOL     OW22466   2.245   2.601  21.159
 3613SOL    HW122467   2.227   2.630  21.070
 3613SOL    HW222468   2.326   2.550  21.151
 3614SOL     OW22469   0.390   2.527  28.091
 3614SOL    HW122470   0.355   2.441  28.067
 3614SOL    HW222471   0.468   2.538  28.036
 3615SOL     OW22472   3.055   0.504  24.401
 3615SOL    HW122473   3.016   0.536  24.320
 3615SOL    HW222474   2.989   0.519  24.468
 3616SOL     OW22475   1.385   0.365  27.714
 3616SOL    HW122476   1.376   0.413  27.796
 3616SOL    HW222477   1.314   0.300  27.717
 3617SOL     OW22478   1.675   1.773   2.101
 3617SOL    HW122479   1.755   1.729   2.071
 3617SOL    HW222480   1.637   1.811   2.021
 3618SOL     OW22481   3.824   3.025  19.589
 3618SOL    HW122482   3.896   2.974  19.552
 3618SOL    HW222483   3.867   3.090  19.644
 3619SOL     OW22484   2.424   0.896  19.547
 3619SOL    HW122485   2.360   0.945  19.598
 3619SOL    HW222486   2.374   0.826  19.505
 3620SOL     OW22487   3.259   0.181  22.714
 3620SOL    HW122488   3.183   0.215  22.666
 3620SOL    HW222489   3.263   0.235  22.793
 3621SOL     OW22490   3.101   3.507  23.134
 3621SOL    HW122491   3.112   3.422  23.176
 3621SOL    HW222492   3.103   3.570  23.206
 3622SOL     OW22493   4.358   3.288  27.696
 3622SOL    HW122494   4.437   3.304  27.749
 3622SOL    HW222495   4.342   3.372  27.653
 3623SOL     OW22496   0.792   3.499  10.508
 3623SOL    HW122497   0.770   3.560  10.437
 3623SOL    HW222498   0.715   3.444  10.517
 3624SOL     OW22499   3.887   2.444  20.511
 3624SOL    HW122500   3.808   2.476  20.554
 3624SOL    HW222501   3.866   2.443  20.418
 3625SOL     OW22502   3.831   2.431  24.305
 3625SOL    HW122503   3.845   2.517  24.265
 3625SOL    HW222504   3.916   2.406  24.340
 3626SOL     OW22505   4.241   1.139   6.278
 3626SOL    HW122506   4.227   1.123   6.371
 3626SOL    HW222507   4.303   1.071   6.251
 3627SOL     OW22508   3.188   2.102  11.673
 3627SOL    HW122509   3.266   2.054  11.701
 3627SOL    HW222510   3.135   2.037  11.627
 3628SOL     OW22511   3.873   0.157  19.938
 3628SOL    HW122512   3.821   0.217  19.992
 3628SOL    HW222513   3.900   0.211  19.864
 3629SOL     OW22514   1.345   2.687   6.889
 3629SOL    HW122515   1.311   2.716   6.974
 3629SOL    HW222516   1.278   2.713   6.826
 3630SOL     OW22517   3.714   3.513  22.419
 3630SOL    HW122518   3.784   3.464  22.461
 3630SOL    HW222519   3.647   3.448  22.399
 3631SOL     OW22520   3.411   2.176  18.777
 3631SOL    HW122521   3.347   2.105  18.775
 3631SOL    HW222522   3.375   2.241  18.716
 3632SOL     OW22523   1.077   4.198   0.932
 3632SOL    HW122524   1.050   4.174   0.844
 3632SOL    HW222525   0.999   4.185   0.986
 3633SOL     OW22526   2.358   3.240   6.016
 3633SOL    HW122527   2.355   3.253   5.922
 3633SOL    HW222528   2.268   3.257   6.045
 3634SOL     OW22529   0.675   0.293   3.451
 3634SOL    HW122530   0.585   0.269   3.430
 3634SOL    HW222531   0.727   0.256   3.380
 3635SOL     OW22532   4.476   0.039  23.174
 3635SOL    HW122533   4.451   4.764  23.102
 3635SOL    HW222534   4.569   0.020  23.188
 3636SOL     OW22535   2.061   3.561   0.851
 3636SOL    HW122536   2.072   3.651   0.821
 3636SOL    HW222537   1.968   3.544   0.842
 3637SOL     OW22538   3.793   1.504  19.806
 3637SOL    HW122539   3.744   1.531  19.884
 3637SOL    HW222540   3.885   1.507  19.833
 3638SOL     OW22541   4.121   3.329   0.172
 3638SOL    HW122542   4.142   3.400   0.233
 3638SOL    HW222543   4.034   3.299   0.199
 3639SOL     OW22544   1.009   1.055   2.169
 3639SOL    HW122545   1.059   0.983   2.208
 3639SOL    HW222546   1.012   1.125   2.234
 3640SOL     OW22547   1.086   4.478  24.560
 3640SOL    HW122548   1.064   4.433  24.642
 3640SOL    HW222549   1.046   4.565  24.569
 3641SOL     OW22550   2.697   1.299  26.314
 3641SOL    HW122551   2.618   1.305  26.369
 3641SOL    HW222552   2.664   1.286  26.225
 3642SOL     OW22553   3.470   4.513   0.826
 3642SOL    HW122554   3.459   4.424   0.858
 3642SOL    HW222555   3.434   4.511   0.737
 3643SOL     OW22556   3.721   4.323   2.797
 3643SOL    HW122557   3.636   4.367   2.795
 3643SOL    HW222558   3.783   4.391   2.821
 3644SOL     OW22559   4.291   0.133   3.388
 3644SOL    HW122560   4.195   0.137   3.381
 3644SOL    HW222561   4.308   0.135   3.483
 3645SOL     OW22562   2.931   1.432   8.097
 3645SOL    HW122563   2.931   1.391   8.010
 3645SOL    HW222564   3.017   1.412   8.133
 3646SOL     OW22565   0.285   4.375   6.995
 3646SOL    HW122566   0.312   4.466   7.010
 3646SOL    HW222567   0.308   4.359   6.903
 3647SOL     OW22568   1.981   2.644  11.973
 3647SOL    HW122569   2.039   2.595  12.032
 3647SOL    HW222570   1.956   2.721  12.022
 3648SOL     OW22571   1.917   2.777  21.264
 3648SOL    HW122572   1.839   2.734  21.298
 3648SOL    HW222573   1.911   2.867  21.297
 3649SOL     OW22574   4.490   0.267  20.931
 3649SOL    HW122575   4.520   0.183  20.965
 3649SOL    HW222576   4.432   0.301  21.000
 3650SOL     OW22577   1.529   0.764   2.458
 3650SOL    HW122578   1.582   0.842   2.447
 3650SOL    HW222579   1.473   0.784   2.533
 3651SOL     OW22580   1.078   3.088  20.662
 3651SOL    HW122581   1.171   3.109  20.672
 3651SOL    HW222582   1.043   3.092  20.751
 3652SOL     OW22583   1.044   2.693  20.766
 3652SOL    HW122584   0.993   2.770  20.790
 3652SOL    HW222585   1.134   2.725  20.762
 3653SOL     OW22586   4.326   1.080  20.698
 3653SOL    HW122587   4.384   1.007  20.677
 3653SOL    HW222588   4.283   1.101  20.615
 3654SOL     OW22589   1.332   2.828  28.280
 3654SOL    HW122590   1.391   2.899  28.255
 3654SOL    HW222591   1.333   2.769  28.205
 3655SOL     OW22592   2.533   0.373   6.276
 3655SOL    HW122593   2.584   0.447   6.309
 3655SOL    HW222594   2.559   0.300   6.331
 3656SOL     OW22595   0.530   2.262   6.063
 3656SOL    HW122596   0.470   2.199   6.023
 3656SOL    HW222597   0.564   2.217   6.140
 3657SOL     OW22598   0.045   3.937  18.706
 3657SOL    HW122599   0.097   3.922  18.785
 3657SOL    HW222600   0.046   3.853  18.660
 3658SOL     OW22601   3.143   1.745   0.482
 3658SOL    HW122602   3.233   1.718   0.462
 3658SOL    HW222603   3.139   1.836   0.452
 3659SOL     OW22604   1.017   3.287  28.217
 3659SOL    HW122605   0.973   3.355  28.268
 3659SOL    HW222606   0.949   3.222  28.201
 3660SOL     OW22607   2.926   1.201  19.892
 3660SOL    HW122608   2.899   1.160  19.810
 3660SOL    HW222609   2.883   1.150  19.960
 3661SOL     OW22610   1.525   2.524  27.995
 3661SOL    HW122611   1.448   2.534  28.052
 3661SOL    HW222612   1.492   2.543  27.908
 3662SOL     OW22613   0.407   3.179  23.090
 3662SOL    HW122614   0.368   3.110  23.143
 3662SOL    HW222615   0.379   3.161  23.000
 3663SOL     OW22616   4.407   1.482  10.141
 3663SOL    HW122617   4.382   1.542  10.211
 3663SOL    HW222618   4.422   1.539  10.065
 3664SOL     OW22619   4.210   3.749  22.847
 3664SOL    HW122620   4.207   3.661  22.809
 3664SOL    HW222621   4.147   3.800  22.795
 3665SOL     OW22622   1.470   1.564  24.406
 3665SOL    HW122623   1.402   1.603  24.352
 3665SOL    HW222624   1.529   1.636  24.428
 3666SOL     OW22625   4.015   3.703  25.357
 3666SOL    HW122626   4.074   3.632  25.332
 3666SOL    HW222627   3.929   3.662  25.365
 3667SOL     OW22628   2.488   3.013  19.787
 3667SOL    HW122629   2.456   3.018  19.877
 3667SOL    HW222630   2.539   3.092  19.776
 3668SOL     OW22631   3.302   3.138  20.443
 3668SOL    HW122632   3.265   3.085  20.514
 3668SOL    HW222633   3.364   3.079  20.400
 3669SOL     OW22634   1.826   2.696   6.408
 3669SOL    HW122635   1.801   2.693   6.500
 3669SOL    HW222636   1.922   2.699   6.408
 3670SOL     OW22637   2.045   3.242  28.529
 3670SOL    HW122638   2.027   3.226   0.090
 3670SOL    HW222639   1.960   3.231  28.485
 3671SOL     OW22640   4.313   0.744   6.912
 3671SOL    HW122641   4.282   0.776   6.996
 3671SOL    HW222642   4.288   0.813   6.850
 3672SOL     OW22643   3.253   4.299  28.114
 3672SOL    HW122644   3.295   4.362  28.172
 3672SOL    HW222645   3.322   4.234  28.096
 3673SOL     OW22646   4.717   2.629  20.943
 3673SOL    HW122647   0.024   2.631  20.909
 3673SOL    HW222648   4.702   2.537  20.967
 3674SOL     OW22649   1.490   2.389   7.534
 3674SOL    HW122650   1.556   2.342   7.585
 3674SOL    HW222651   1.409   2.378   7.585
 3675SOL     OW22652   3.484   0.556  26.536
 3675SOL    HW122653   3.528   0.535  26.453
 3675SOL    HW222654   3.406   0.501  26.536
 3676SOL     OW22655   3.199   2.918   0.777
 3676SOL    HW122656   3.212   2.953   0.689
 3676SOL    HW222657   3.274   2.859   0.790
 3677SOL     OW22658   4.134   1.117  17.130
 3677SOL    HW122659   4.085   1.036  17.116
 3677SOL    HW222660   4.081   1.167  17.192
 3678SOL     OW22661   1.760   3.481  21.771
 3678SOL    HW122662   1.850   3.494  21.740
 3678SOL    HW222663   1.716   3.564  21.752
 3679SOL     OW22664   0.622   4.269   0.916
 3679SOL    HW122665   0.591   4.358   0.897
 3679SOL    HW222666   0.550   4.229   0.966
 3680SOL     OW22667   4.525   1.067   2.095
 3680SOL    HW122668   4.539   1.011   2.019
 3680SOL    HW222669   4.477   1.012   2.157
 3681SOL     OW22670   4.230   0.854   7.138
 3681SOL    HW122671   4.246   0.803   7.217
 3681SOL    HW222672   4.180   0.930   7.168
 3682SOL     OW22673   0.561   0.215  11.373
 3682SOL    HW122674   0.559   0.304  11.408
 3682SOL    HW222675   0.638   0.213  11.316
 3683SOL     OW22676   1.734   0.431   6.176
 3683SOL    HW122677   1.704   0.343   6.151
 3683SOL    HW222678   1.827   0.420   6.195
 3684SOL     OW22679   1.764   3.800  21.028
 3684SOL    HW122680   1.815   3.855  20.968
 3684SOL    HW222681   1.766   3.713  20.989
 3685SOL     OW22682   4.174   2.282  19.306
 3685SOL    HW122683   4.090   2.270  19.351
 3685SOL    HW222684   4.204   2.193  19.287
 3686SOL     OW22685   3.782   4.449   6.282
 3686SOL    HW122686   3.748   4.477   6.197
 3686SOL    HW222687   3.814   4.360   6.266
 3687SOL     OW22688   2.242   2.009  22.320
 3687SOL    HW122689   2.165   2.033  22.370
 3687SOL    HW222690   2.256   1.916  22.339
 3688SOL     OW22691   1.494   1.591   1.683
 3688SOL    HW122692   1.400   1.590   1.662
 3688SOL    HW222693   1.522   1.501   1.670
 3689SOL     OW22694   3.405   4.020  23.851
 3689SOL    HW122695   3.316   3.989  23.833
 3689SOL    HW222696   3.393   4.094  23.910
 3690SOL     OW22697   0.615   1.426   0.968
 3690SOL    HW122698   0.605   1.345   1.018
 3690SOL    HW222699   0.610   1.398   0.877
 3691SOL     OW22700   3.925   4.276   0.336
 3691SOL    HW122701   3.880   4.325   0.267
 3691SOL    HW222702   3.982   4.341   0.377
 3692SOL     OW22703   3.030   1.913  24.453
 3692SOL    HW122704   2.995   1.832  24.416
 3692SOL    HW222705   3.074   1.956  24.380
 3693SOL     OW22706   2.031   0.595   3.334
 3693SOL    HW122707   2.114   0.560   3.367
 3693SOL    HW222708   1.964   0.549   3.384
 3694SOL     OW22709   0.597   3.598   9.619
 3694SOL    HW122710   0.624   3.550   9.698
 3694SOL    HW222711   0.626   3.543   9.546
 3695SOL     OW22712   3.525   3.668   0.653
 3695SOL    HW122713   3.589   3.617   0.703
 3695SOL    HW222714   3.440   3.635   0.681
 3696SOL     OW22715   1.483   1.366   8.546
 3696SOL    HW122716   1.482   1.303   8.474
 3696SOL    HW222717   1.479   1.452   8.502
 3697SOL     OW22718   4.278   1.538  22.507
 3697SOL    HW122719   4.320   1.581  22.581
 3697SOL    HW222720   4.185   1.557  22.517
 3698SOL     OW22721   2.213   4.352  18.798
 3698SOL    HW122722   2.248   4.279  18.747
 3698SOL    HW222723   2.261   4.348  18.881
 3699SOL     OW22724   1.184   4.383  20.564
 3699SOL    HW122725   1.209   4.398  20.655
 3699SOL    HW222726   1.090   4.398  20.562
 3700SOL     OW22727   1.925   2.169  24.811
 3700SOL    HW122728   1.998   2.154  24.750
 3700SOL    HW222729   1.904   2.262  24.800
 3701SOL     OW22730   3.265   2.070  24.870
 3701SOL    HW122731   3.350   2.112  24.884
 3701SOL    HW222732   3.286   1.985  24.832
 3702SOL     OW22733   0.187   0.735  27.384
 3702SOL    HW122734   0.186   0.651  27.337
 3702SOL    HW222735   0.120   0.725  27.452
 3703SOL     OW22736   1.644   3.944  25.205
 3703SOL    HW122737   1.668   4.017  25.262
 3703SOL    HW222738   1.596   3.985  25.133
 3704SOL     OW22739   1.134   2.648   5.033
 3704SOL    HW122740   1.221   2.689   5.032
 3704SOL    HW222741   1.124   2.617   5.123
 3705SOL     OW22742   0.825   2.523   1.573
 3705SOL    HW122743   0.787   2.536   1.659
 3705SOL    HW222744   0.870   2.439   1.579
 3706SOL     OW22745   2.140   2.264   0.121
 3706SOL    HW122746   2.210   2.326   0.142
 3706SOL    HW222747   2.065   2.295   0.172
 3707SOL     OW22748   0.959   4.487   4.141
 3707SOL    HW122749   1.012   4.545   4.195
 3707SOL    HW222750   0.943   4.410   4.197
 3708SOL     OW22751   1.500   3.885  23.087
 3708SOL    HW122752   1.527   3.840  23.008
 3708SOL    HW222753   1.575   3.880  23.145
 3709SOL     OW22754   1.478   2.608  23.578
 3709SOL    HW122755   1.387   2.589  23.600
 3709SOL    HW222756   1.478   2.617  23.483
 3710SOL     OW22757   3.780   4.221  24.263
 3710SOL    HW122758   3.718   4.264  24.322
 3710SOL    HW222759   3.747   4.242  24.175
 3711SOL     OW22760   2.891   1.680  23.531
 3711SOL    HW122761   2.886   1.701  23.624
 3711SOL    HW222762   2.855   1.757  23.487
 3712SOL     OW22763   0.878   1.264  25.548
 3712SOL    HW122764   0.840   1.350  25.532
 3712SOL    HW222765   0.844   1.209  25.477
 3713SOL     OW22766   4.160   3.330   3.145
 3713SOL    HW122767   4.084   3.304   3.197
 3713SOL    HW222768   4.234   3.282   3.184
 3714SOL     OW22769   2.506   1.418  25.344
 3714SOL    HW122770   2.469   1.501  25.313
 3714SOL    HW222771   2.537   1.375  25.264
 3715SOL     OW22772   0.171   1.601  22.787
 3715SOL    HW122773   0.116   1.574  22.861
 3715SOL    HW222774   0.257   1.562  22.806
 3716SOL     OW22775   2.216   4.332  23.892
 3716SOL    HW122776   2.225   4.399  23.959
 3716SOL    HW222777   2.247   4.252  23.934
 3717SOL     OW22778   1.062   4.133  10.893
 3717SOL    HW122779   0.990   4.098  10.840
 3717SOL    HW222780   1.036   4.115  10.984
 3718SOL     OW22781   0.154   0.624  11.376
 3718SOL    HW122782   0.212   0.637  11.452
 3718SOL    HW222783   0.175   0.697  11.318
 3719SOL     OW22784   0.513   0.797  22.618
 3719SOL    HW122785   0.498   0.762  22.530
 3719SOL    HW222786   0.599   0.763  22.642
 3720SOL     OW22787   4.015   4.584  20.424
 3720SOL    HW122788   4.077   4.615  20.490
 3720SOL    HW222789   3.955   4.658  20.411
 3721SOL     OW22790   0.385   2.829   1.496
 3721SOL    HW122791   0.348   2.841   1.583
 3721SOL    HW222792   0.477   2.807   1.513
 3722SOL     OW22793   4.244   3.611   9.863
 3722SOL    HW122794   4.232   3.642   9.953
 3722SOL    HW222795   4.236   3.690   9.810
 3723SOL     OW22796   4.485   1.436  21.753
 3723SOL    HW122797   4.477   1.453  21.847
 3723SOL    HW222798   4.565   1.481  21.727
 3724SOL     OW22799   1.438   3.609   5.915
 3724SOL    HW122800   1.465   3.540   5.855
 3724SOL    HW222801   1.346   3.591   5.933
 3725SOL     OW22802   4.606   4.346   7.255
 3725SOL    HW122803   4.636   4.290   7.184
 3725SOL    HW222804   4.513   4.328   7.263
 3726SOL     OW22805   1.537   1.869  19.095
 3726SOL    HW122806   1.570   1.794  19.144
 3726SOL    HW222807   1.454   1.839  19.059
 3727SOL     OW22808   2.219   1.443  26.851
 3727SOL    HW122809   2.257   1.478  26.770
 3727SOL    HW222810   2.244   1.350  26.850
 3728SOL     OW22811   3.779   4.041   2.202
 3728SOL    HW122812   3.807   4.132   2.188
 3728SOL    HW222813   3.699   4.032   2.149
 3729SOL     OW22814   4.231   4.364   7.937
 3729SOL    HW122815   4.143   4.330   7.922
 3729SOL    HW222816   4.222   4.459   7.928
 3730SOL     OW22817   0.385   1.694   3.437
 3730SOL    HW122818   0.465   1.723   3.392
 3730SOL    HW222819   0.347   1.629   3.378
 3731SOL     OW22820   0.001   4.391  20.806
 3731SOL    HW122821   4.729   4.470  20.798
 3731SOL    HW222822   0.054   4.390  20.727
 3732SOL     OW22823   1.442   1.948   4.260
 3732SOL    HW122824   1.517   2.005   4.278
 3732SOL    HW222825   1.418   1.912   4.345
 3733SOL     OW22826   0.943   4.181  23.759
 3733SOL    HW122827   0.893   4.242  23.812
 3733SOL    HW222828   0.899   4.097  23.771
 3734SOL     OW22829   3.316   2.159   5.063
 3734SOL    HW122830   3.287   2.087   5.007
 3734SOL    HW222831   3.376   2.118   5.125
 3735SOL     OW22832   3.150   4.627  11.444
 3735SOL    HW122833   3.232   4.667  11.470
 3735SOL    HW222834   3.097   4.624  11.524
 3736SOL     OW22835   0.211   0.710  21.841
 3736SOL    HW122836   0.300   0.735  21.816
 3736SOL    HW222837   0.219   0.622  21.877
 3737SOL     OW22838   4.729   2.785  27.645
 3737SOL    HW122839   4.716   2.739  27.727
 3737SOL    HW222840   4.646   2.831  27.629
 3738SOL     OW22841   2.577   0.914  27.670
 3738SOL    HW122842   2.524   0.991  27.691
 3738SOL    HW222843   2.515   0.853  27.631
 3739SOL     OW22844   2.959   2.623  24.871
 3739SOL    HW122845   3.001   2.540  24.846
 3739SOL    HW222846   2.867   2.600  24.884
 3740SOL     OW22847   2.196   0.406  12.480
 3740SOL    HW122848   2.216   0.394  12.573
 3740SOL    HW222849   2.217   0.497  12.462
 3741SOL     OW22850   1.431   0.769   3.081
 3741SOL    HW122851   1.489   0.693   3.092
 3741SOL    HW222852   1.481   0.829   3.025
 3742SOL     OW22853   2.251   1.946   5.138
 3742SOL    HW122854   2.244   1.891   5.216
 3742SOL    HW222855   2.224   2.033   5.168
 3743SOL     OW22856   2.933   3.074  27.917
 3743SOL    HW122857   2.957   2.983  27.900
 3743SOL    HW222858   2.923   3.078  28.012
 3744SOL     OW22859   1.355   1.917   5.262
 3744SOL    HW122860   1.441   1.880   5.241
 3744SOL    HW222861   1.368   1.965   5.343
 3745SOL     OW22862   3.030   1.898   2.172
 3745SOL    HW122863   3.095   1.942   2.228
 3745SOL    HW222864   2.957   1.879   2.231
 3746SOL     OW22865   1.645   3.234  27.674
 3746SOL    HW122866   1.728   3.223  27.627
 3746SOL    HW222867   1.578   3.237  27.606
 3747SOL     OW22868   0.327   0.311   6.281
 3747SOL    HW122869   0.309   0.374   6.350
 3747SOL    HW222870   0.245   0.305   6.231
 3748SOL     OW22871   3.150   0.974  20.935
 3748SOL    HW122872   3.089   1.040  20.901
 3748SOL    HW222873   3.193   1.018  21.009
 3749SOL     OW22874   4.496   0.876  20.556
 3749SOL    HW122875   4.556   0.837  20.620
 3749SOL    HW222876   4.535   0.961  20.536
 3750SOL     OW22877   4.077   2.934  20.521
 3750SOL    HW122878   4.098   2.866  20.457
 3750SOL    HW222879   4.099   3.016  20.477
 3751SOL     OW22880   1.841   0.127   5.415
 3751SOL    HW122881   1.800   0.171   5.341
 3751SOL    HW222882   1.931   0.162   5.416
 3752SOL     OW22883   1.211   4.230   8.114
 3752SOL    HW122884   1.142   4.277   8.068
 3752SOL    HW222885   1.290   4.281   8.097
 3753SOL     OW22886   1.465   2.465  24.386
 3753SOL    HW122887   1.427   2.551  24.367
 3753SOL    HW222888   1.390   2.410  24.408
 3754SOL     OW22889   1.905   2.336  28.140
 3754SOL    HW122890   1.810   2.342  28.148
 3754SOL    HW222891   1.935   2.319  28.230
 3755SOL     OW22892   0.115   4.199  25.372
 3755SOL    HW122893   0.127   4.176  25.464
 3755SOL    HW222894   0.204   4.208  25.337
 3756SOL     OW22895   2.866   4.414   9.184
 3756SOL    HW122896   2.827   4.432   9.269
 3756SOL    HW222897   2.956   4.446   9.191
 3757SOL     OW22898   1.960   1.553   5.469
 3757SOL    HW122899   2.002   1.473   5.501
 3757SOL    HW222900   1.894   1.573   5.536
 3758SOL     OW22901   1.911   0.713  20.366
 3758SOL    HW122902   1.846   0.729  20.435
 3758SOL    HW222903   1.994   0.740  20.406
 3759SOL     OW22904   2.958   1.299  22.403
 3759SOL    HW122905   2.996   1.314  22.490
 3759SOL    HW222906   2.923   1.210  22.407
 3760SOL     OW22907   2.418   0.431  25.036
 3760SOL    HW122908   2.416   0.497  24.968
 3760SOL    HW222909   2.382   0.352  24.995
 3761SOL     OW22910   4.136   2.333  21.086
 3761SOL    HW122911   4.207   2.382  21.045
 3761SOL    HW222912   4.143   2.354  21.179
 3762SOL     OW22913   0.502   2.448  23.165
 3762SOL    HW122914   0.513   2.452  23.070
 3762SOL    HW222915   0.407   2.457  23.178
 3763SOL     OW22916   4.122   1.428   6.055
 3763SOL    HW122917   4.213   1.459   6.052
 3763SOL    HW222918   4.086   1.469   6.133
 3764SOL     OW22919   2.560   3.722  21.891
 3764SOL    HW122920   2.648   3.700  21.858
 3764SOL    HW222921   2.537   3.648  21.947
 3765SOL     OW22922   2.699   2.857  26.726
 3765SOL    HW122923   2.628   2.813  26.679
 3765SOL    HW222924   2.678   2.950  26.718
 3766SOL     OW22925   4.344   0.863   8.156
 3766SOL    HW122926   4.369   0.880   8.247
 3766SOL    HW222927   4.427   0.856   8.109
 3767SOL     OW22928   2.681   1.841   7.535
 3767SOL    HW122929   2.688   1.792   7.617
 3767SOL    HW222930   2.596   1.886   7.541
 3768SOL     OW22931   2.920   1.342   4.420
 3768SOL    HW122932   2.925   1.253   4.384
 3768SOL    HW222933   2.891   1.396   4.346
 3769SOL     OW22934   2.195   4.265   1.258
 3769SOL    HW122935   2.241   4.218   1.328
 3769SOL    HW222936   2.231   4.229   1.177
 3770SOL     OW22937   0.346   4.113  24.983
 3770SOL    HW122938   0.393   4.030  24.978
 3770SOL    HW222939   0.351   4.137  25.076
 3771SOL     OW22940   4.639   0.650   9.929
 3771SOL    HW122941   4.596   0.702   9.862
 3771SOL    HW222942   4.579   0.651  10.004
 3772SOL     OW22943   4.037   3.615   0.304
 3772SOL    HW122944   4.031   3.629   0.209
 3772SOL    HW222945   4.124   3.648   0.327
 3773SOL     OW22946   4.368   2.050   9.168
 3773SOL    HW122947   4.394   2.096   9.089
 3773SOL    HW222948   4.294   2.101   9.202
 3774SOL     OW22949   0.196   0.379  28.070
 3774SOL    HW122950   0.165   0.294  28.039
 3774SOL    HW222951   0.231   0.361  28.158
 3775SOL     OW22952   0.367   0.917  21.339
 3775SOL    HW122953   0.429   0.968  21.286
 3775SOL    HW222954   0.365   0.831  21.297
 3776SOL     OW22955   4.601   1.199   2.604
 3776SOL    HW122956   4.642   1.285   2.620
 3776SOL    HW222957   4.564   1.207   2.516
 3777SOL     OW22958   2.864   1.481   4.165
 3777SOL    HW122959   2.824   1.440   4.088
 3777SOL    HW222960   2.929   1.540   4.130
 3778SOL     OW22961   4.036   3.463   7.167
 3778SOL    HW122962   4.060   3.482   7.258
 3778SOL    HW222963   3.941   3.448   7.170
 3779SOL     OW22964   2.367   4.649   2.924
 3779SOL    HW122965   2.450   4.695   2.935
 3779SOL    HW222966   2.355   4.600   3.005
 3780SOL     OW22967   3.672   2.704  23.258
 3780SOL    HW122968   3.685   2.610  23.272
 3780SOL    HW222969   3.610   2.709  23.185
 3781SOL     OW22970   1.162   3.215  19.396
 3781SOL    HW122971   1.095   3.246  19.457
 3781SOL    HW222972   1.162   3.120  19.407
 3782SOL     OW22973   2.109   1.463   2.711
 3782SOL    HW122974   2.060   1.402   2.655
 3782SOL    HW222975   2.193   1.419   2.726
 3783SOL     OW22976   0.330   2.080   5.423
 3783SOL    HW122977   0.250   2.124   5.453
 3783SOL    HW222978   0.308   1.987   5.424
 3784SOL     OW22979   2.341   3.865   8.719
 3784SOL    HW122980   2.413   3.836   8.663
 3784SOL    HW222981   2.384   3.899   8.797
 3785SOL     OW22982   3.226   3.370  20.712
 3785SOL    HW122983   3.253   3.393  20.801
 3785SOL    HW222984   3.295   3.405  20.656
 3786SOL     OW22985   3.402   2.774  27.636
 3786SOL    HW122986   3.418   2.725  27.716
 3786SOL    HW222987   3.341   2.843  27.662
 3787SOL     OW22988   3.738   0.278   0.655
 3787SOL    HW122989   3.773   0.353   0.607
 3787SOL    HW222990   3.654   0.309   0.689
 3788SOL     OW22991   3.151   2.508  26.911
 3788SOL    HW122992   3.228   2.452  26.910
 3788SOL    HW222993   3.159   2.561  26.831
 3789SOL     OW22994   0.810   2.151   4.696
 3789SOL    HW122995   0.800   2.142   4.601
 3789SOL    HW222996   0.772   2.071   4.732
 3790SOL     OW22997   1.626   3.381  18.117
 3790SOL    HW122998   1.651   3.449  18.054
 3790SOL    HW222999   1.665   3.301  18.083
 3791SOL     OW23000   4.142   4.590  26.058
 3791SOL    HW123001   4.112   4.663  26.004
 3791SOL    HW223002   4.205   4.629  26.118
 3792SOL     OW23003   3.191   2.495  23.889
 3792SOL    HW123004   3.268   2.546  23.861
 3792SOL    HW223005   3.129   2.560  23.921
 3793SOL     OW23006   4.069   0.027   6.410
 3793SOL    HW123007   4.022   0.110   6.415
 3793SOL    HW223008   4.017   4.749   6.463
 3794SOL     OW23009   4.313   2.024  26.565
 3794SOL    HW123010   4.230   1.987  26.593
 3794SOL    HW223011   4.357   2.048  26.646
 3795SOL     OW23012   1.290   4.640  24.898
 3795SOL    HW123013   1.347   4.655  24.822
 3795SOL    HW223014   1.312   4.551  24.927
 3796SOL     OW23015   0.933   2.172  26.319
 3796SOL    HW123016   0.944   2.246  26.379
 3796SOL    HW223017   0.963   2.096  26.368
 3797SOL     OW23018   0.667   4.552   9.876
 3797SOL    HW123019   0.612   4.624   9.906
 3797SOL    HW223020   0.629   4.527   9.791
 3798SOL     OW23021   2.931   0.866   0.179
 3798SOL    HW123022   2.856   0.894   0.231
 3798SOL    HW223023   2.947   0.938   0.118
 3799SOL     OW23024   3.780   3.674  25.085
 3799SOL    HW123025   3.792   3.623  25.165
 3799SOL    HW223026   3.705   3.634  25.042
 3800SOL     OW23027   0.908   0.473  10.628
 3800SOL    HW123028   0.970   0.454  10.699
 3800SOL    HW223029   0.872   0.387  10.605
 3801SOL     OW23030   0.410   1.455   8.825
 3801SOL    HW123031   0.457   1.377   8.797
 3801SOL    HW223032   0.461   1.490   8.898
 3802SOL     OW23033   3.703   2.919   2.155
 3802SOL    HW123034   3.689   2.997   2.208
 3802SOL    HW223035   3.759   2.863   2.210
 3803SOL     OW23036   4.482   4.276   4.662
 3803SOL    HW123037   4.514   4.186   4.659
 3803SOL    HW223038   4.506   4.307   4.750
 3804SOL     OW23039   0.419   1.410  20.420
 3804SOL    HW123040   0.486   1.420  20.488
 3804SOL    HW223041   0.466   1.426  20.338
 3805SOL     OW23042   3.014   3.113   6.321
 3805SOL    HW123043   3.108   3.107   6.341
 3805SOL    HW223044   3.002   3.055   6.246
 3806SOL     OW23045   2.185   0.586   2.603
 3806SOL    HW123046   2.167   0.495   2.581
 3806SOL    HW223047   2.098   0.626   2.611
 3807SOL     OW23048   1.820   0.700   4.988
 3807SOL    HW123049   1.873   0.758   5.043
 3807SOL    HW223050   1.742   0.682   5.040
 3808SOL     OW23051   2.640   0.688   3.416
 3808SOL    HW123052   2.661   0.763   3.361
 3808SOL    HW223053   2.629   0.724   3.504
 3809SOL     OW23054   4.421   3.811   9.372
 3809SOL    HW123055   4.387   3.722   9.378
 3809SOL    HW223056   4.499   3.811   9.428
 3810SOL     OW23057   2.052   0.678  19.424
 3810SOL    HW123058   2.012   0.594  19.401
 3810SOL    HW223059   1.999   0.711  19.497
 3811SOL     OW23060   3.509   2.451  26.807
 3811SOL    HW123061   3.507   2.394  26.884
 3811SOL    HW223062   3.506   2.540  26.843
 3812SOL     OW23063   3.329   2.092   2.798
 3812SOL    HW123064   3.393   2.085   2.727
 3812SOL    HW223065   3.329   2.185   2.821
 3813SOL     OW23066   4.700   2.598   3.217
 3813SOL    HW123067   0.005   2.579   3.184
 3813SOL    HW223068   4.651   2.624   3.139
 3814SOL     OW23069   1.892   2.247   5.428
 3814SOL    HW123070   1.893   2.326   5.374
 3814SOL    HW223071   1.872   2.279   5.516
 3815SOL     OW23072   3.223   3.312  16.807
 3815SOL    HW123073   3.195   3.389  16.759
 3815SOL    HW223074   3.319   3.313  16.801
 3816SOL     OW23075   4.162   3.372   4.797
 3816SOL    HW123076   4.116   3.295   4.764
 3816SOL    HW223077   4.151   3.368   4.892
 3817SOL     OW23078   4.437   3.981   0.022
 3817SOL    HW123079   4.422   3.911  28.489
 3817SOL    HW223080   4.475   3.937   0.097
 3818SOL     OW23081   3.553   0.160   3.142
 3818SOL    HW123082   3.634   0.130   3.101
 3818SOL    HW223083   3.546   0.107   3.222
 3819SOL     OW23084   3.133   4.440   5.780
 3819SOL    HW123085   3.086   4.449   5.698
 3819SOL    HW223086   3.064   4.433   5.847
 3820SOL     OW23087   4.280   4.695  21.014
 3820SOL    HW123088   4.273   4.727  20.924
 3820SOL    HW223089   4.373   4.674  21.024
 3821SOL     OW23090   1.411   4.043   1.479
 3821SOL    HW123091   1.407   4.111   1.412
 3821SOL    HW223092   1.320   4.035   1.510
 3822SOL     OW23093   2.770   0.473  24.005
 3822SOL    HW123094   2.700   0.433  23.953
 3822SOL    HW223095   2.818   0.528  23.943
 3823SOL     OW23096   4.133   3.022   5.613
 3823SOL    HW123097   4.169   3.099   5.569
 3823SOL    HW223098   4.038   3.031   5.604
 3824SOL     OW23099   4.379   0.060  18.567
 3824SOL    HW123100   4.335   4.763  18.537
 3824SOL    HW223101   4.412   0.101  18.487
 3825SOL     OW23102   3.072   2.010   6.551
 3825SOL    HW123103   3.022   1.973   6.624
 3825SOL    HW223104   3.075   2.104   6.570
 3826SOL     OW23105   3.389   1.997   0.953
 3826SOL    HW123106   3.373   1.905   0.932
 3826SOL    HW223107   3.384   2.042   0.868
 3827SOL     OW23108   0.647   4.110   8.899
 3827SOL    HW123109   0.716   4.144   8.843
 3827SOL    HW223110   0.595   4.187   8.922
 3828SOL     OW23111   4.689   1.395   1.376
 3828SOL    HW123112   4.745   1.425   1.447
 3828SOL    HW223113   4.626   1.337   1.418
 3829SOL     OW23114   1.414   1.690  26.197
 3829SOL    HW123115   1.474   1.758  26.227
 3829SOL    HW223116   1.388   1.643  26.276
 3830SOL     OW23117   0.164   2.775  25.235
 3830SOL    HW123118   0.099   2.805  25.172
 3830SOL    HW223119   0.220   2.716  25.185
 3831SOL     OW23120   0.625   2.133  22.918
 3831SOL    HW123121   0.573   2.176  22.986
 3831SOL    HW223122   0.697   2.194  22.901
 3832SOL     OW23123   1.655   4.545   7.501
 3832SOL    HW123124   1.653   4.571   7.593
 3832SOL    HW223125   1.577   4.584   7.463
 3833SOL     OW23126   0.602   1.723   6.765
 3833SOL    HW123127   0.587   1.808   6.807
 3833SOL    HW223128   0.632   1.745   6.677
 3834SOL     OW23129   3.752   4.098  19.781
 3834SOL    HW123130   3.826   4.059  19.828
 3834SOL    HW223131   3.772   4.192  19.781
 3835SOL     OW23132   4.745   0.116  25.365
 3835SOL    HW123133   0.018   0.161  25.302
 3835SOL    HW223134   4.763   0.023  25.352
 3836SOL     OW23135   1.795   1.733  18.545
 3836SOL    HW123136   1.770   1.686  18.625
 3836SOL    HW223137   1.866   1.680  18.508
 3837SOL     OW23138   2.946   2.930   8.828
 3837SOL    HW123139   2.986   2.880   8.898
 3837SOL    HW223140   2.898   2.865   8.776
 3838SOL     OW23141   1.494   4.199   9.653
 3838SOL    HW123142   1.531   4.288   9.655
 3838SOL    HW223143   1.551   4.152   9.591
 3839SOL     OW23144   4.088   2.018  22.431
 3839SOL    HW123145   4.075   1.998  22.338
 3839SOL    HW223146   3.999   2.033  22.465
 3840SOL     OW23147   2.160   1.031  27.419
 3840SOL    HW123148   2.161   1.097  27.350
 3840SOL    HW223149   2.098   1.064  27.484
 3841SOL     OW23150   4.566   3.733  10.507
 3841SOL    HW123151   4.617   3.703  10.583
 3841SOL    HW223152   4.482   3.761  10.544
 3842SOL     OW23153   0.567   1.972  28.427
 3842SOL    HW123154   0.593   1.945  28.338
 3842SOL    HW223155   0.484   2.018  28.414
 3843SOL     OW23156   2.353   4.004  23.119
 3843SOL    HW123157   2.318   4.061  23.052
 3843SOL    HW223158   2.416   4.059  23.167
 3844SOL     OW23159   2.604   4.373  23.005
 3844SOL    HW123160   2.597   4.467  22.989
 3844SOL    HW223161   2.695   4.360  23.031
 3845SOL     OW23162   1.258   4.056   2.980
 3845SOL    HW123163   1.252   4.145   2.945
 3845SOL    HW223164   1.195   4.054   3.052
 3846SOL     OW23165   1.985   1.315  27.395
 3846SOL    HW123166   2.025   1.352  27.316
 3846SOL    HW223167   1.911   1.372  27.413
 3847SOL     OW23168   2.315   1.413  20.932
 3847SOL    HW123169   2.256   1.437  20.861
 3847SOL    HW223170   2.345   1.324  20.910
 3848SOL     OW23171   0.455   1.321   3.658
 3848SOL    HW123172   0.455   1.273   3.576
 3848SOL    HW223173   0.526   1.385   3.649
 3849SOL     OW23174   1.123   0.169  26.039
 3849SOL    HW123175   1.183   0.162  25.965
 3849SOL    HW223176   1.045   0.210  26.002
 3850SOL     OW23177   1.109   3.109  19.789
 3850SOL    HW123178   1.195   3.142  19.763
 3850SOL    HW223179   1.097   3.141  19.879
 3851SOL     OW23180   3.080   1.309   1.013
 3851SOL    HW123181   3.048   1.399   1.009
 3851SOL    HW223182   3.127   1.297   0.930
 3852SOL     OW23183   1.749   2.279  19.854
 3852SOL    HW123184   1.672   2.335  19.842
 3852SOL    HW223185   1.813   2.313  19.792
 3853SOL     OW23186   2.050   0.864   7.171
 3853SOL    HW123187   1.968   0.847   7.217
 3853SOL    HW223188   2.037   0.827   7.084
 3854SOL     OW23189   0.828   2.415  21.329
 3854SOL    HW123190   0.746   2.430  21.377
 3854SOL    HW223191   0.889   2.479  21.366
 3855SOL     OW23192   3.645   1.718  27.437
 3855SOL    HW123193   3.670   1.725  27.345
 3855SOL    HW223194   3.676   1.631  27.464
 3856SOL     OW23195   4.596   2.273  27.507
 3856SOL    HW123196   4.655   2.252  27.435
 3856SOL    HW223197   4.609   2.203  27.570
 3857SOL     OW23198   2.633   2.311   4.776
 3857SOL    HW123199   2.565   2.320   4.709
 3857SOL    HW223200   2.695   2.381   4.757
 3858SOL     OW23201   3.176   3.452  22.138
 3858SOL    HW123202   3.218   3.515  22.196
 3858SOL    HW223203   3.242   3.432  22.071
 3859SOL     OW23204   3.303   0.726  22.998
 3859SOL    HW123205   3.270   0.674  22.924
 3859SOL    HW223206   3.240   0.797  23.008
 3860SOL     OW23207   0.567   0.160  20.728
 3860SOL    HW123208   0.582   0.074  20.691
 3860SOL    HW223209   0.646   0.179  20.778
 3861SOL     OW23210   3.742   3.760   1.378
 3861SOL    HW123211   3.700   3.843   1.398
 3861SOL    HW223212   3.790   3.737   1.458
 3862SOL     OW23213   2.850   3.290  10.920
 3862SOL    HW123214   2.862   3.229  10.993
 3862SOL    HW223215   2.939   3.307  10.889
 3863SOL     OW23216   0.577   2.691  24.310
 3863SOL    HW123217   0.541   2.606  24.337
 3863SOL    HW223218   0.530   2.755  24.364
 3864SOL     OW23219   3.940   2.251  22.970
 3864SOL    HW123220   3.906   2.168  22.938
 3864SOL    HW223221   3.868   2.313  22.958
 3865SOL     OW23222   0.162   1.984   4.832
 3865SOL    HW123223   0.113   1.994   4.751
 3865SOL    HW223224   0.185   2.074   4.857
 3866SOL     OW23225   3.255   4.519   6.239
 3866SOL    HW123226   3.290   4.432   6.221
 3866SOL    HW223227   3.292   4.575   6.170
 3867SOL     OW23228   1.940   1.209  26.676
 3867SOL    HW123229   1.872   1.208  26.743
 3867SOL    HW223230   1.974   1.119  26.674
 3868SOL     OW23231   3.240   2.861   4.754
 3868SOL    HW123232   3.209   2.934   4.807
 3868SOL    HW223233   3.314   2.826   4.803
 3869SOL     OW23234   3.277   3.438   5.405
 3869SOL    HW123235   3.341   3.451   5.335
 3869SOL    HW223236   3.322   3.380   5.467
 3870SOL     OW23237   0.485   0.495  21.346
 3870SOL    HW123238   0.449   0.435  21.411
 3870SOL    HW223239   0.528   0.439  21.281
 3871SOL     OW23240   3.954   1.279  23.409
 3871SOL    HW123241   4.027   1.328  23.447
 3871SOL    HW223242   3.901   1.346  23.365
 3872SOL     OW23243   2.148   0.011  11.691
 3872SOL    HW123244   2.233   4.756  11.714
 3872SOL    HW223245   2.104   0.027  11.775
 3873SOL     OW23246   3.596   2.325   8.652
 3873SOL    HW123247   3.543   2.316   8.731
 3873SOL    HW223248   3.585   2.242   8.606
 3874SOL     OW23249   0.468   0.949  10.079
 3874SOL    HW123250   0.509   1.027  10.116
 3874SOL    HW223251   0.395   0.930  10.137
 3875SOL     OW23252   0.654   2.040  28.164
 3875SOL    HW123253   0.700   2.114  28.204
 3875SOL    HW223254   0.677   2.045  28.071
 3876SOL     OW23255   1.061   0.244  23.720
 3876SOL    HW123256   1.123   0.212  23.655
 3876SOL    HW223257   1.112   0.304  23.774
 3877SOL     OW23258   2.825   3.254  23.045
 3877SOL    HW123259   2.778   3.256  23.128
 3877SOL    HW223260   2.896   3.191  23.060
 3878SOL     OW23261   1.023   0.832  28.039
 3878SOL    HW123262   1.074   0.912  28.024
 3878SOL    HW223263   0.940   0.848  27.993
 3879SOL     OW23264   0.354   0.875   1.410
 3879SOL    HW123265   0.300   0.903   1.484
 3879SOL    HW223266   0.443   0.870   1.445
 3880SOL     OW23267   2.241   0.623  16.594
 3880SOL    HW123268   2.234   0.545  16.539
 3880SOL    HW223269   2.334   0.628  16.616
 3881SOL     OW23270   1.963   3.206   7.886
 3881SOL    HW123271   1.877   3.226   7.923
 3881SOL    HW223272   1.962   3.246   7.799
 3882SOL     OW23273   4.578   0.880   6.883
 3882SOL    HW123274   4.615   0.799   6.846
 3882SOL    HW223275   4.484   0.861   6.891
 3883SOL     OW23276   1.271   3.406  21.820
 3883SOL    HW123277   1.299   3.418  21.730
 3883SOL    HW223278   1.185   3.363  21.813
 3884SOL     OW23279   3.688   2.301   5.859
 3884SOL    HW123280   3.661   2.315   5.950
 3884SOL    HW223281   3.774   2.343   5.853
 3885SOL     OW23282   4.232   2.193   1.229
 3885SOL    HW123283   4.179   2.132   1.282
 3885SOL    HW223284   4.217   2.164   1.138
 3886SOL     OW23285   2.006   1.505  20.562
 3886SOL    HW123286   1.940   1.454  20.610
 3886SOL    HW223287   2.014   1.461  20.478
 3887SOL     OW23288   3.366   2.408   8.424
 3887SOL    HW123289   3.417   2.489   8.416
 3887SOL    HW223290   3.356   2.395   8.518
 3888SOL     OW23291   1.531   3.056   3.709
 3888SOL    HW123292   1.443   3.039   3.741
 3888SOL    HW223293   1.525   3.141   3.666
 3889SOL     OW23294   4.190   0.167   7.290
 3889SOL    HW123295   4.178   0.247   7.240
 3889SOL    HW223296   4.114   0.164   7.349
 3890SOL     OW23297   1.387   0.193   5.956
 3890SOL    HW123298   1.378   0.098   5.967
 3890SOL    HW223299   1.297   0.226   5.965
 3891SOL     OW23300   1.529   2.948   4.818
 3891SOL    HW123301   1.590   2.979   4.884
 3891SOL    HW223302   1.454   3.006   4.825
 3892SOL     OW23303   1.561   0.811  25.743
 3892SOL    HW123304   1.558   0.901  25.776
 3892SOL    HW223305   1.641   0.808  25.691
 3893SOL     OW23306   3.851   2.251  25.068
 3893SOL    HW123307   3.799   2.172  25.082
 3893SOL    HW223308   3.942   2.222  25.076
 3894SOL     OW23309   1.800   0.431   7.957
 3894SOL    HW123310   1.873   0.369   7.959
 3894SOL    HW223311   1.842   0.517   7.963
 3895SOL     OW23312   3.553   1.634  19.318
 3895SOL    HW123313   3.608   1.657  19.393
 3895SOL    HW223314   3.548   1.539  19.321
 3896SOL     OW23315   2.909   0.656   5.994
 3896SOL    HW123316   2.891   0.677   6.085
 3896SOL    HW223317   2.978   0.717   5.968
 3897SOL     OW23318   3.253   2.242  10.022
 3897SOL    HW123319   3.276   2.327  10.061
 3897SOL    HW223320   3.290   2.246   9.934
 3898SOL     OW23321   0.571   2.716   6.468
 3898SOL    HW123322   0.541   2.778   6.535
 3898SOL    HW223323   0.603   2.641   6.518
 3899SOL     OW23324   1.893   2.979  27.116
 3899SOL    HW123325   1.976   2.980  27.069
 3899SOL    HW223326   1.853   2.895  27.094
 3900SOL     OW23327   4.220   4.406  24.917
 3900SOL    HW123328   4.164   4.331  24.936
 3900SOL    HW223329   4.221   4.456  24.999
 3901SOL     OW23330   4.624   0.451   2.303
 3901SOL    HW123331   4.614   0.374   2.358
 3901SOL    HW223332   4.535   0.488   2.296
 3902SOL     OW23333   0.307   3.336  20.927
 3902SOL    HW123334   0.230   3.384  20.957
 3902SOL    HW223335   0.285   3.308  20.839
 3903SOL     OW23336   1.589   2.424  27.432
 3903SOL    HW123337   1.627   2.345  27.471
 3903SOL    HW223338   1.548   2.393  27.351
 3904SOL     OW23339   0.032   2.575  24.178
 3904SOL    HW123340   0.101   2.615  24.232
 3904SOL    HW223341   4.774   2.648  24.132
 3905SOL     OW23342   4.316   3.457  24.449
 3905SOL    HW123343   4.307   3.362  24.449
 3905SOL    HW223344   4.320   3.481  24.542
 3906SOL     OW23345   2.228   3.418  22.425
 3906SOL    HW123346   2.259   3.497  22.380
 3906SOL    HW223347   2.307   3.366  22.439
 3907SOL     OW23348   3.366   0.645   5.502
 3907SOL    HW123349   3.436   0.710   5.501
 3907SOL    HW223350   3.383   0.593   5.580
 3908SOL     OW23351   4.309   2.910   8.587
 3908SOL    HW123352   4.276   2.877   8.503
 3908SOL    HW223353   4.391   2.954   8.564
 3909SOL     OW23354   2.288   2.215  24.759
 3909SOL    HW123355   2.272   2.121  24.764
 3909SOL    HW223356   2.317   2.239  24.847
 3910SOL     OW23357   0.595   0.322   7.087
 3910SOL    HW123358   0.614   0.416   7.095
 3910SOL    HW223359   0.678   0.279   7.106
 3911SOL     OW23360   3.025   3.585   0.405
 3911SOL    HW123361   3.115   3.577   0.373
 3911SOL    HW223362   2.995   3.494   0.416
 3912SOL     OW23363   1.859   3.085  25.389
 3912SOL    HW123364   1.831   3.063  25.300
 3912SOL    HW223365   1.951   3.109  25.380
 3913SOL     OW23366   0.305   4.586   9.358
 3913SOL    HW123367   0.289   4.670   9.401
 3913SOL    HW223368   0.297   4.522   9.429
 3914SOL     OW23369   0.503   1.241   8.703
 3914SOL    HW123370   0.578   1.189   8.674
 3914SOL    HW223371   0.427   1.186   8.685
 3915SOL     OW23372   0.679   0.647   4.547
 3915SOL    HW123373   0.599   0.611   4.508
 3915SOL    HW223374   0.750   0.603   4.502
 3916SOL     OW23375   0.126   4.472   6.724
 3916SOL    HW123376   0.041   4.471   6.767
 3916SOL    HW223377   0.110   4.516   6.640
 3917SOL     OW23378   3.100   0.399  27.572
 3917SOL    HW123379   3.058   0.414  27.487
 3917SOL    HW223380   3.090   0.482  27.619
 3918SOL     OW23381   3.610   0.171  20.543
 3918SOL    HW123382   3.602   0.236  20.613
 3918SOL    HW223383   3.704   0.158  20.533
 3919SOL     OW23384   4.081   4.483   1.046
 3919SOL    HW123385   4.009   4.433   1.083
 3919SOL    HW223386   4.038   4.555   0.999
 3920SOL     OW23387   0.562   2.268   7.545
 3920SOL    HW123388   0.633   2.233   7.491
 3920SOL    HW223389   0.594   2.261   7.635
 3921SOL     OW23390   4.778   1.169  21.223
 3921SOL    HW123391   4.748   1.138  21.309
 3921SOL    HW223392   0.065   1.231  21.243
 3922SOL     OW23393   1.952   3.878  22.047
 3922SOL    HW123394   2.018   3.865  22.115
 3922SOL    HW223395   1.873   3.839  22.084
 3923SOL     OW23396   1.465   2.926  22.544
 3923SOL    HW123397   1.372   2.912  22.528
 3923SOL    HW223398   1.509   2.873  22.477
 3924SOL     OW23399   3.060   0.595   8.583
 3924SOL    HW123400   3.002   0.662   8.618
 3924SOL    HW223401   3.022   0.512   8.614
 3925SOL     OW23402   1.405   3.674  19.063
 3925SOL    HW123403   1.352   3.753  19.052
 3925SOL    HW223404   1.340   3.604  19.076
 3926SOL     OW23405   2.773   2.491  26.173
 3926SOL    HW123406   2.809   2.426  26.114
 3926SOL    HW223407   2.828   2.568  26.161
 3927SOL     OW23408   1.768   3.714  23.443
 3927SOL    HW123409   1.763   3.761  23.359
 3927SOL    HW223410   1.861   3.690  23.451
 3928SOL     OW23411   1.404   4.449  24.570
 3928SOL    HW123412   1.364   4.490  24.494
 3928SOL    HW223413   1.487   4.415  24.538
 3929SOL     OW23414   2.787   3.847  25.441
 3929SOL    HW123415   2.790   3.886  25.354
 3929SOL    HW223416   2.722   3.777  25.434
 3930SOL     OW23417   1.068   3.005   5.677
 3930SOL    HW123418   1.080   2.948   5.753
 3930SOL    HW223419   1.132   2.974   5.613
 3931SOL     OW23420   4.058   2.813   6.722
 3931SOL    HW123421   4.123   2.824   6.653
 3931SOL    HW223422   4.034   2.903   6.747
 3932SOL     OW23423   1.219   0.947   0.257
 3932SOL    HW123424   1.284   0.994   0.310
 3932SOL    HW223425   1.203   1.004   0.182
 3933SOL     OW23426   1.812   2.865  26.582
 3933SOL    HW123427   1.823   2.919  26.503
 3933SOL    HW223428   1.811   2.928  26.654
 3934SOL     OW23429   0.736   2.182   8.611
 3934SOL    HW123430   0.791   2.185   8.533
 3934SOL    HW223431   0.727   2.274   8.637
 3935SOL     OW23432   4.439   3.836   6.946
 3935SOL    HW123433   4.525   3.854   6.984
 3935SOL    HW223434   4.453   3.840   6.852
 3936SOL     OW23435   2.273   0.645   3.905
 3936SOL    HW123436   2.265   0.740   3.903
 3936SOL    HW223437   2.348   0.629   3.963
 3937SOL     OW23438   4.408   2.826   0.091
 3937SOL    HW123439   4.452   2.741   0.090
 3937SOL    HW223440   4.475   2.887   0.123
 3938SOL     OW23441   1.246   3.520   1.299
 3938SOL    HW123442   1.331   3.562   1.312
 3938SOL    HW223443   1.188   3.564   1.361
 3939SOL     OW23444   3.091   3.916  28.360
 3939SOL    HW123445   3.060   4.002  28.388
 3939SOL    HW223446   3.167   3.899  28.415
 3940SOL     OW23447   4.261   3.504  22.365
 3940SOL    HW123448   4.315   3.456  22.303
 3940SOL    HW223449   4.228   3.438  22.426
 3941SOL     OW23450   0.304   1.848   0.116
 3941SOL    HW123451   0.355   1.839   0.036
 3941SOL    HW223452   0.251   1.927   0.101
 3942SOL     OW23453   3.423   2.712  21.662
 3942SOL    HW123454   3.486   2.753  21.602
 3942SOL    HW223455   3.453   2.738  21.749
 3943SOL     OW23456   3.202   0.974  23.047
 3943SOL    HW123457   3.276   0.974  23.108
 3943SOL    HW223458   3.173   1.065  23.044
 3944SOL     OW23459   0.203   3.697  27.335
 3944SOL    HW123460   0.110   3.689  27.357
 3944SOL    HW223461   0.229   3.782  27.370
 3945SOL     OW23462   3.711   1.625  20.057
 3945SOL    HW123463   3.740   1.659  20.141
 3945SOL    HW223464   3.620   1.654  20.049
 3946SOL     OW23465   1.508   0.107  24.380
 3946SOL    HW123466   1.481   0.132  24.468
 3946SOL    HW223467   1.485   0.015  24.373
 3947SOL     OW23468   2.081   2.694   9.269
 3947SOL    HW123469   2.158   2.668   9.321
 3947SOL    HW223470   2.009   2.693   9.333
 3948SOL     OW23471   3.132   2.508   5.351
 3948SOL    HW123472   3.049   2.546   5.323
 3948SOL    HW223473   3.123   2.414   5.337
 3949SOL     OW23474   0.936   4.116   7.864
 3949SOL    HW123475   0.990   4.037   7.856
 3949SOL    HW223476   0.871   4.094   7.931
 3950SOL     OW23477   1.604   3.474   0.790
 3950SOL    HW123478   1.608   3.489   0.884
 3950SOL    HW223479   1.647   3.551   0.752
 3951SOL     OW23480   0.793   0.968  24.794
 3951SOL    HW123481   0.882   0.951  24.827
 3951SOL    HW223482   0.791   1.062  24.777
 3952SOL     OW23483   1.688   4.772  22.905
 3952SOL    HW123484   1.610   4.717  22.890
 3952SOL    HW223485   1.679   0.061  22.842
 3953SOL     OW23486   1.315   3.061  24.757
 3953SOL    HW123487   1.244   3.071  24.693
 3953SOL    HW223488   1.374   3.134  24.739
 3954SOL     OW23489   0.698   1.481   4.316
 3954SOL    HW123490   0.724   1.389   4.310
 3954SOL    HW223491   0.627   1.482   4.380
 3955SOL     OW23492   3.600   2.534  25.049
 3955SOL    HW123493   3.549   2.548  24.970
 3955SOL    HW223494   3.691   2.540  25.020
 3956SOL     OW23495   0.432   3.800  24.568
 3956SOL    HW123496   0.461   3.741  24.637
 3956SOL    HW223497   0.421   3.744  24.491
 3957SOL     OW23498   3.587   3.852   6.311
 3957SOL    HW123499   3.512   3.874   6.366
 3957SOL    HW223500   3.587   3.756   6.309
 3958SOL     OW23501   3.580   0.690   8.596
 3958SOL    HW123502   3.639   0.654   8.530
 3958SOL    HW223503   3.538   0.613   8.635
 3959SOL     OW23504   0.715   0.886   9.933
 3959SOL    HW123505   0.768   0.834   9.993
 3959SOL    HW223506   0.653   0.932   9.989
 3960SOL     OW23507   1.802   3.938   3.982
 3960SOL    HW123508   1.763   4.020   3.953
 3960SOL    HW223509   1.839   3.900   3.903
 3961SOL     OW23510   0.222   0.850   9.393
 3961SOL    HW123511   0.141   0.899   9.381
 3961SOL    HW223512   0.194   0.760   9.411
 3962SOL     OW23513   2.016   3.035  20.521
 3962SOL    HW123514   2.064   2.965  20.478
 3962SOL    HW223515   2.055   3.041  20.608
 3963SOL     OW23516   0.052   1.742  10.980
 3963SOL    HW123517   0.105   1.809  11.022
 3963SOL    HW223518   0.001   1.704  11.052
 3964SOL     OW23519   4.069   2.755   0.121
 3964SOL    HW123520   4.053   2.819   0.051
 3964SOL    HW223521   4.150   2.784   0.162
 3965SOL     OW23522   1.544   0.924   5.584
 3965SOL    HW123523   1.562   0.878   5.666
 3965SOL    HW223524   1.478   0.870   5.540
 3966SOL     OW23525   1.563   0.312  23.886
 3966SOL    HW123526   1.560   0.243  23.952
 3966SOL    HW223527   1.566   0.393  23.936
 3967SOL     OW23528   3.449   1.165  27.140
 3967SOL    HW123529   3.424   1.226  27.209
 3967SOL    HW223530   3.466   1.221  27.064
 3968SOL     OW23531   4.655   0.362  24.908
 3968SOL    HW123532   4.563   0.375  24.884
 3968SOL    HW223533   4.652   0.299  24.981
 3969SOL     OW23534   2.005   1.615   0.413
 3969SOL    HW123535   2.027   1.524   0.397
 3969SOL    HW223536   1.941   1.636   0.344
 3970SOL     OW23537   3.514   1.352   5.822
 3970SOL    HW123538   3.420   1.335   5.825
 3970SOL    HW223539   3.554   1.273   5.860
 3971SOL     OW23540   0.996   2.077  22.241
 3971SOL    HW123541   0.947   2.095  22.321
 3971SOL    HW223542   1.083   2.053  22.271
 3972SOL     OW23543   1.281   4.242   0.784
 3972SOL    HW123544   1.258   4.246   0.877
 3972SOL    HW223545   1.202   4.270   0.738
 3973SOL     OW23546   0.775   4.314  20.319
 3973SOL    HW123547   0.758   4.230  20.277
 3973SOL    HW223548   0.695   4.364  20.306
 3974SOL     OW23549   0.032   2.503  18.119
 3974SOL    HW123550   0.025   2.475  18.210
 3974SOL    HW223551   0.040   2.598  18.124
 3975SOL     OW23552   2.410   3.654  23.690
 3975SOL    HW123553   2.474   3.671  23.760
 3975SOL    HW223554   2.400   3.559  23.690
 3976SOL     OW23555   2.384   0.740   4.688
 3976SOL    HW123556   2.396   0.834   4.674
 3976SOL    HW223557   2.302   0.719   4.644
 3977SOL     OW23558   4.206   0.392   1.072
 3977SOL    HW123559   4.218   0.302   1.040
 3977SOL    HW223560   4.130   0.387   1.129
 3978SOL     OW23561   2.741   0.656   9.737
 3978SOL    HW123562   2.781   0.570   9.734
 3978SOL    HW223563   2.648   0.640   9.723
 3979SOL     OW23564   2.392   0.320  25.876
 3979SOL    HW123565   2.420   0.243  25.827
 3979SOL    HW223566   2.445   0.392  25.841
 3980SOL     OW23567   3.786   4.562   0.261
 3980SOL    HW123568   3.855   4.617   0.225
 3980SOL    HW223569   3.767   4.599   0.347
 3981SOL     OW23570   3.267   3.156  19.995
 3981SOL    HW123571   3.226   3.230  20.041
 3981SOL    HW223572   3.236   3.079  20.042
 3982SOL     OW23573   2.061   2.662  26.676
 3982SOL    HW123574   2.061   2.611  26.595
 3982SOL    HW223575   2.118   2.613  26.736
 3983SOL     OW23576   1.102   2.035   3.300
 3983SOL    HW123577   1.190   1.999   3.313
 3983SOL    HW223578   1.046   1.959   3.290
 3984SOL     OW23579   0.337   0.027  23.305
 3984SOL    HW123580   0.413   0.058  23.257
 3984SOL    HW223581   0.324   0.091  23.375
 3985SOL     OW23582   3.603   4.730  27.300
 3985SOL    HW123583   3.598   4.728  27.204
 3985SOL    HW223584   3.607   4.637  27.325
 3986SOL     OW23585   2.844   3.041   2.172
 3986SOL    HW123586   2.770   3.045   2.112
 3986SOL    HW223587   2.805   3.030   2.258
 3987SOL     OW23588   2.118   4.123   3.097
 3987SOL    HW123589   2.112   4.205   3.047
 3987SOL    HW223590   2.170   4.066   3.041
 3988SOL     OW23591   0.736   3.120   6.053
 3988SOL    HW123592   0.819   3.164   6.038
 3988SOL    HW223593   0.720   3.069   5.974
 3989SOL     OW23594   0.463   4.042  22.877
 3989SOL    HW123595   0.431   4.110  22.818
 3989SOL    HW223596   0.525   4.087  22.935
 3990SOL     OW23597   1.618   1.949  26.991
 3990SOL    HW123598   1.547   1.993  26.944
 3990SOL    HW223599   1.640   1.873  26.938
 3991SOL     OW23600   3.937   2.465  17.741
 3991SOL    HW123601   3.921   2.550  17.782
 3991SOL    HW223602   3.881   2.465  17.664
 3992SOL     OW23603   3.556   3.928   6.703
 3992SOL    HW123604   3.638   3.968   6.675
 3992SOL    HW223605   3.555   3.842   6.661
 3993SOL     OW23606   1.817   1.070   8.915
 3993SOL    HW123607   1.860   1.026   8.988
 3993SOL    HW223608   1.851   1.159   8.918
 3994SOL     OW23609   0.976   2.184  24.201
 3994SOL    HW123610   0.886   2.196  24.171
 3994SOL    HW223611   0.967   2.132  24.281
 3995SOL     OW23612   4.055   3.670  10.548
 3995SOL    HW123613   3.990   3.654  10.616
 3995SOL    HW223614   4.004   3.692  10.470
 3996SOL     OW23615   2.339   1.947   4.862
 3996SOL    HW123616   2.360   1.854   4.853
 3996SOL    HW223617   2.330   1.960   4.957
 3997SOL     OW23618   0.811   4.114   9.644
 3997SOL    HW123619   0.845   4.201   9.667
 3997SOL    HW223620   0.884   4.072   9.598
 3998SOL     OW23621   1.242   1.821  21.476
 3998SOL    HW123622   1.244   1.732  21.511
 3998SOL    HW223623   1.333   1.839  21.451
 3999SOL     OW23624   4.597   2.231   3.266
 3999SOL    HW123625   4.510   2.251   3.233
 3999SOL    HW223626   4.584   2.155   3.324
 4000SOL     OW23627   3.305   0.265   2.278
 4000SOL    HW123628   3.222   0.221   2.258
 4000SOL    HW223629   3.282   0.332   2.343
 4001SOL     OW23630   2.398   0.339   1.885
 4001SOL    HW123631   2.371   0.283   1.812
 4001SOL    HW223632   2.388   0.428   1.851
 4002SOL     OW23633   3.079   3.369   1.535
 4002SOL    HW123634   3.006   3.382   1.475
 4002SOL    HW223635   3.041   3.380   1.622
 4003SOL     OW23636   1.985   4.524  24.521
 4003SOL    HW123637   2.042   4.596  24.497
 4003SOL    HW223638   2.011   4.452  24.464
 4004SOL     OW23639   4.063   1.945   6.290
 4004SOL    HW123640   4.090   1.856   6.311
 4004SOL    HW223641   4.003   1.969   6.361
 4005SOL     OW23642   2.696   2.056   4.739
 4005SOL    HW123643   2.690   2.148   4.763
 4005SOL    HW223644   2.771   2.051   4.680
 4006SOL     OW23645   4.033   0.609  18.995
 4006SOL    HW123646   4.031   0.517  19.020
 4006SOL    HW223647   4.035   0.608  18.899
 4007SOL     OW23648   2.357   2.311   0.980
 4007SOL    HW123649   2.279   2.367   0.975
 4007SOL    HW223650   2.353   2.257   0.901
 4008SOL     OW23651   3.830   2.676  24.191
 4008SOL    HW123652   3.791   2.660  24.104
 4008SOL    HW223653   3.827   2.772  24.200
 4009SOL     OW23654   1.567   3.868   7.652
 4009SOL    HW123655   1.546   3.775   7.658
 4009SOL    HW223656   1.482   3.912   7.643
 4010SOL     OW23657   3.510   2.665  20.427
 4010SOL    HW123658   3.480   2.705  20.345
 4010SOL    HW223659   3.602   2.689  20.433
 4011SOL     OW23660   0.351   1.406   2.574
 4011SOL    HW123661   0.361   1.359   2.491
 4011SOL    HW223662   0.273   1.366   2.614
 4012SOL     OW23663   3.378   1.050  26.242
 4012SOL    HW123664   3.414   1.083  26.325
 4012SOL    HW223665   3.408   1.112  26.176
 4013SOL     OW23666   2.059   4.221   7.833
 4013SOL    HW123667   2.134   4.250   7.780
 4013SOL    HW223668   2.092   4.145   7.881
 4014SOL     OW23669   1.471   2.992   3.991
 4014SOL    HW123670   1.539   2.974   3.927
 4014SOL    HW223671   1.471   3.088   3.999
 4015SOL     OW23672   0.609   0.724   7.795
 4015SOL    HW123673   0.596   0.633   7.820
 4015SOL    HW223674   0.625   0.720   7.701
 4016SOL     OW23675   0.396   1.961  20.088
 4016SOL    HW123676   0.419   1.978  19.997
 4016SOL    HW223677   0.446   1.883  20.111
 4017SOL     OW23678   2.872   1.184  21.522
 4017SOL    HW123679   2.904   1.102  21.561
 4017SOL    HW223680   2.790   1.201  21.567
 4018SOL     OW23681   3.180   2.755   7.870
 4018SOL    HW123682   3.209   2.792   7.954
 4018SOL    HW223683   3.112   2.692   7.895
 4019SOL     OW23684   3.460   2.971  19.362
 4019SOL    HW123685   3.478   2.917  19.439
 4019SOL    HW223686   3.510   3.052  19.377
 4020SOL     OW23687   2.591   2.174  23.857
 4020SOL    HW123688   2.542   2.220  23.925
 4020SOL    HW223689   2.578   2.226  23.778
 4021SOL     OW23690   1.430   0.810  21.910
 4021SOL    HW123691   1.379   0.885  21.879
 4021SOL    HW223692   1.505   0.806  21.851
 4022SOL     OW23693   1.165   3.091  27.817
 4022SOL    HW123694   1.076   3.107  27.847
 4022SOL    HW223695   1.216   3.078  27.897
 4023SOL     OW23696   0.223   3.938   7.324
 4023SOL    HW123697   0.204   3.998   7.252
 4023SOL    HW223698   0.318   3.922   7.319
 4024SOL     OW23699   3.911   2.828  24.897
 4024SOL    HW123700   3.832   2.842  24.949
 4024SOL    HW223701   3.879   2.785  24.817
 4025SOL     OW23702   0.767   3.835   4.420
 4025SOL    HW123703   0.803   3.896   4.483
 4025SOL    HW223704   0.680   3.813   4.453
 4026SOL     OW23705   4.724   0.071  28.323
 4026SOL    HW123706   4.694   0.090  28.412
 4026SOL    HW223707   4.647   0.085  28.268
 4027SOL     OW23708   0.922   0.856   0.384
 4027SOL    HW123709   0.992   0.798   0.412
 4027SOL    HW223710   0.853   0.797   0.353
 4028SOL     OW23711   0.343   1.481  20.862
 4028SOL    HW123712   0.350   1.415  20.931
 4028SOL    HW223713   0.389   1.557  20.897
 4029SOL     OW23714   2.915   1.676  10.190
 4029SOL    HW123715   2.826   1.689  10.222
 4029SOL    HW223716   2.971   1.699  10.265
 4030SOL     OW23717   1.197   1.051   8.437
 4030SOL    HW123718   1.194   0.993   8.514
 4030SOL    HW223719   1.289   1.052   8.412
 4031SOL     OW23720   0.059   3.635  24.105
 4031SOL    HW123721   0.110   3.620  24.025
 4031SOL    HW223722   0.085   3.564  24.164
 4032SOL     OW23723   1.376   1.239  18.491
 4032SOL    HW123724   1.418   1.161  18.456
 4032SOL    HW223725   1.312   1.264  18.425
 4033SOL     OW23726   4.462   4.223   6.988
 4033SOL    HW123727   4.432   4.293   7.046
 4033SOL    HW223728   4.557   4.234   6.982
 4034SOL     OW23729   4.477   0.583  21.118
 4034SOL    HW123730   4.402   0.580  21.058
 4034SOL    HW223731   4.459   0.514  21.182
 4035SOL     OW23732   3.205   0.709   4.906
 4035SOL    HW123733   3.266   0.781   4.889
 4035SOL    HW223734   3.215   0.690   4.999
 4036SOL     OW23735   4.663   0.490  20.401
 4036SOL    HW123736   4.689   0.582  20.403
 4036SOL    HW223737   4.581   0.489  20.352
 4037SOL     OW23738   0.723   4.261   7.103
 4037SOL    HW123739   0.787   4.275   7.172
 4037SOL    HW223740   0.642   4.298   7.137
 4038SOL     OW23741   3.450   2.722   8.033
 4038SOL    HW123742   3.463   2.665   7.958
 4038SOL    HW223743   3.473   2.809   8.002
 4039SOL     OW23744   0.753   3.366   2.907
 4039SOL    HW123745   0.779   3.414   2.828
 4039SOL    HW223746   0.804   3.406   2.977
 4040SOL     OW23747   3.650   0.417   0.282
 4040SOL    HW123748   3.670   0.334   0.238
 4040SOL    HW223749   3.584   0.459   0.226
 4041SOL     OW23750   2.159   4.454  21.505
 4041SOL    HW123751   2.177   4.448  21.599
 4041SOL    HW223752   2.244   4.476  21.466
 4042SOL     OW23753   4.386   0.400  19.576
 4042SOL    HW123754   4.478   0.418  19.596
 4042SOL    HW223755   4.338   0.466  19.626
 4043SOL     OW23756   4.671   4.202  21.652
 4043SOL    HW123757   4.743   4.188  21.714
 4043SOL    HW223758   4.592   4.189  21.704
 4044SOL     OW23759   3.519   4.691  28.382
 4044SOL    HW123760   3.571   4.636  28.441
 4044SOL    HW223761   3.461   4.630  28.336
 4045SOL     OW23762   4.161   1.426  24.398
 4045SOL    HW123763   4.174   1.364  24.326
 4045SOL    HW223764   4.246   1.470  24.407
 4046SOL     OW23765   4.153   1.447  27.418
 4046SOL    HW123766   4.108   1.440  27.502
 4046SOL    HW223767   4.082   1.465  27.355
 4047SOL     OW23768   4.726   1.141   2.283
 4047SOL    HW123769   4.649   1.142   2.226
 4047SOL    HW223770   4.759   1.230   2.281
 4048SOL     OW23771   1.399   3.491  21.563
 4048SOL    HW123772   1.372   3.571  21.518
 4048SOL    HW223773   1.420   3.429  21.494
 4049SOL     OW23774   0.610   2.549   4.934
 4049SOL    HW123775   0.662   2.469   4.929
 4049SOL    HW223776   0.616   2.577   5.025
 4050SOL     OW23777   0.354   0.172  25.849
 4050SOL    HW123778   0.342   0.082  25.879
 4050SOL    HW223779   0.291   0.223  25.900
 4051SOL     OW23780   2.934   4.287  21.397
 4051SOL    HW123781   3.017   4.331  21.377
 4051SOL    HW223782   2.954   4.194  21.390
 4052SOL     OW23783   2.586   1.349  26.720
 4052SOL    HW123784   2.651   1.282  26.698
 4052SOL    HW223785   2.597   1.363  26.814
 4053SOL     OW23786   1.476   0.261  21.072
 4053SOL    HW123787   1.456   0.334  21.131
 4053SOL    HW223788   1.572   0.260  21.068
 4054SOL     OW23789   0.079   4.450  17.156
 4054SOL    HW123790   0.085   4.456  17.251
 4054SOL    HW223791   4.768   4.457  17.137
 4055SOL     OW23792   3.967   2.725  26.977
 4055SOL    HW123793   3.886   2.730  26.927
 4055SOL    HW223794   3.944   2.760  27.063
 4056SOL     OW23795   1.820   3.372   7.309
 4056SOL    HW123796   1.750   3.435   7.294
 4056SOL    HW223797   1.900   3.424   7.304
 4057SOL     OW23798   0.803   0.097   2.397
 4057SOL    HW123799   0.783   0.004   2.393
 4057SOL    HW223800   0.740   0.133   2.459
 4058SOL     OW23801   2.844   0.608  16.963
 4058SOL    HW123802   2.841   0.703  16.949
 4058SOL    HW223803   2.858   0.572  16.875
 4059SOL     OW23804   3.190   1.326   4.738
 4059SOL    HW123805   3.096   1.318   4.752
 4059SOL    HW223806   3.227   1.249   4.780
 4060SOL     OW23807   2.694   3.017   2.407
 4060SOL    HW123808   2.761   2.994   2.472
 4060SOL    HW223809   2.635   3.076   2.454
 4061SOL     OW23810   4.432   0.977  22.705
 4061SOL    HW123811   4.405   0.964  22.614
 4061SOL    HW223812   4.419   0.892  22.747
 4062SOL     OW23813   1.951   4.245   9.225
 4062SOL    HW123814   1.997   4.287   9.153
 4062SOL    HW223815   1.986   4.287   9.304
 4063SOL     OW23816   3.580   0.997   2.911
 4063SOL    HW123817   3.630   0.917   2.928
 4063SOL    HW223818   3.491   0.966   2.892
 4064SOL     OW23819   3.655   0.554  19.492
 4064SOL    HW123820   3.627   0.645  19.492
 4064SOL    HW223821   3.679   0.536  19.583
 4065SOL     OW23822   1.297   0.208  23.318
 4065SOL    HW123823   1.291   0.182  23.410
 4065SOL    HW223824   1.228   0.158  23.274
 4066SOL     OW23825   4.053   0.837   2.820
 4066SOL    HW123826   4.114   0.764   2.810
 4066SOL    HW223827   3.966   0.798   2.810
 4067SOL     OW23828   4.428   2.040   7.035
 4067SOL    HW123829   4.398   1.976   7.098
 4067SOL    HW223830   4.377   2.119   7.053
 4068SOL     OW23831   3.931   1.481   4.421
 4068SOL    HW123832   4.006   1.511   4.472
 4068SOL    HW223833   3.919   1.549   4.354
 4069SOL     OW23834   3.030   1.772  28.153
 4069SOL    HW123835   2.979   1.728  28.085
 4069SOL    HW223836   2.976   1.766  28.231
 4070SOL     OW23837   1.571   2.456  11.081
 4070SOL    HW123838   1.641   2.518  11.065
 4070SOL    HW223839   1.532   2.484  11.164
 4071SOL     OW23840   2.245   3.551   4.286
 4071SOL    HW123841   2.292   3.589   4.211
 4071SOL    HW223842   2.257   3.457   4.277
 4072SOL     OW23843   4.339   1.933  18.260
 4072SOL    HW123844   4.370   1.914  18.171
 4072SOL    HW223845   4.355   2.026  18.272
 4073SOL     OW23846   2.502   2.534   1.691
 4073SOL    HW123847   2.520   2.471   1.622
 4073SOL    HW223848   2.438   2.594   1.653
 4074SOL     OW23849   1.416   3.163   7.807
 4074SOL    HW123850   1.396   3.241   7.858
 4074SOL    HW223851   1.443   3.098   7.871
 4075SOL     OW23852   3.742   0.891   9.928
 4075SOL    HW123853   3.652   0.870   9.954
 4075SOL    HW223854   3.784   0.807   9.915
 4076SOL     OW23855   3.524   3.236   7.302
 4076SOL    HW123856   3.493   3.146   7.292
 4076SOL    HW223857   3.598   3.229   7.363
 4077SOL     OW23858   3.727   1.144  11.417
 4077SOL    HW123859   3.707   1.134  11.323
 4077SOL    HW223860   3.703   1.234  11.437
 4078SOL     OW23861   4.170   4.730  27.777
 4078SOL    HW123862   4.081   4.697  27.781
 4078SOL    HW223863   4.161   0.042  27.787
 4079SOL     OW23864   4.228   2.507  22.892
 4079SOL    HW123865   4.219   2.550  22.976
 4079SOL    HW223866   4.260   2.419  22.913
 4080SOL     OW23867   3.159   3.428   4.397
 4080SOL    HW123868   3.251   3.403   4.394
 4080SOL    HW223869   3.112   3.344   4.403
 4081SOL     OW23870   1.327   0.257  22.781
 4081SOL    HW123871   1.349   0.184  22.723
 4081SOL    HW223872   1.394   0.256  22.848
 4082SOL     OW23873   4.499   0.582  24.717
 4082SOL    HW123874   4.453   0.610  24.796
 4082SOL    HW223875   4.522   0.663  24.673
 4083SOL     OW23876   2.674   3.926   8.345
 4083SOL    HW123877   2.728   3.867   8.398
 4083SOL    HW223878   2.692   4.013   8.381
 4084SOL     OW23879   3.871   2.191  21.542
 4084SOL    HW123880   3.930   2.143  21.601
 4084SOL    HW223881   3.797   2.215  21.597
 4085SOL     OW23882   3.313   1.895   4.143
 4085SOL    HW123883   3.371   1.877   4.217
 4085SOL    HW223884   3.323   1.820   4.085
 4086SOL     OW23885   3.470   3.040   8.268
 4086SOL    HW123886   3.408   2.985   8.317
 4086SOL    HW223887   3.419   3.117   8.242
 4087SOL     OW23888   4.188   3.057   5.889
 4087SOL    HW123889   4.282   3.039   5.894
 4087SOL    HW223890   4.173   3.079   5.797
 4088SOL     OW23891   2.332   4.193   1.975
 4088SOL    HW123892   2.297   4.248   1.905
 4088SOL    HW223893   2.262   4.131   1.994
 4089SOL     OW23894   3.014   3.976   9.343
 4089SOL    HW123895   3.014   4.026   9.261
 4089SOL    HW223896   2.937   3.919   9.337
 4090SOL     OW23897   1.296   0.945   2.684
 4090SOL    HW123898   1.334   0.877   2.739
 4090SOL    HW223899   1.202   0.929   2.686
 4091SOL     OW23900   4.706   0.418  19.924
 4091SOL    HW123901   4.716   0.441  19.832
 4091SOL    HW223902   4.636   0.475  19.956
 4092SOL     OW23903   3.921   2.592   9.647
 4092SOL    HW123904   3.931   2.560   9.736
 4092SOL    HW223905   3.858   2.663   9.653
 4093SOL     OW23906   0.900   3.182  27.902
 4093SOL    HW123907   0.882   3.225  27.818
 4093SOL    HW223908   0.831   3.213  27.960
 4094SOL     OW23909   1.683   3.970  10.611
 4094SOL    HW123910   1.753   4.018  10.656
 4094SOL    HW223911   1.727   3.925  10.539
 4095SOL     OW23912   0.155   2.194   0.069
 4095SOL    HW123913   0.170   2.272   0.016
 4095SOL    HW223914   0.133   2.227   0.156
 4096SOL     OW23915   2.002   3.124  26.773
 4096SOL    HW123916   2.092   3.154  26.782
 4096SOL    HW223917   1.958   3.194  26.726
 4097SOL     OW23918   1.684   1.388   9.174
 4097SOL    HW123919   1.642   1.473   9.190
 4097SOL    HW223920   1.737   1.401   9.096
 4098SOL     OW23921   3.356   1.122  25.534
 4098SOL    HW123922   3.322   1.205  25.502
 4098SOL    HW223923   3.278   1.069  25.549
 4099SOL     OW23924   1.918   0.025   3.850
 4099SOL    HW123925   1.950   0.089   3.786
 4099SOL    HW223926   1.863   4.748   3.798
 4100SOL     OW23927   3.079   2.121  24.625
 4100SOL    HW123928   3.144   2.078  24.681
 4100SOL    HW223929   3.068   2.060  24.551
 4101SOL     OW23930   4.083   4.068   5.279
 4101SOL    HW123931   4.025   4.127   5.327
 4101SOL    HW223932   4.059   4.081   5.187
 4102SOL     OW23933   4.061   3.931  23.927
 4102SOL    HW123934   4.025   3.885  23.852
 4102SOL    HW223935   4.053   3.869  24.000
 4103SOL     OW23936   3.468   2.797   4.143
 4103SOL    HW123937   3.447   2.891   4.143
 4103SOL    HW223938   3.456   2.770   4.052
 4104SOL     OW23939   3.641   3.147   2.399
 4104SOL    HW123940   3.590   3.153   2.318
 4104SOL    HW223941   3.591   3.087   2.455
 4105SOL     OW23942   4.635   1.523  27.158
 4105SOL    HW123943   4.698   1.453  27.175
 4105SOL    HW223944   4.616   1.516  27.065
 4106SOL     OW23945   2.564   2.351  24.295
 4106SOL    HW123946   2.516   2.306  24.364
 4106SOL    HW223947   2.556   2.294  24.218
 4107SOL     OW23948   1.842   4.600  20.046
 4107SOL    HW123949   1.918   4.575  20.099
 4107SOL    HW223950   1.768   4.554  20.087
 4108SOL     OW23951   4.083   1.212  26.392
 4108SOL    HW123952   4.079   1.294  26.441
 4108SOL    HW223953   4.096   1.145  26.459
 4109SOL     OW23954   2.215   3.100   9.465
 4109SOL    HW123955   2.161   3.021   9.452
 4109SOL    HW223956   2.304   3.072   9.440
 4110SOL     OW23957   1.730   2.588   4.738
 4110SOL    HW123958   1.660   2.534   4.702
 4110SOL    HW223959   1.689   2.638   4.808
 4111SOL     OW23960   2.998   1.614  24.031
 4111SOL    HW123961   2.964   1.563  23.958
 4111SOL    HW223962   3.091   1.591  24.034
 4112SOL     OW23963   4.775   2.652   3.650
 4112SOL    HW123964   0.068   2.690   3.695
 4112SOL    HW223965   4.705   2.653   3.716
 4113SOL     OW23966   4.281   3.445  24.729
 4113SOL    HW123967   4.240   3.530  24.747
 4113SOL    HW223968   4.291   3.404  24.815
 4114SOL     OW23969   2.012   0.149  20.351
 4114SOL    HW123970   2.071   0.076  20.332
 4114SOL    HW223971   2.066   0.213  20.397
 4115SOL     OW23972   4.706   4.634  21.198
 4115SOL    HW123973   4.643   4.579  21.244
 4115SOL    HW223974   0.008   4.611  21.236
 4116SOL     OW23975   1.099   2.158   9.694
 4116SOL    HW123976   1.016   2.125   9.729
 4116SOL    HW223977   1.093   2.143   9.599
 4117SOL     OW23978   3.251   1.679   8.031
 4117SOL    HW123979   3.191   1.668   8.105
 4117SOL    HW223980   3.338   1.667   8.068
 4118SOL     OW23981   3.709   1.241   3.090
 4118SOL    HW123982   3.781   1.191   3.127
 4118SOL    HW223983   3.631   1.209   3.135
 4119SOL     OW23984   0.646   0.153  27.013
 4119SOL    HW123985   0.649   0.105  26.931
 4119SOL    HW223986   0.599   0.094  27.073
 4120SOL     OW23987   2.444   4.443  22.412
 4120SOL    HW123988   2.516   4.386  22.438
 4120SOL    HW223989   2.423   4.493  22.491
 4121SOL     OW23990   0.461   4.564   3.058
 4121SOL    HW123991   0.401   4.566   2.983
 4121SOL    HW223992   0.548   4.578   3.020
 4122SOL     OW23993   2.349   1.846  25.276
 4122SOL    HW123994   2.336   1.778  25.210
 4122SOL    HW223995   2.433   1.823  25.317
 4123SOL     OW23996   0.320   3.524   2.441
 4123SOL    HW123997   0.305   3.619   2.437
 4123SOL    HW223998   0.338   3.508   2.534
 4124SOL     OW23999   0.538   0.945  20.637
 4124SOL    HW124000   0.559   1.033  20.671
 4124SOL    HW224001   0.475   0.961  20.567
 4125SOL     OW24002   0.439   3.045  21.350
 4125SOL    HW124003   0.516   3.074  21.399
 4125SOL    HW224004   0.465   3.052  21.258
 4126SOL     OW24005   3.762   0.789  27.327
 4126SOL    HW124006   3.739   0.720  27.265
 4126SOL    HW224007   3.854   0.775  27.347
 4127SOL     OW24008   3.968   0.081   3.425
 4127SOL    HW124009   3.875   0.087   3.446
 4127SOL    HW224010   3.971   0.054   3.333
 4128SOL     OW24011   2.678   4.137  27.286
 4128SOL    HW124012   2.747   4.204  27.287
 4128SOL    HW224013   2.666   4.114  27.378
 4129SOL     OW24014   2.849   4.755   4.965
 4129SOL    HW124015   2.825   4.664   4.979
 4129SOL    HW224016   2.862   0.008   5.053
 4130SOL     OW24017   0.411   2.423  27.367
 4130SOL    HW124018   0.401   2.513  27.334
 4130SOL    HW224019   0.446   2.434  27.456
 4131SOL     OW24020   4.640   0.131  22.497
 4131SOL    HW124021   4.569   0.145  22.435
 4131SOL    HW224022   4.698   0.207  22.485
 4132SOL     OW24023   1.381   4.275  22.127
 4132SOL    HW124024   1.321   4.311  22.192
 4132SOL    HW224025   1.407   4.190  22.163
 4133SOL     OW24026   3.258   1.878   3.032
 4133SOL    HW124027   3.318   1.912   2.966
 4133SOL    HW224028   3.250   1.785   3.011
 4134SOL     OW24029   4.629   4.657   3.782
 4134SOL    HW124030   4.613   4.564   3.798
 4134SOL    HW224031   4.551   4.701   3.817
 4135SOL     OW24032   3.426   2.577   9.728
 4135SOL    HW124033   3.492   2.608   9.790
 4135SOL    HW224034   3.342   2.596   9.771
 4136SOL     OW24035   2.111   4.722   5.299
 4136SOL    HW124036   2.168   4.711   5.374
 4136SOL    HW224037   2.044   4.654   5.309
 4137SOL     OW24038   1.193   0.802  24.417
 4137SOL    HW124039   1.146   0.743  24.358
 4137SOL    HW224040   1.285   0.792  24.392
 4138SOL     OW24041   2.070   2.788   9.827
 4138SOL    HW124042   1.981   2.766   9.801
 4138SOL    HW224043   2.061   2.828   9.913
 4139SOL     OW24044   0.012   3.180  22.343
 4139SOL    HW124045   4.743   3.199  22.421
 4139SOL    HW224046   4.772   3.090  22.321
 4140SOL     OW24047   0.895   2.602  21.985
 4140SOL    HW124048   0.868   2.567  21.901
 4140SOL    HW224049   0.924   2.525  22.035
 4141SOL     OW24050   3.278   0.024   6.368
 4141SOL    HW124051   3.292   0.091   6.301
 4141SOL    HW224052   3.190   0.041   6.400
 4142SOL     OW24053   4.718   0.451   5.171
 4142SOL    HW124054   4.726   0.369   5.221
 4142SOL    HW224055   4.771   0.514   5.221
 4143SOL     OW24056   1.286   0.180   2.105
 4143SOL    HW124057   1.205   0.231   2.103
 4143SOL    HW224058   1.351   0.239   2.142
 4144SOL     OW24059   0.964   2.141   1.537
 4144SOL    HW124060   0.983   2.065   1.592
 4144SOL    HW224061   1.030   2.206   1.562
 4145SOL     OW24062   2.574   3.762   8.614
 4145SOL    HW124063   2.653   3.816   8.607
 4145SOL    HW224064   2.600   3.690   8.671
 4146SOL     OW24065   4.766   1.004  10.479
 4146SOL    HW124066   4.687   0.980  10.526
 4146SOL    HW224067   4.743   0.995  10.387
 4147SOL     OW24068   2.715   4.567   8.368
 4147SOL    HW124069   2.739   4.474   8.358
 4147SOL    HW224070   2.621   4.565   8.386
 4148SOL     OW24071   2.454   4.598   8.450
 4148SOL    HW124072   2.398   4.672   8.425
 4148SOL    HW224073   2.485   4.620   8.538
 4149SOL     OW24074   0.080   2.090  27.336
 4149SOL    HW124075   0.047   2.125  27.254
 4149SOL    HW224076   0.081   1.995  27.323
 4150SOL     OW24077   3.613   1.071  23.962
 4150SOL    HW124078   3.660   1.014  24.024
 4150SOL    HW224079   3.675   1.086  23.891
 4151SOL     OW24080   4.119   0.985   0.519
 4151SOL    HW124081   4.190   0.953   0.575
 4151SOL    HW224082   4.165   1.030   0.447
 4152SOL     OW24083   4.120   1.668  20.571
 4152SOL    HW124084   4.026   1.690  20.571
 4152SOL    HW224085   4.154   1.710  20.650
 4153SOL     OW24086   1.483   1.236  24.121
 4153SOL    HW124087   1.416   1.171  24.101
 4153SOL    HW224088   1.519   1.259  24.036
 4154SOL     OW24089   1.092   4.282   3.436
 4154SOL    HW124090   1.039   4.248   3.509
 4154SOL    HW224091   1.045   4.360   3.407
 4155SOL     OW24092   0.575   0.156   5.576
 4155SOL    HW124093   0.592   0.083   5.516
 4155SOL    HW224094   0.574   0.234   5.520
 4156SOL     OW24095   2.375   2.762   4.322
 4156SOL    HW124096   2.376   2.734   4.230
 4156SOL    HW224097   2.340   2.687   4.370
 4157SOL     OW24098   3.419   3.395   4.818
 4157SOL    HW124099   3.364   3.462   4.777
 4157SOL    HW224100   3.369   3.369   4.896
 4158SOL     OW24101   1.438   2.618  28.421
 4158SOL    HW124102   1.390   2.698  28.399
 4158SOL    HW224103   1.528   2.635  28.392
 4159SOL     OW24104   0.955   4.238   8.265
 4159SOL    HW124105   1.050   4.232   8.265
 4159SOL    HW224106   0.936   4.328   8.238
 4160SOL     OW24107   0.258   2.657  22.293
 4160SOL    HW124108   0.248   2.751  22.307
 4160SOL    HW224109   0.216   2.641  22.209
 4161SOL     OW24110   0.201   3.833   1.577
 4161SOL    HW124111   0.140   3.899   1.612
 4161SOL    HW224112   0.147   3.779   1.520
 4162SOL     OW24113   1.096   0.356  24.376
 4162SOL    HW124114   1.162   0.326  24.313
 4162SOL    HW224115   1.105   0.451  24.375
 4163SOL     OW24116   3.445   4.071   3.048
 4163SOL    HW124117   3.416   4.127   2.976
 4163SOL    HW224118   3.365   4.027   3.078
 4164SOL     OW24119   1.522   3.615   9.755
 4164SOL    HW124120   1.592   3.557   9.725
 4164SOL    HW224121   1.535   3.622   9.849
 4165SOL     OW24122   3.306   1.692  28.198
 4165SOL    HW124123   3.292   1.643  28.280
 4165SOL    HW224124   3.219   1.725  28.175
 4166SOL     OW24125   0.683   0.895   7.977
 4166SOL    HW124126   0.665   0.820   7.920
 4166SOL    HW224127   0.688   0.858   8.065
 4167SOL     OW24128   2.695   0.145  23.066
 4167SOL    HW124129   2.619   0.172  23.014
 4167SOL    HW224130   2.707   0.215  23.130
 4168SOL     OW24131   0.032   4.200  21.193
 4168SOL    HW124132   0.065   4.112  21.209
 4168SOL    HW224133   4.725   4.187  21.162
 4169SOL     OW24134   1.040   1.302  17.898
 4169SOL    HW124135   0.960   1.332  17.940
 4169SOL    HW224136   1.111   1.342  17.949
 4170SOL     OW24137   4.490   1.249   6.127
 4170SOL    HW124138   4.435   1.179   6.162
 4170SOL    HW224139   4.489   1.235   6.032
 4171SOL     OW24140   4.436   1.727   3.874
 4171SOL    HW124141   4.519   1.688   3.846
 4171SOL    HW224142   4.443   1.733   3.969
 4172SOL     OW24143   1.083   2.977  22.162
 4172SOL    HW124144   1.096   2.994  22.069
 4172SOL    HW224145   0.993   2.946  22.169
 4173SOL     OW24146   0.774   1.371  20.710
 4173SOL    HW124147   0.740   1.447  20.663
 4173SOL    HW224148   0.863   1.360  20.678
 4174SOL     OW24149   3.912   0.174  25.443
 4174SOL    HW124150   3.968   0.235  25.395
 4174SOL    HW224151   3.964   0.149  25.519
 4175SOL     OW24152   0.706   1.027  21.511
 4175SOL    HW124153   0.634   1.019  21.574
 4175SOL    HW224154   0.716   0.938  21.475
 4176SOL     OW24155   2.846   3.815   8.525
 4176SOL    HW124156   2.908   3.746   8.498
 4176SOL    HW224157   2.893   3.865   8.592
 4177SOL     OW24158   0.235   1.036  20.550
 4177SOL    HW124159   0.216   1.007  20.639
 4177SOL    HW224160   0.245   1.131  20.557
 4178SOL     OW24161   0.815   1.134  10.364
 4178SOL    HW124162   0.863   1.172  10.438
 4178SOL    HW224163   0.818   1.202  10.296
 4179SOL     OW24164   0.899   1.482  21.658
 4179SOL    HW124165   0.901   1.426  21.581
 4179SOL    HW224166   0.813   1.524  21.655
 4180SOL     OW24167   0.263   1.024  27.683
 4180SOL    HW124168   0.303   1.009  27.598
 4180SOL    HW224169   0.253   1.119  27.688
 4181SOL     OW24170   1.856   0.127  13.467
 4181SOL    HW124171   1.871   0.166  13.554
 4181SOL    HW224172   1.786   0.063  13.481
 4182SOL     OW24173   0.902   2.927  25.014
 4182SOL    HW124174   0.978   2.981  25.037
 4182SOL    HW224175   0.911   2.911  24.920
 4183SOL     OW24176   1.104   0.682  20.071
 4183SOL    HW124177   1.064   0.677  20.157
 4183SOL    HW224178   1.154   0.601  20.063
 4184SOL     OW24179   0.329   1.217   1.937
 4184SOL    HW124180   0.384   1.230   2.014
 4184SOL    HW224181   0.366   1.277   1.871
 4185SOL     OW24182   2.209   2.793   0.419
 4185SOL    HW124183   2.185   2.744   0.498
 4185SOL    HW224184   2.284   2.745   0.383
 4186SOL     OW24185   1.858   3.479  24.038
 4186SOL    HW124186   1.765   3.504  24.047
 4186SOL    HW224187   1.885   3.520  23.956
 4187SOL     OW24188   2.358   0.279  20.174
 4187SOL    HW124189   2.393   0.197  20.140
 4187SOL    HW224190   2.337   0.261  20.265
 4188SOL     OW24191   1.122   3.209   5.853
 4188SOL    HW124192   1.112   3.131   5.800
 4188SOL    HW224193   1.148   3.177   5.940
 4189SOL     OW24194   1.942   2.897  25.926
 4189SOL    HW124195   1.867   2.923  25.980
 4189SOL    HW224196   1.904   2.879  25.840
 4190SOL     OW24197   0.753   0.859   8.244
 4190SOL    HW124198   0.788   0.838   8.331
 4190SOL    HW224199   0.751   0.955   8.241
 4191SOL     OW24200   3.684   0.819  25.605
 4191SOL    HW124201   3.773   0.792  25.587
 4191SOL    HW224202   3.664   0.884  25.537
 4192SOL     OW24203   4.118   0.321   7.762
 4192SOL    HW124204   4.042   0.347   7.708
 4192SOL    HW224205   4.087   0.247   7.813
 4193SOL     OW24206   3.382   1.925  18.239
 4193SOL    HW124207   3.345   1.950  18.324
 4193SOL    HW224208   3.366   2.001  18.182
 4194SOL     OW24209   0.013   2.101  22.874
 4194SOL    HW124210   0.022   2.041  22.800
 4194SOL    HW224211   4.744   2.174  22.840
 4195SOL     OW24212   3.951   0.790  19.768
 4195SOL    HW124213   3.882   0.856  19.761
 4195SOL    HW224214   3.938   0.752  19.855
 4196SOL     OW24215   3.677   3.313   4.848
 4196SOL    HW124216   3.711   3.383   4.793
 4196SOL    HW224217   3.582   3.323   4.844
 4197SOL     OW24218   1.068   1.986  19.044
 4197SOL    HW124219   0.980   2.001  19.078
 4197SOL    HW224220   1.054   1.944  18.959
 4198SOL     OW24221   4.535   2.115  21.454
 4198SOL    HW124222   4.545   2.085  21.363
 4198SOL    HW224223   4.518   2.035  21.503
 4199SOL     OW24224   0.213   1.153   6.825
 4199SOL    HW124225   0.220   1.247   6.840
 4199SOL    HW224226   0.120   1.133   6.836
 4200SOL     OW24227   2.373   4.417   2.600
 4200SOL    HW124228   2.306   4.483   2.614
 4200SOL    HW224229   2.394   4.421   2.507
 4201SOL     OW24230   2.039   0.545  25.663
 4201SOL    HW124231   2.108   0.563  25.599
 4201SOL    HW224232   2.078   0.565  25.748
 4202SOL     OW24233   4.564   4.402  10.546
 4202SOL    HW124234   4.477   4.434  10.572
 4202SOL    HW224235   4.623   4.475  10.565
 4203SOL     OW24236   3.428   4.370  27.751
 4203SOL    HW124237   3.507   4.379  27.803
 4203SOL    HW224238   3.375   4.447  27.773
 4204SOL     OW24239   0.737   2.442   0.952
 4204SOL    HW124240   0.774   2.504   1.015
 4204SOL    HW224241   0.763   2.356   0.986
 4205SOL     OW24242   0.070   3.753  22.518
 4205SOL    HW124243   0.142   3.810  22.544
 4205SOL    HW224244   0.019   3.804  22.456
 4206SOL     OW24245   3.180   4.012   0.151
 4206SOL    HW124246   3.087   3.993   0.157
 4206SOL    HW224247   3.219   3.933   0.113
 4207SOL     OW24248   0.932   1.132  12.524
 4207SOL    HW124249   0.963   1.181  12.448
 4207SOL    HW224250   1.000   1.144  12.591
 4208SOL     OW24251   3.552   1.777   7.822
 4208SOL    HW124252   3.487   1.713   7.792
 4208SOL    HW224253   3.597   1.733   7.894
 4209SOL     OW24254   4.532   0.010   4.502
 4209SOL    HW124255   4.475   4.734   4.452
 4209SOL    HW224256   4.476   0.046   4.570
 4210SOL     OW24257   2.091   3.922  10.246
 4210SOL    HW124258   2.099   3.846  10.304
 4210SOL    HW224259   2.166   3.977  10.270
 4211SOL     OW24260   1.166   0.550   9.464
 4211SOL    HW124261   1.226   0.477   9.476
 4211SOL    HW224262   1.083   0.510   9.436
 4212SOL     OW24263   3.319   4.014  27.509
 4212SOL    HW124264   3.297   3.938  27.564
 4212SOL    HW224265   3.236   4.062  27.501
 4213SOL     OW24266   1.620   0.205   9.576
 4213SOL    HW124267   1.560   0.134   9.553
 4213SOL    HW224268   1.676   0.215   9.498
 4214SOL     OW24269   0.041   2.559  23.340
 4214SOL    HW124270   0.089   2.630  23.384
 4214SOL    HW224271   4.773   2.518  23.411
 4215SOL     OW24272   3.225   4.504   7.198
 4215SOL    HW124273   3.295   4.441   7.182
 4215SOL    HW224274   3.243   4.576   7.137
 4216SOL     OW24275   1.350   3.182   6.437
 4216SOL    HW124276   1.349   3.215   6.347
 4216SOL    HW224277   1.269   3.132   6.445
 4217SOL     OW24278   0.742   1.397   4.680
 4217SOL    HW124279   0.703   1.484   4.689
 4217SOL    HW224280   0.818   1.411   4.623
 4218SOL     OW24281   2.847   4.651   0.353
 4218SOL    HW124282   2.783   4.700   0.404
 4218SOL    HW224283   2.883   4.714   0.292
 4219SOL     OW24284   4.680   2.239   1.072
 4219SOL    HW124285   4.744   2.176   1.039
 4219SOL    HW224286   4.607   2.185   1.103
 4220SOL     OW24287   2.435   1.605   7.970
 4220SOL    HW124288   2.402   1.556   8.045
 4220SOL    HW224289   2.525   1.627   7.993
 4221SOL     OW24290   2.675   2.287   0.368
 4221SOL    HW124291   2.690   2.364   0.423
 4221SOL    HW224292   2.702   2.314   0.280
 4222SOL     OW24293   0.554   0.410  21.077
 4222SOL    HW124294   0.606   0.412  20.997
 4222SOL    HW224295   0.463   0.412  21.046
 4223SOL     OW24296   4.272   2.702   4.003
 4223SOL    HW124297   4.360   2.734   3.988
 4223SOL    HW224298   4.225   2.776   4.042
 4224SOL     OW24299   2.322   0.576   5.280
 4224SOL    HW124300   2.309   0.650   5.339
 4224SOL    HW224301   2.415   0.553   5.291
 4225SOL     OW24302   4.100   0.828   3.292
 4225SOL    HW124303   4.108   0.762   3.361
 4225SOL    HW224304   4.072   0.779   3.215
 4226SOL     OW24305   3.703   3.612   5.115
 4226SOL    HW124306   3.684   3.670   5.041
 4226SOL    HW224307   3.691   3.667   5.192
 4227SOL     OW24308   0.934   4.487  10.104
 4227SOL    HW124309   0.914   4.565  10.051
 4227SOL    HW224310   0.850   4.443  10.115
 4228SOL     OW24311   1.119   3.471   2.265
 4228SOL    HW124312   1.043   3.489   2.320
 4228SOL    HW224313   1.086   3.474   2.176
 4229SOL     OW24314   1.111   3.314   1.942
 4229SOL    HW124315   1.083   3.223   1.937
 4229SOL    HW224316   1.206   3.310   1.956
 4230SOL     OW24317   3.141   3.976   3.575
 4230SOL    HW124318   3.096   4.008   3.654
 4230SOL    HW224319   3.137   3.881   3.582
 4231SOL     OW24320   3.563   3.310  24.499
 4231SOL    HW124321   3.575   3.349  24.413
 4231SOL    HW224322   3.604   3.372  24.559
 4232SOL     OW24323   0.737   4.236  10.322
 4232SOL    HW124324   0.709   4.309  10.267
 4232SOL    HW224325   0.828   4.257  10.344
 4233SOL     OW24326   0.862   4.052  20.502
 4233SOL    HW124327   0.768   4.049  20.519
 4233SOL    HW224328   0.881   4.145  20.490
 4234SOL     OW24329   3.605   2.912   6.475
 4234SOL    HW124330   3.642   2.911   6.564
 4234SOL    HW224331   3.563   2.826   6.466
 4235SOL     OW24332   1.988   0.401  22.590
 4235SOL    HW124333   1.987   0.348  22.670
 4235SOL    HW224334   2.056   0.362  22.536
 4236SOL     OW24335   0.527   4.501  26.561
 4236SOL    HW124336   0.618   4.491  26.533
 4236SOL    HW224337   0.502   4.588  26.529
 4237SOL     OW24338   2.566   1.308  22.732
 4237SOL    HW124339   2.582   1.224  22.775
 4237SOL    HW224340   2.627   1.369  22.773
 4238SOL     OW24341   3.626   3.098  20.088
 4238SOL    HW124342   3.609   3.192  20.093
 4238SOL    HW224343   3.570   3.060  20.155
 4239SOL     OW24344   2.829   3.235   4.319
 4239SOL    HW124345   2.755   3.260   4.375
 4239SOL    HW224346   2.800   3.257   4.231
 4240SOL     OW24347   4.360   3.906   2.745
 4240SOL    HW124348   4.302   3.982   2.751
 4240SOL    HW224349   4.394   3.895   2.833
 4241SOL     OW24350   1.391   2.615   2.353
 4241SOL    HW124351   1.445   2.694   2.351
 4241SOL    HW224352   1.413   2.573   2.436
 4242SOL     OW24353   0.091   3.386   8.771
 4242SOL    HW124354   0.123   3.318   8.711
 4242SOL    HW224355   0.060   3.337   8.847
 4243SOL     OW24356   1.861   1.524  20.876
 4243SOL    HW124357   1.782   1.506  20.824
 4243SOL    HW224358   1.854   1.616  20.899
 4244SOL     OW24359   1.758   1.397   0.756
 4244SOL    HW124360   1.830   1.387   0.818
 4244SOL    HW224361   1.685   1.350   0.797
 4245SOL     OW24362   2.942   1.842  21.498
 4245SOL    HW124363   2.903   1.870  21.580
 4245SOL    HW224364   2.877   1.784  21.459
 4246SOL     OW24365   0.557   0.634   8.738
 4246SOL    HW124366   0.607   0.710   8.767
 4246SOL    HW224367   0.499   0.613   8.811
 4247SOL     OW24368   1.969   3.256  24.193
 4247SOL    HW124369   1.937   3.318  24.128
 4247SOL    HW224370   1.901   3.188  24.198
 4248SOL     OW24371   1.780   2.644  11.080
 4248SOL    HW124372   1.854   2.595  11.043
 4248SOL    HW224373   1.813   2.678  11.163
 4249SOL     OW24374   3.354   3.329   3.541
 4249SOL    HW124375   3.430   3.388   3.541
 4249SOL    HW224376   3.286   3.378   3.495
 4250SOL     OW24377   1.349   2.964   6.987
 4250SOL    HW124378   1.396   2.989   7.067
 4250SOL    HW224379   1.405   2.899   6.945
 4251SOL     OW24380   3.646   1.776   0.202
 4251SOL    HW124381   3.619   1.758   0.112
 4251SOL    HW224382   3.582   1.729   0.256
 4252SOL     OW24383   4.317   4.606  18.426
 4252SOL    HW124384   4.386   4.541  18.419
 4252SOL    HW224385   4.277   4.609  18.338
 4253SOL     OW24386   4.442   2.314   2.602
 4253SOL    HW124387   4.384   2.389   2.588
 4253SOL    HW224388   4.434   2.262   2.521
 4254SOL     OW24389   0.096   1.132   8.057
 4254SOL    HW124390   0.081   1.140   7.963
 4254SOL    HW224391   0.048   1.206   8.095
 4255SOL     OW24392   3.672   2.960   6.228
 4255SOL    HW124393   3.766   2.967   6.215
 4255SOL    HW224394   3.662   2.924   6.316
 4256SOL     OW24395   4.640   1.439  20.704
 4256SOL    HW124396   4.710   1.461  20.766
 4256SOL    HW224397   4.667   1.482  20.623
 4257SOL     OW24398   1.195   1.994   0.375
 4257SOL    HW124399   1.209   1.900   0.384
 4257SOL    HW224400   1.283   2.031   0.368
 4258SOL     OW24401   0.843   3.819   6.131
 4258SOL    HW124402   0.789   3.878   6.078
 4258SOL    HW224403   0.783   3.749   6.158
 4259SOL     OW24404   3.718   1.074   3.855
 4259SOL    HW124405   3.701   1.041   3.767
 4259SOL    HW224406   3.813   1.067   3.864
 4260SOL     OW24407   0.974   1.507  21.912
 4260SOL    HW124408   1.028   1.585  21.900
 4260SOL    HW224409   0.954   1.478  21.823
 4261SOL     OW24410   0.681   3.109  22.685
 4261SOL    HW124411   0.712   3.019  22.674
 4261SOL    HW224412   0.757   3.157  22.718
 4262SOL     OW24413   3.025   0.476   9.480
 4262SOL    HW124414   3.021   0.485   9.575
 4262SOL    HW224415   3.024   0.566   9.448
 4263SOL     OW24416   0.232   0.765   2.584
 4263SOL    HW124417   0.302   0.826   2.606
 4263SOL    HW224418   0.206   0.790   2.495
 4264SOL     OW24419   1.651   3.584  26.710
 4264SOL    HW124420   1.582   3.554  26.651
 4264SOL    HW224421   1.604   3.617  26.787
 4265SOL     OW24422   1.121   4.283   2.013
 4265SOL    HW124423   1.191   4.224   1.985
 4265SOL    HW224424   1.085   4.317   1.931
 4266SOL     OW24425   4.314   1.660  19.288
 4266SOL    HW124426   4.376   1.594  19.318
 4266SOL    HW224427   4.250   1.611  19.237
 4267SOL     OW24428   2.816   1.215   3.412
 4267SOL    HW124429   2.720   1.211   3.417
 4267SOL    HW224430   2.834   1.237   3.321
 4268SOL     OW24431   2.154   2.254   0.454
 4268SOL    HW124432   2.088   2.213   0.399
 4268SOL    HW224433   2.234   2.253   0.400
 4269SOL     OW24434   3.477   2.231  25.276
 4269SOL    HW124435   3.443   2.150  25.314
 4269SOL    HW224436   3.400   2.275  25.239
 4270SOL     OW24437   2.557   4.463   5.066
 4270SOL    HW124438   2.515   4.459   5.152
 4270SOL    HW224439   2.492   4.426   5.006
 4271SOL     OW24440   0.882   3.633  22.776
 4271SOL    HW124441   0.799   3.593  22.803
 4271SOL    HW224442   0.900   3.699  22.844
 4272SOL     OW24443   0.431   1.295  20.060
 4272SOL    HW124444   0.440   1.344  19.978
 4272SOL    HW224445   0.478   1.347  20.125
 4273SOL     OW24446   4.157   3.488  25.285
 4273SOL    HW124447   4.232   3.455  25.236
 4273SOL    HW224448   4.122   3.410  25.329
 4274SOL     OW24449   3.225   3.664  22.572
 4274SOL    HW124450   3.267   3.718  22.506
 4274SOL    HW224451   3.159   3.613  22.524
 4275SOL     OW24452   2.161   0.087   0.050
 4275SOL    HW124453   2.223   0.029   0.095
 4275SOL    HW224454   2.075   0.060   0.083
 4276SOL     OW24455   4.253   4.220   9.035
 4276SOL    HW124456   4.283   4.206   9.125
 4276SOL    HW224457   4.188   4.290   9.043
 4277SOL     OW24458   3.754   4.005   5.356
 4277SOL    HW124459   3.783   3.914   5.350
 4277SOL    HW224460   3.679   4.001   5.416
 4278SOL     OW24461   3.564   0.577   9.059
 4278SOL    HW124462   3.579   0.500   9.004
 4278SOL    HW224463   3.609   0.558   9.141
 4279SOL     OW24464   2.252   0.914   3.458
 4279SOL    HW124465   2.279   0.912   3.550
 4279SOL    HW224466   2.168   0.961   3.459
 4280SOL     OW24467   2.680   1.685   4.469
 4280SOL    HW124468   2.614   1.741   4.510
 4280SOL    HW224469   2.740   1.745   4.426
 4281SOL     OW24470   1.426   2.817   3.492
 4281SOL    HW124471   1.372   2.811   3.571
 4281SOL    HW224472   1.372   2.777   3.424
 4282SOL     OW24473   0.996   2.330   0.034
 4282SOL    HW124474   1.044   2.256   0.070
 4282SOL    HW224475   0.906   2.317   0.064
 4283SOL     OW24476   3.351   1.114   5.894
 4283SOL    HW124477   3.287   1.185   5.897
 4283SOL    HW224478   3.365   1.090   5.985
 4284SOL     OW24479   0.360   1.659   3.057
 4284SOL    HW124480   0.287   1.599   3.040
 4284SOL    HW224481   0.366   1.713   2.978
 4285SOL     OW24482   2.415   0.139  22.552
 4285SOL    HW124483   2.484   0.142  22.619
 4285SOL    HW224484   2.460   0.103  22.474
 4286SOL     OW24485   0.489   3.783  26.598
 4286SOL    HW124486   0.408   3.737  26.619
 4286SOL    HW224487   0.479   3.809  26.506
 4287SOL     OW24488   4.006   3.335  20.882
 4287SOL    HW124489   4.073   3.278  20.922
 4287SOL    HW224490   4.053   3.379  20.811
 4288SOL     OW24491   1.227   3.373  20.677
 4288SOL    HW124492   1.235   3.456  20.631
 4288SOL    HW224493   1.249   3.307  20.612
 4289SOL     OW24494   3.831   2.782   2.364
 4289SOL    HW124495   3.926   2.793   2.352
 4289SOL    HW224496   3.819   2.787   2.459
 4290SOL     OW24497   2.189   1.859   5.421
 4290SOL    HW124498   2.094   1.847   5.414
 4290SOL    HW224499   2.199   1.924   5.491
 4291SOL     OW24500   3.159   0.861   6.138
 4291SOL    HW124501   3.187   0.777   6.103
 4291SOL    HW224502   3.116   0.839   6.221
 4292SOL     OW24503   0.779   2.749   0.539
 4292SOL    HW124504   0.721   2.824   0.542
 4292SOL    HW224505   0.845   2.766   0.606
 4293SOL     OW24506   0.371   1.975  26.775
 4293SOL    HW124507   0.448   1.927  26.807
 4293SOL    HW224508   0.382   2.064  26.808
 4294SOL     OW24509   2.346   1.641  18.718
 4294SOL    HW124510   2.364   1.715  18.776
 4294SOL    HW224511   2.293   1.678  18.648
 4295SOL     OW24512   0.854   3.514  21.722
 4295SOL    HW124513   0.880   3.602  21.696
 4295SOL    HW224514   0.766   3.523  21.757
 4296SOL     OW24515   3.020   2.181   3.250
 4296SOL    HW124516   2.973   2.166   3.168
 4296SOL    HW224517   3.110   2.199   3.223
 4297SOL     OW24518   3.454   3.772   5.718
 4297SOL    HW124519   3.392   3.765   5.790
 4297SOL    HW224520   3.514   3.698   5.731
 4298SOL     OW24521   0.893   3.144   5.497
 4298SOL    HW124522   0.976   3.147   5.544
 4298SOL    HW224523   0.879   3.051   5.480
 4299SOL     OW24524   3.169   0.606   1.882
 4299SOL    HW124525   3.158   0.644   1.794
 4299SOL    HW224526   3.255   0.637   1.911
 4300SOL     OW24527   4.398   1.480   0.767
 4300SOL    HW124528   4.356   1.401   0.802
 4300SOL    HW224529   4.375   1.481   0.674
 4301SOL     OW24530   4.199   0.371  18.785
 4301SOL    HW124531   4.105   0.388  18.780
 4301SOL    HW224532   4.231   0.389  18.697
 4302SOL     OW24533   0.332   1.355   7.879
 4302SOL    HW124534   0.427   1.363   7.883
 4302SOL    HW224535   0.301   1.397   7.959
 4303SOL     OW24536   0.110   1.944  10.631
 4303SOL    HW124537   0.185   1.895  10.667
 4303SOL    HW224538   0.104   2.023  10.685
 4304SOL     OW24539   1.257   1.453  20.763
 4304SOL    HW124540   1.241   1.445  20.857
 4304SOL    HW224541   1.278   1.546  20.750
 4305SOL     OW24542   3.201   3.932   5.022
 4305SOL    HW124543   3.254   3.899   4.949
 4305SOL    HW224544   3.265   3.956   5.089
 4306SOL     OW24545   4.572   3.854   6.654
 4306SOL    HW124546   4.607   3.777   6.610
 4306SOL    HW224547   4.637   3.922   6.638
 4307SOL     OW24548   2.111   3.190   0.880
 4307SOL    HW124549   2.116   3.240   0.962
 4307SOL    HW224550   2.033   3.225   0.836
 4308SOL     OW24551   2.194   0.311   4.789
 4308SOL    HW124552   2.257   0.343   4.854
 4308SOL    HW224553   2.160   0.230   4.825
 4309SOL     OW24554   3.637   1.862  11.873
 4309SOL    HW124555   3.724   1.849  11.837
 4309SOL    HW224556   3.646   1.841  11.966
 4310SOL     OW24557   2.196   2.291  23.422
 4310SOL    HW124558   2.239   2.310  23.505
 4310SOL    HW224559   2.117   2.242  23.447
 4311SOL     OW24560   1.692   0.051   0.786
 4311SOL    HW124561   1.686   0.078   0.694
 4311SOL    HW224562   1.639   4.753   0.791
 4312SOL     OW24563   0.413   0.828  22.128
 4312SOL    HW124564   0.447   0.765  22.065
 4312SOL    HW224565   0.353   0.778  22.182
 4313SOL     OW24566   1.464   4.026   3.270
 4313SOL    HW124567   1.498   4.114   3.254
 4313SOL    HW224568   1.369   4.035   3.262
 4314SOL     OW24569   0.107   4.667  19.845
 4314SOL    HW124570   0.046   4.680  19.918
 4314SOL    HW224571   0.054   4.679  19.767
 4315SOL     OW24572   0.338   4.565  11.611
 4315SOL    HW124573   0.300   4.571  11.523
 4315SOL    HW224574   0.393   4.643  11.619
 4316SOL     OW24575   4.673   2.395   3.481
 4316SOL    HW124576   4.692   2.320   3.425
 4316SOL    HW224577   4.666   2.468   3.419
 4317SOL     OW24578   1.428   3.366   7.582
 4317SOL    HW124579   1.510   3.320   7.566
 4317SOL    HW224580   1.394   3.328   7.663
 4318SOL     OW24581   3.416   3.609   3.681
 4318SOL    HW124582   3.419   3.705   3.688
 4318SOL    HW224583   3.475   3.589   3.608
 4319SOL     OW24584   0.416   2.741  24.051
 4319SOL    HW124585   0.508   2.714  24.057
 4319SOL    HW224586   0.386   2.742  24.142
 4320SOL     OW24587   1.664   3.773  25.735
 4320SOL    HW124588   1.642   3.861  25.765
 4320SOL    HW224589   1.759   3.766  25.747
 4321SOL     OW24590   3.852   4.013   3.600
 4321SOL    HW124591   3.769   4.054   3.624
 4321SOL    HW224592   3.912   4.039   3.670
 4322SOL     OW24593   0.561   2.848  22.292
 4322SOL    HW124594   0.546   2.925  22.237
 4322SOL    HW224595   0.521   2.869  22.376
 4323SOL     OW24596   1.604   3.899   5.373
 4323SOL    HW124597   1.566   3.867   5.292
 4323SOL    HW224598   1.592   3.994   5.369
 4324SOL     OW24599   1.297   0.838   4.230
 4324SOL    HW124600   1.274   0.922   4.270
 4324SOL    HW224601   1.319   0.782   4.305
 4325SOL     OW24602   4.494   2.503   7.044
 4325SOL    HW124603   4.483   2.599   7.043
 4325SOL    HW224604   4.584   2.489   7.014
 4326SOL     OW24605   0.559   2.832   9.405
 4326SOL    HW124606   0.604   2.851   9.323
 4326SOL    HW224607   0.593   2.898   9.466
 4327SOL     OW24608   1.366   1.551  26.879
 4327SOL    HW124609   1.271   1.556  26.874
 4327SOL    HW224610   1.384   1.461  26.905
 4328SOL     OW24611   3.584   1.508   2.413
 4328SOL    HW124612   3.628   1.446   2.355
 4328SOL    HW224613   3.590   1.592   2.366
 4329SOL     OW24614   2.870   0.356   1.213
 4329SOL    HW124615   2.802   0.362   1.145
 4329SOL    HW224616   2.952   0.347   1.165
 4330SOL     OW24617   3.289   0.589   0.306
 4330SOL    HW124618   3.273   0.664   0.248
 4330SOL    HW224619   3.229   0.521   0.274
 4331SOL     OW24620   3.318   3.844  21.566
 4331SOL    HW124621   3.326   3.749  21.555
 4331SOL    HW224622   3.267   3.854  21.647
 4332SOL     OW24623   0.060   2.921  10.237
 4332SOL    HW124624   0.078   2.833  10.203
 4332SOL    HW224625   0.039   2.973  10.159
 4333SOL     OW24626   3.581   1.042   4.932
 4333SOL    HW124627   3.582   1.019   5.025
 4333SOL    HW224628   3.626   1.126   4.927
 4334SOL     OW24629   0.291   3.566   5.632
 4334SOL    HW124630   0.375   3.582   5.589
 4334SOL    HW224631   0.229   3.621   5.585
 4335SOL     OW24632   2.785   1.762  28.407
 4335SOL    HW124633   2.737   1.679  28.403
 4335SOL    HW224634   2.844   1.752  28.482
 4336SOL     OW24635   2.394   4.488   6.739
 4336SOL    HW124636   2.397   4.539   6.659
 4336SOL    HW224637   2.414   4.399   6.712
 4337SOL     OW24638   2.810   2.025  23.876
 4337SOL    HW124639   2.734   2.082  23.871
 4337SOL    HW224640   2.882   2.083  23.902
 4338SOL     OW24641   0.232   1.006   4.675
 4338SOL    HW124642   0.197   0.942   4.737
 4338SOL    HW224643   0.251   0.955   4.597
 4339SOL     OW24644   2.554   4.612   6.963
 4339SOL    HW124645   2.522   4.539   6.911
 4339SOL    HW224646   2.640   4.632   6.925
 4340SOL     OW24647   0.710   3.945  24.587
 4340SOL    HW124648   0.772   3.878  24.617
 4340SOL    HW224649   0.657   3.902  24.520
 4341SOL     OW24650   0.573   1.255   1.193
 4341SOL    HW124651   0.599   1.244   1.284
 4341SOL    HW224652   0.547   1.167   1.165
 4342SOL     OW24653   3.170   2.519  24.319
 4342SOL    HW124654   3.245   2.571  24.346
 4342SOL    HW224655   3.169   2.445  24.380
 4343SOL     OW24656   0.393   1.921   0.907
 4343SOL    HW124657   0.450   1.850   0.878
 4343SOL    HW224658   0.435   2.000   0.874
 4344SOL     OW24659   4.266   2.796  23.458
 4344SOL    HW124660   4.283   2.887  23.484
 4344SOL    HW224661   4.170   2.789  23.460
 4345SOL     OW24662   4.421   4.464   4.962
 4345SOL    HW124663   4.345   4.448   5.016
 4345SOL    HW224664   4.389   4.517   4.889
 4346SOL     OW24665   1.881   0.187   5.897
 4346SOL    HW124666   1.818   0.160   5.831
 4346SOL    HW224667   1.886   0.112   5.957
 4347SOL     OW24668   1.982   2.437  24.899
 4347SOL    HW124669   2.020   2.422  24.986
 4347SOL    HW224670   2.051   2.483  24.851
 4348SOL     OW24671   1.290   1.058   9.303
 4348SOL    HW124672   1.266   0.976   9.260
 4348SOL    HW224673   1.340   1.107   9.237
 4349SOL     OW24674   3.753   1.723   6.226
 4349SOL    HW124675   3.704   1.666   6.167
 4349SOL    HW224676   3.717   1.810   6.211
 4350SOL     OW24677   4.298   2.131  27.517
 4350SOL    HW124678   4.344   2.163  27.595
 4350SOL    HW224679   4.259   2.048  27.545
 4351SOL     OW24680   2.572   1.493  27.202
 4351SOL    HW124681   2.641   1.506  27.136
 4351SOL    HW224682   2.539   1.405  27.185
 4352SOL     OW24683   3.431   2.108  20.246
 4352SOL    HW124684   3.353   2.066  20.280
 4352SOL    HW224685   3.504   2.060  20.286
 4353SOL     OW24686   4.744   2.772  22.668
 4353SOL    HW124687   0.049   2.811  22.660
 4353SOL    HW224688   4.731   2.726  22.586
 4354SOL     OW24689   0.278   4.445   3.665
 4354SOL    HW124690   0.303   4.441   3.757
 4354SOL    HW224691   0.182   4.439   3.666
 4355SOL     OW24692   1.914   4.123  25.756
 4355SOL    HW124693   1.860   4.187  25.711
 4355SOL    HW224694   1.958   4.075  25.686
 4356SOL     OW24695   0.892   3.363   1.152
 4356SOL    HW124696   0.900   3.413   1.234
 4356SOL    HW224697   0.915   3.425   1.083
 4357SOL     OW24698   4.399   1.959   8.564
 4357SOL    HW124699   4.494   1.955   8.560
 4357SOL    HW224700   4.379   1.967   8.658
 4358SOL     OW24701   0.961   3.408  22.637
 4358SOL    HW124702   0.887   3.398  22.578
 4358SOL    HW224703   0.935   3.478  22.697
 4359SOL     OW24704   3.931   3.810  21.482
 4359SOL    HW124705   3.856   3.762  21.448
 4359SOL    HW224706   3.894   3.889  21.522
 4360SOL     OW24707   2.504   2.823   0.107
 4360SOL    HW124708   2.419   2.839   0.148
 4360SOL    HW224709   2.527   2.906   0.066
 4361SOL     OW24710   3.372   2.049  17.382
 4361SOL    HW124711   3.409   2.081  17.300
 4361SOL    HW224712   3.277   2.059  17.371
 4362SOL     OW24713   3.962   1.827   5.582
 4362SOL    HW124714   3.991   1.859   5.668
 4362SOL    HW224715   4.029   1.764   5.557
 4363SOL     OW24716   0.548   1.127   9.588
 4363SOL    HW124717   0.499   1.104   9.510
 4363SOL    HW224718   0.600   1.049   9.608
 4364SOL     OW24719   0.611   2.884  23.704
 4364SOL    HW124720   0.656   2.903  23.622
 4364SOL    HW224721   0.564   2.802  23.688
 4365SOL     OW24722   3.567   3.761   1.735
 4365SOL    HW124723   3.607   3.749   1.648
 4365SOL    HW224724   3.591   3.850   1.760
 4366SOL     OW24725   3.707   0.393   9.224
 4366SOL    HW124726   3.765   0.330   9.265
 4366SOL    HW224727   3.637   0.408   9.288
 4367SOL     OW24728   3.279   2.285  12.082
 4367SOL    HW124729   3.280   2.198  12.120
 4367SOL    HW224730   3.357   2.289  12.027
 4368SOL     OW24731   1.697   0.534  11.042
 4368SOL    HW124732   1.716   0.474  11.115
 4368SOL    HW224733   1.767   0.598  11.044
 4369SOL     OW24734   4.165   3.582   8.242
 4369SOL    HW124735   4.226   3.647   8.277
 4369SOL    HW224736   4.095   3.633   8.203
 4370SOL     OW24737   0.851   0.082   4.621
 4370SOL    HW124738   0.786   0.025   4.579
 4370SOL    HW224739   0.820   0.091   4.711
 4371SOL     OW24740   2.177   0.381   6.773
 4371SOL    HW124741   2.155   0.326   6.848
 4371SOL    HW224742   2.266   0.411   6.791
 4372SOL     OW24743   0.741   1.880   8.953
 4372SOL    HW124744   0.797   1.890   8.877
 4372SOL    HW224745   0.795   1.908   9.027
 4373SOL     OW24746   1.676   4.614  19.478
 4373SOL    HW124747   1.597   4.598  19.426
 4373SOL    HW224748   1.650   4.682  19.541
 4374SOL     OW24749   1.137   3.679   1.020
 4374SOL    HW124750   1.196   3.693   1.094
 4374SOL    HW224751   1.178   3.727   0.947
 4375SOL     OW24752   2.911   1.087   9.097
 4375SOL    HW124753   2.910   1.182   9.092
 4375SOL    HW224754   2.937   1.068   9.187
 4376SOL     OW24755   2.050   2.134  28.052
 4376SOL    HW124756   2.016   2.221  28.074
 4376SOL    HW224757   1.974   2.077  28.055
 4377SOL     OW24758   0.547   0.332   0.355
 4377SOL    HW124759   0.642   0.329   0.347
 4377SOL    HW224760   0.519   0.242   0.338
 4378SOL     OW24761   3.151   0.931   1.321
 4378SOL    HW124762   3.236   0.888   1.304
 4378SOL    HW224763   3.172   1.024   1.322
 4379SOL     OW24764   4.646   4.613   9.321
 4379SOL    HW124765   4.587   4.539   9.316
 4379SOL    HW224766   4.731   4.579   9.291
 4380SOL     OW24767   2.564   0.244  11.380
 4380SOL    HW124768   2.577   0.339  11.369
 4380SOL    HW224769   2.483   0.236  11.429
 4381SOL     OW24770   1.992   1.904  24.677
 4381SOL    HW124771   1.987   1.816  24.640
 4381SOL    HW224772   2.017   1.960  24.603
 4382SOL     OW24773   3.200   0.150  10.929
 4382SOL    HW124774   3.251   0.158  11.009
 4382SOL    HW224775   3.127   0.094  10.953
 4383SOL     OW24776   0.308   3.767   4.111
 4383SOL    HW124777   0.233   3.724   4.069
 4383SOL    HW224778   0.348   3.820   4.042
 4384SOL     OW24779   1.828   3.770   1.138
 4384SOL    HW124780   1.775   3.836   1.093
 4384SOL    HW224781   1.917   3.785   1.106
 4385SOL     OW24782   1.842   3.779   5.115
 4385SOL    HW124783   1.892   3.860   5.126
 4385SOL    HW224784   1.878   3.740   5.035
 4386SOL     OW24785   1.837   1.450   8.051
 4386SOL    HW124786   1.898   1.520   8.072
 4386SOL    HW224787   1.761   1.467   8.106
 4387SOL     OW24788   4.569   2.487  24.570
 4387SOL    HW124789   4.597   2.478  24.479
 4387SOL    HW224790   4.593   2.403  24.610
 4388SOL     OW24791   3.876   1.912   2.532
 4388SOL    HW124792   3.896   1.843   2.469
 4388SOL    HW224793   3.957   1.962   2.540
 4389SOL     OW24794   0.018   4.606  25.538
 4389SOL    HW124795   0.094   4.653  25.572
 4389SOL    HW224796   0.026   4.612  25.443
 4390SOL     OW24797   3.971   3.852   5.054
 4390SOL    HW124798   4.006   3.765   5.034
 4390SOL    HW224799   3.949   3.847   5.147
 4391SOL     OW24800   1.336   2.385  25.645
 4391SOL    HW124801   1.426   2.418  25.638
 4391SOL    HW224802   1.294   2.444  25.708
 4392SOL     OW24803   0.013   1.318   4.870
 4392SOL    HW124804   4.764   1.256   4.804
 4392SOL    HW224805   4.759   1.286   4.953
 4393SOL     OW24806   3.643   1.769  18.254
 4393SOL    HW124807   3.671   1.860  18.250
 4393SOL    HW224808   3.719   1.722  18.289
 4394SOL     OW24809   3.638   1.518  21.232
 4394SOL    HW124810   3.705   1.560  21.177
 4394SOL    HW224811   3.579   1.589  21.256
 4395SOL     OW24812   0.881   3.757  21.366
 4395SOL    HW124813   0.878   3.732  21.273
 4395SOL    HW224814   0.862   3.851  21.365
 4396SOL     OW24815   0.205   4.456  25.109
 4396SOL    HW124816   0.148   4.405  25.051
 4396SOL    HW224817   0.230   4.532  25.057
 4397SOL     OW24818   2.934   2.289  27.657
 4397SOL    HW124819   2.970   2.214  27.609
 4397SOL    HW224820   2.882   2.336  27.592
 4398SOL     OW24821   2.570   0.330   1.062
 4398SOL    HW124822   2.523   0.353   0.982
 4398SOL    HW224823   2.651   0.290   1.031
 4399SOL     OW24824   1.447   2.029   6.584
 4399SOL    HW124825   1.424   2.117   6.554
 4399SOL    HW224826   1.512   2.043   6.653
 4400SOL     OW24827   3.772   3.423  26.719
 4400SOL    HW124828   3.770   3.336  26.679
 4400SOL    HW224829   3.787   3.407  26.812
 4401SOL     OW24830   0.812   0.440   7.451
 4401SOL    HW124831   0.763   0.507   7.499
 4401SOL    HW224832   0.829   0.480   7.366
 4402SOL     OW24833   2.498   2.784  22.163
 4402SOL    HW124834   2.555   2.858  22.185
 4402SOL    HW224835   2.418   2.825  22.130
 4403SOL     OW24836   0.624   3.687  21.521
 4403SOL    HW124837   0.561   3.743  21.475
 4403SOL    HW224838   0.692   3.670  21.456
 4404SOL     OW24839   1.740   2.091   3.183
 4404SOL    HW124840   1.833   2.112   3.195
 4404SOL    HW224841   1.720   2.030   3.254
 4405SOL     OW24842   0.336   0.929  23.355
 4405SOL    HW124843   0.325   0.955  23.446
 4405SOL    HW224844   0.269   0.979  23.307
 4406SOL     OW24845   4.734   1.697   7.424
 4406SOL    HW124846   4.778   1.612   7.426
 4406SOL    HW224847   0.016   1.759   7.458
 4407SOL     OW24848   4.071   3.009   0.907
 4407SOL    HW124849   4.063   3.022   1.001
 4407SOL    HW224850   4.102   2.919   0.897
 4408SOL     OW24851   0.610   4.174   2.127
 4408SOL    HW124852   0.592   4.239   2.059
 4408SOL    HW224853   0.553   4.200   2.200
 4409SOL     OW24854   1.665   0.782  19.069
 4409SOL    HW124855   1.743   0.818  19.112
 4409SOL    HW224856   1.628   0.723  19.134
 4410SOL     OW24857   2.243   0.724  23.117
 4410SOL    HW124858   2.222   0.708  23.209
 4410SOL    HW224859   2.333   0.694  23.108
 4411SOL     OW24860   1.267   4.299  28.223
 4411SOL    HW124861   1.214   4.312  28.302
 4411SOL    HW224862   1.339   4.361  28.232
 4412SOL     OW24863   2.170   4.738  13.024
 4412SOL    HW124864   2.139   4.672  13.086
 4412SOL    HW224865   2.238   0.003  13.072
 4413SOL     OW24866   0.557   1.996  26.462
 4413SOL    HW124867   0.536   2.066  26.400
 4413SOL    HW224868   0.548   2.038  26.548
 4414SOL     OW24869   3.478   2.263   8.883
 4414SOL    HW124870   3.441   2.301   8.963
 4414SOL    HW224871   3.455   2.171   8.887
 4415SOL     OW24872   3.026   0.770   6.368
 4415SOL    HW124873   2.956   0.716   6.330
 4415SOL    HW224874   2.982   0.851   6.395
 4416SOL     OW24875   0.278   2.522   1.351
 4416SOL    HW124876   0.333   2.523   1.429
 4416SOL    HW224877   0.225   2.443   1.360
 4417SOL     OW24878   2.454   4.412  19.837
 4417SOL    HW124879   2.366   4.376  19.840
 4417SOL    HW224880   2.510   4.342  19.870
 4418SOL     OW24881   0.160   0.172  13.119
 4418SOL    HW124882   0.134   0.209  13.203
 4418SOL    HW224883   0.251   0.144  13.132
 4419SOL     OW24884   1.037   1.551   7.985
 4419SOL    HW124885   1.121   1.555   8.031
 4419SOL    HW224886   1.001   1.466   8.009
 4420SOL     OW24887   4.664   1.914   8.582
 4420SOL    HW124888   4.742   1.865   8.556
 4420SOL    HW224889   4.687   1.951   8.667
 4421SOL     OW24890   1.021   0.909  27.322
 4421SOL    HW124891   1.082   0.844  27.289
 4421SOL    HW224892   1.024   0.980  27.258
 4422SOL     OW24893   1.464   4.314  19.620
 4422SOL    HW124894   1.392   4.325  19.683
 4422SOL    HW224895   1.420   4.305  19.535
 4423SOL     OW24896   3.034   0.382  10.037
 4423SOL    HW124897   3.017   0.463  10.086
 4423SOL    HW224898   2.998   0.313  10.092
 4424SOL     OW24899   4.566   3.309   9.281
 4424SOL    HW124900   4.525   3.233   9.322
 4424SOL    HW224901   4.509   3.331   9.208
 4425SOL     OW24902   0.602   1.769  23.116
 4425SOL    HW124903   0.577   1.706  23.048
 4425SOL    HW224904   0.533   1.760  23.183
 4426SOL     OW24905   2.544   1.041  20.266
 4426SOL    HW124906   2.451   1.023  20.267
 4426SOL    HW224907   2.551   1.132  20.297
 4427SOL     OW24908   4.308   1.195   6.881
 4427SOL    HW124909   4.261   1.112   6.873
 4427SOL    HW224910   4.239   1.262   6.875
 4428SOL     OW24911   1.916   0.237  25.767
 4428SOL    HW124912   1.855   0.297  25.808
 4428SOL    HW224913   1.869   0.154  25.762
 4429SOL     OW24914   2.857   4.279  23.068
 4429SOL    HW124915   2.892   4.284  22.979
 4429SOL    HW224916   2.897   4.200  23.105
 4430SOL     OW24917   1.156   3.644  18.670
 4430SOL    HW124918   1.132   3.691  18.590
 4430SOL    HW224919   1.215   3.703  18.716
 4431SOL     OW24920   2.927   0.104   4.726
 4431SOL    HW124921   2.928   0.198   4.742
 4431SOL    HW224922   2.911   0.065   4.812
 4432SOL     OW24923   0.863   0.910  17.491
 4432SOL    HW124924   0.917   0.896  17.413
 4432SOL    HW224925   0.808   0.985  17.468
 4433SOL     OW24926   3.874   1.226   3.430
 4433SOL    HW124927   3.927   1.152   3.460
 4433SOL    HW224928   3.787   1.189   3.414
 4434SOL     OW24929   3.787   1.907   4.091
 4434SOL    HW124930   3.862   1.963   4.070
 4434SOL    HW224931   3.726   1.920   4.018
 4435SOL     OW24932   3.567   3.377  19.279
 4435SOL    HW124933   3.588   3.319  19.352
 4435SOL    HW224934   3.498   3.330  19.231
 4436SOL     OW24935   2.060   2.327   4.367
 4436SOL    HW124936   2.097   2.283   4.290
 4436SOL    HW224937   1.971   2.351   4.341
 4437SOL     OW24938   2.329   3.914  19.425
 4437SOL    HW124939   2.367   3.996  19.457
 4437SOL    HW224940   2.278   3.881  19.499
 4438SOL     OW24941   2.099   1.449  27.169
 4438SOL    HW124942   2.049   1.472  27.090
 4438SOL    HW224943   2.103   1.530  27.219
 4439SOL     OW24944   0.766   1.209   4.283
 4439SOL    HW124945   0.852   1.171   4.263
 4439SOL    HW224946   0.736   1.161   4.360
 4440SOL     OW24947   3.514   0.728   6.949
 4440SOL    HW124948   3.518   0.672   7.027
 4440SOL    HW224949   3.515   0.667   6.875
 4441SOL     OW24950   1.051   4.429   6.620
 4441SOL    HW124951   1.087   4.501   6.569
 4441SOL    HW224952   1.104   4.427   6.700
 4442SOL     OW24953   1.915   1.259   4.250
 4442SOL    HW124954   1.963   1.257   4.333
 4442SOL    HW224955   1.861   1.180   4.251
 4443SOL     OW24956   4.153   1.407  23.529
 4443SOL    HW124957   4.226   1.390  23.469
 4443SOL    HW224958   4.140   1.501  23.524
 4444SOL     OW24959   2.888   3.027  20.632
 4444SOL    HW124960   2.883   2.998  20.722
 4444SOL    HW224961   2.920   3.117  20.637
 4445SOL     OW24962   3.049   1.289   7.884
 4445SOL    HW124963   2.963   1.317   7.852
 4445SOL    HW224964   3.091   1.248   7.808
 4446SOL     OW24965   2.517   1.281   0.498
 4446SOL    HW124966   2.542   1.228   0.574
 4446SOL    HW224967   2.471   1.356   0.536
 4447SOL     OW24968   2.251   4.067   4.452
 4447SOL    HW124969   2.286   3.978   4.450
 4447SOL    HW224970   2.214   4.081   4.365
 4448SOL     OW24971   2.549   3.856   1.320
 4448SOL    HW124972   2.540   3.835   1.413
 4448SOL    HW224973   2.492   3.792   1.276
 4449SOL     OW24974   3.214   1.324   2.056
 4449SOL    HW124975   3.127   1.364   2.066
 4449SOL    HW224976   3.208   1.242   2.105
 4450SOL     OW24977   0.120   0.889  26.547
 4450SOL    HW124978   0.072   0.842  26.479
 4450SOL    HW224979   0.151   0.820  26.606
 4451SOL     OW24980   0.196   3.321   0.082
 4451SOL    HW124981   0.235   3.408   0.081
 4451SOL    HW224982   0.263   3.264   0.046
 4452SOL     OW24983   3.060   3.697   5.819
 4452SOL    HW124984   3.023   3.648   5.892
 4452SOL    HW224985   3.154   3.703   5.839
 4453SOL     OW24986   1.596   1.078  25.865
 4453SOL    HW124987   1.572   1.039  25.949
 4453SOL    HW224988   1.513   1.106  25.826
 4454SOL     OW24989   2.546   3.799  23.399
 4454SOL    HW124990   2.628   3.750  23.405
 4454SOL    HW224991   2.484   3.750  23.453
 4455SOL     OW24992   3.670   2.267  21.706
 4455SOL    HW124993   3.681   2.252  21.800
 4455SOL    HW224994   3.592   2.321  21.698
 4456SOL     OW24995   1.212   1.457   3.869
 4456SOL    HW124996   1.164   1.508   3.935
 4456SOL    HW224997   1.278   1.517   3.835
 4457SOL     OW24998   3.261   1.151   9.207
 4457SOL    HW124999   3.267   1.243   9.232
 4457SOL    HW225000   3.349   1.128   9.179
 4458SOL     OW25001   1.030   3.464   3.665
 4458SOL    HW125002   1.007   3.535   3.604
 4458SOL    HW225003   1.002   3.496   3.751
 4459SOL     OW25004   1.167   2.755   8.670
 4459SOL    HW125005   1.232   2.809   8.715
 4459SOL    HW225006   1.147   2.803   8.590
 4460SOL     OW25007   2.952   3.341   8.334
 4460SOL    HW125008   2.995   3.267   8.377
 4460SOL    HW225009   2.860   3.316   8.329
 4461SOL     OW25010   0.993   3.774  19.802
 4461SOL    HW125011   0.988   3.795  19.895
 4461SOL    HW225012   0.905   3.745  19.779
 4462SOL     OW25013   1.301   2.923   5.524
 4462SOL    HW125014   1.348   2.841   5.535
 4462SOL    HW225015   1.366   2.991   5.541
 4463SOL     OW25016   2.550   2.338  26.049
 4463SOL    HW125017   2.464   2.378  26.037
 4463SOL    HW225018   2.597   2.400  26.105
 4464SOL     OW25019   4.631   0.655   9.452
 4464SOL    HW125020   4.722   0.629   9.434
 4464SOL    HW225021   4.592   0.578   9.494
 4465SOL     OW25022   1.266   1.643  23.270
 4465SOL    HW125023   1.235   1.706  23.205
 4465SOL    HW225024   1.187   1.620  23.320
 4466SOL     OW25025   3.870   1.958  21.389
 4466SOL    HW125026   3.875   2.041  21.436
 4466SOL    HW225027   3.790   1.917  21.422
 4467SOL     OW25028   0.243   0.999  23.012
 4467SOL    HW125029   0.334   0.972  23.014
 4467SOL    HW225030   0.210   0.967  22.928
 4468SOL     OW25031   0.555   1.209  22.865
 4468SOL    HW125032   0.630   1.252  22.907
 4468SOL    HW225033   0.584   1.119  22.850
 4469SOL     OW25034   1.671   2.620  26.385
 4469SOL    HW125035   1.715   2.542  26.420
 4469SOL    HW225036   1.608   2.585  26.322
 4470SOL     OW25037   0.848   4.583  24.321
 4470SOL    HW125038   0.842   4.675  24.298
 4470SOL    HW225039   0.845   4.581  24.417
 4471SOL     OW25040   3.354   0.964   5.136
 4471SOL    HW125041   3.401   0.942   5.216
 4471SOL    HW225042   3.310   1.046   5.156
 4472SOL     OW25043   1.478   2.924   3.048
 4472SOL    HW125044   1.504   2.981   3.121
 4472SOL    HW225045   1.438   2.983   2.984
 4473SOL     OW25046   2.629   2.351  25.274
 4473SOL    HW125047   2.686   2.351  25.351
 4473SOL    HW225048   2.571   2.276  25.287
 4474SOL     OW25049   4.018   4.547  28.004
 4474SOL    HW125050   4.010   4.577  27.913
 4474SOL    HW225051   3.939   4.581  28.047
 4475SOL     OW25052   2.047   2.665   5.045
 4475SOL    HW125053   2.022   2.714   4.967
 4475SOL    HW225054   1.984   2.691   5.111
 4476SOL     OW25055   3.971   1.617  26.855
 4476SOL    HW125056   3.957   1.709  26.877
 4476SOL    HW225057   4.062   1.613  26.827
 4477SOL     OW25058   1.415   1.543   7.055
 4477SOL    HW125059   1.495   1.527   7.105
 4477SOL    HW225060   1.410   1.638   7.049
 4478SOL     OW25061   0.668   3.685   0.659
 4478SOL    HW125062   0.668   3.708   0.566
 4478SOL    HW225063   0.666   3.589   0.660
 4479SOL     OW25064   4.561   4.257  11.349
 4479SOL    HW125065   4.474   4.296  11.343
 4479SOL    HW225066   4.548   4.166  11.322
 4480SOL     OW25067   0.340   2.825   3.152
 4480SOL    HW125068   0.369   2.842   3.242
 4480SOL    HW225069   0.422   2.814   3.103
 4481SOL     OW25070   4.586   1.792  28.476
 4481SOL    HW125071   4.631   1.716  28.439
 4481SOL    HW225072   4.507   1.802  28.424
 4482SOL     OW25073   1.625   3.532  10.322
 4482SOL    HW125074   1.570   3.609  10.335
 4482SOL    HW225075   1.670   3.520  10.406
 4483SOL     OW25076   2.051   3.695   1.527
 4483SOL    HW125077   2.113   3.648   1.472
 4483SOL    HW225078   1.965   3.663   1.499
 4484SOL     OW25079   1.560   0.836  27.539
 4484SOL    HW125080   1.505   0.912  27.559
 4484SOL    HW225081   1.578   0.843  27.445
 4485SOL     OW25082   4.705   3.057  21.958
 4485SOL    HW125083   4.772   3.003  21.917
 4485SOL    HW225084   4.661   2.998  22.019
 4486SOL     OW25085   1.241   2.562   0.100
 4486SOL    HW125086   1.160   2.520   0.073
 4486SOL    HW225087   1.304   2.540   0.031
 4487SOL     OW25088   3.138   2.449   3.087
 4487SOL    HW125089   3.058   2.482   3.128
 4487SOL    HW225090   3.166   2.520   3.030
 4488SOL     OW25091   2.243   2.532   2.542
 4488SOL    HW125092   2.165   2.480   2.520
 4488SOL    HW225093   2.294   2.533   2.461
 4489SOL     OW25094   0.790   1.910   2.278
 4489SOL    HW125095   0.699   1.904   2.248
 4489SOL    HW225096   0.830   1.828   2.249
 4490SOL     OW25097   1.073   1.739   2.480
 4490SOL    HW125098   1.165   1.760   2.492
 4490SOL    HW225099   1.073   1.660   2.425
 4491SOL     OW25100   4.264   2.166   3.680
 4491SOL    HW125101   4.336   2.222   3.651
 4491SOL    HW225102   4.194   2.183   3.617
 4492SOL     OW25103   3.965   0.625  22.147
 4492SOL    HW125104   3.930   0.623  22.237
 4492SOL    HW225105   4.060   0.630  22.159
 4493SOL     OW25106   1.304   0.851   7.132
 4493SOL    HW125107   1.240   0.863   7.062
 4493SOL    HW225108   1.302   0.758   7.151
 4494SOL     OW25109   1.362   1.448   5.135
 4494SOL    HW125110   1.318   1.367   5.107
 4494SOL    HW225111   1.426   1.466   5.067
 4495SOL     OW25112   1.470   0.385   2.139
 4495SOL    HW125113   1.460   0.462   2.196
 4495SOL    HW225114   1.564   0.380   2.123
 4496SOL     OW25115   3.819   1.245  19.408
 4496SOL    HW125116   3.817   1.311  19.477
 4496SOL    HW225117   3.902   1.261  19.362
 4497SOL     OW25118   4.012   1.834   0.539
 4497SOL    HW125119   4.058   1.899   0.486
 4497SOL    HW225120   3.926   1.872   0.554
 4498SOL     OW25121   0.915   2.072   2.480
 4498SOL    HW125122   0.991   2.111   2.437
 4498SOL    HW225123   0.870   2.026   2.409
 4499SOL     OW25124   2.168   1.230  25.981
 4499SOL    HW125125   2.078   1.221  25.951
 4499SOL    HW225126   2.214   1.156  25.941
 4500SOL     OW25127   4.334   3.564   4.415
 4500SOL    HW125128   4.337   3.565   4.319
 4500SOL    HW225129   4.284   3.486   4.437
 4501SOL     OW25130   2.038   1.136   6.911
 4501SOL    HW125131   2.030   1.114   6.818
 4501SOL    HW225132   2.130   1.121   6.931
 4502SOL     OW25133   2.986   2.582  22.386
 4502SOL    HW125134   2.942   2.508  22.344
 4502SOL    HW225135   2.919   2.650  22.391
 4503SOL     OW25136   2.273   4.302  25.901
 4503SOL    HW125137   2.301   4.283  25.812
 4503SOL    HW225138   2.212   4.375  25.893
 4504SOL     OW25139   0.459   2.147  26.197
 4504SOL    HW125140   0.542   2.099  26.197
 4504SOL    HW225141   0.395   2.085  26.232
 4505SOL     OW25142   4.275   1.630  26.879
 4505SOL    HW125143   4.313   1.613  26.965
 4505SOL    HW225144   4.284   1.548  26.831
 4506SOL     OW25145   1.705   2.248   6.531
 4506SOL    HW125146   1.790   2.286   6.513
 4506SOL    HW225147   1.706   2.229   6.625
 4507SOL     OW25148   3.870   0.166   8.761
 4507SOL    HW125149   3.780   0.170   8.792
 4507SOL    HW225150   3.867   0.106   8.686
 4508SOL     OW25151   4.230   4.329   5.113
 4508SOL    HW125152   4.282   4.257   5.148
 4508SOL    HW225153   4.162   4.286   5.060
 4509SOL     OW25154   2.321   0.668  24.583
 4509SOL    HW125155   2.368   0.751  24.595
 4509SOL    HW225156   2.313   0.659  24.488
 4510SOL     OW25157   2.903   3.629  27.422
 4510SOL    HW125158   2.824   3.635  27.369
 4510SOL    HW225159   2.975   3.630  27.359
 4511SOL     OW25160   4.423   1.566   6.944
 4511SOL    HW125161   4.470   1.483   6.937
 4511SOL    HW225162   4.418   1.582   7.038
 4512SOL     OW25163   0.476   0.617  28.019
 4512SOL    HW125164   0.485   0.677  28.093
 4512SOL    HW225165   0.437   0.538  28.057
 4513SOL     OW25166   3.098   4.300   7.555
 4513SOL    HW125167   3.185   4.304   7.594
 4513SOL    HW225168   3.073   4.392   7.544
 4514SOL     OW25169   4.555   0.312   7.360
 4514SOL    HW125170   4.648   0.332   7.347
 4514SOL    HW225171   4.550   0.216   7.361
 4515SOL     OW25172   2.837   2.386  23.683
 4515SOL    HW125173   2.784   2.396  23.762
 4515SOL    HW225174   2.822   2.468  23.634
 4516SOL     OW25175   3.407   0.254  13.570
 4516SOL    HW125176   3.484   0.309  13.588
 4516SOL    HW225177   3.353   0.262  13.649
 4517SOL     OW25178   4.488   1.574   4.637
 4517SOL    HW125179   4.569   1.527   4.616
 4517SOL    HW225180   4.511   1.629   4.712
 4518SOL     OW25181   1.054   3.090  26.167
 4518SOL    HW125182   1.052   3.083  26.262
 4518SOL    HW225183   0.981   3.148  26.146
 4519SOL     OW25184   2.310   3.316   9.298
 4519SOL    HW125185   2.257   3.241   9.327
 4519SOL    HW225186   2.347   3.289   9.215
 4520SOL     OW25187   4.054   2.083   6.053
 4520SOL    HW125188   4.056   2.030   6.132
 4520SOL    HW225189   4.087   2.169   6.080
 4521SOL     OW25190   1.419   4.301  27.214
 4521SOL    HW125191   1.338   4.333  27.254
 4521SOL    HW225192   1.425   4.348  27.131
 4522SOL     OW25193   1.585   1.377  22.459
 4522SOL    HW125194   1.608   1.292  22.422
 4522SOL    HW225195   1.502   1.363  22.504
 4523SOL     OW25196   4.503   3.782   3.995
 4523SOL    HW125197   4.420   3.807   4.036
 4523SOL    HW225198   4.478   3.744   3.911
 4524SOL     OW25199   1.175   1.315   5.485
 4524SOL    HW125200   1.256   1.274   5.457
 4524SOL    HW225201   1.199   1.407   5.501
 4525SOL     OW25202   0.802   3.930   9.853
 4525SOL    HW125203   0.802   3.996   9.784
 4525SOL    HW225204   0.806   3.980   9.934
 4526SOL     OW25205   4.758   2.045  11.256
 4526SOL    HW125206   0.036   2.019  11.325
 4526SOL    HW225207   4.676   2.065  11.301
 4527SOL     OW25208   3.421   2.851   3.124
 4527SOL    HW125209   3.337   2.892   3.103
 4527SOL    HW225210   3.400   2.790   3.195
 4528SOL     OW25211   1.874   2.337  20.766
 4528SOL    HW125212   1.871   2.313  20.674
 4528SOL    HW225213   1.966   2.356  20.783
 4529SOL     OW25214   2.743   1.088  11.446
 4529SOL    HW125215   2.821   1.064  11.496
 4529SOL    HW225216   2.677   1.024  11.472
 4530SOL     OW25217   2.455   1.754  27.212
 4530SOL    HW125218   2.510   1.678  27.192
 4530SOL    HW225219   2.436   1.794  27.127
 4531SOL     OW25220   2.157   4.766  10.451
 4531SOL    HW125221   2.071   0.024  10.458
 4531SOL    HW225222   2.165   4.713  10.530
 4532SOL     OW25223   1.156   1.615   5.221
 4532SOL    HW125224   1.129   1.638   5.310
 4532SOL    HW225225   1.234   1.560   5.233
 4533SOL     OW25226   0.812   2.274   6.980
 4533SOL    HW125227   0.886   2.260   6.923
 4533SOL    HW225228   0.850   2.309   7.061
 4534SOL     OW25229   3.357   0.299  21.004
 4534SOL    HW125230   3.381   0.211  20.975
 4534SOL    HW225231   3.266   0.291  21.035
 4535SOL     OW25232   0.703   2.974  11.685
 4535SOL    HW125233   0.774   2.962  11.747
 4535SOL    HW225234   0.747   2.985  11.600
 4536SOL     OW25235   2.125   0.804   6.260
 4536SOL    HW125236   2.062   0.873   6.280
 4536SOL    HW225237   2.104   0.778   6.170
 4537SOL     OW25238   2.037   4.511  27.196
 4537SOL    HW125239   1.953   4.495  27.153
 4537SOL    HW225240   2.097   4.450  27.154
 4538SOL     OW25241   0.669   3.717   8.820
 4538SOL    HW125242   0.620   3.698   8.740
 4538SOL    HW225243   0.658   3.639   8.874
 4539SOL     OW25244   1.705   3.985  24.688
 4539SOL    HW125245   1.642   4.032  24.634
 4539SOL    HW225246   1.659   3.907  24.717
 4540SOL     OW25247   1.484   4.588   7.083
 4540SOL    HW125248   1.558   4.535   7.053
 4540SOL    HW225249   1.407   4.545   7.046
 4541SOL     OW25250   4.047   2.140  20.027
 4541SOL    HW125251   4.116   2.179  19.974
 4541SOL    HW225252   3.970   2.195  20.012
 4542SOL     OW25253   0.035   1.506   2.394
 4542SOL    HW125254   0.069   1.452   2.465
 4542SOL    HW225255   0.030   1.594   2.430
 4543SOL     OW25256   3.445   0.458  27.757
 4543SOL    HW125257   3.368   0.467  27.813
 4543SOL    HW225258   3.511   0.417  27.814
 4544SOL     OW25259   2.280   1.058   8.758
 4544SOL    HW125260   2.363   1.048   8.711
 4544SOL    HW225261   2.231   0.979   8.736
 4545SOL     OW25262   4.697   4.011  23.420
 4545SOL    HW125263   4.699   4.024  23.515
 4545SOL    HW225264   0.007   4.015  23.393
 4546SOL     OW25265   1.309   2.120   2.557
 4546SOL    HW125266   1.219   2.105   2.586
 4546SOL    HW225267   1.355   2.147   2.637
 4547SOL     OW25268   3.691   0.090   2.154
 4547SOL    HW125269   3.668   0.163   2.097
 4547SOL    HW225270   3.748   0.035   2.101
 4548SOL     OW25271   1.368   0.499   1.395
 4548SOL    HW125272   1.358   0.440   1.321
 4548SOL    HW225273   1.339   0.447   1.471
 4549SOL     OW25274   2.535   3.704   3.833
 4549SOL    HW125275   2.454   3.663   3.802
 4549SOL    HW225276   2.564   3.757   3.759
 4550SOL     OW25277   1.903   0.858   2.959
 4550SOL    HW125278   1.887   0.950   2.976
 4550SOL    HW225279   1.979   0.837   3.013
 4551SOL     OW25280   4.285   2.448   0.799
 4551SOL    HW125281   4.355   2.504   0.833
 4551SOL    HW225282   4.216   2.510   0.773
 4552SOL     OW25283   2.895   2.408  24.402
 4552SOL    HW125284   2.929   2.446  24.483
 4552SOL    HW225285   2.849   2.328  24.429
 4553SOL     OW25286   2.533   0.535  28.005
 4553SOL    HW125287   2.538   0.592  28.082
 4553SOL    HW225288   2.439   0.516  27.996
 4554SOL     OW25289   0.759   1.902  19.023
 4554SOL    HW125290   0.678   1.876  18.979
 4554SOL    HW225291   0.821   1.831  19.004
 4555SOL     OW25292   0.283   0.952   9.704
 4555SOL    HW125293   0.373   0.925   9.718
 4555SOL    HW225294   0.232   0.872   9.716
 4556SOL     OW25295   3.212   0.922   1.725
 4556SOL    HW125296   3.241   0.932   1.816
 4556SOL    HW225297   3.208   1.012   1.692
 4557SOL     OW25298   4.323   0.969  12.642
 4557SOL    HW125299   4.281   1.033  12.585
 4557SOL    HW225300   4.271   0.889  12.631
 4558SOL     OW25301   4.118   0.059   2.169
 4558SOL    HW125302   4.047   0.002   2.198
 4558SOL    HW225303   4.100   0.075   2.076
 4559SOL     OW25304   0.232   1.925  22.302
 4559SOL    HW125305   0.324   1.945  22.322
 4559SOL    HW225306   0.229   1.829  22.302
 4560SOL     OW25307   3.722   1.843  22.346
 4560SOL    HW125308   3.732   1.853  22.441
 4560SOL    HW225309   3.636   1.882  22.327
 4561SOL     OW25310   2.315   4.205  22.004
 4561SOL    HW125311   2.225   4.179  22.019
 4561SOL    HW225312   2.338   4.260  22.079
 4562SOL     OW25313   2.987   4.494  10.567
 4562SOL    HW125314   2.961   4.488  10.659
 4562SOL    HW225315   3.054   4.427  10.556
 4563SOL     OW25316   1.875   4.517  24.949
 4563SOL    HW125317   1.933   4.474  24.887
 4563SOL    HW225318   1.795   4.464  24.948
 4564SOL     OW25319   3.233   4.157   6.957
 4564SOL    HW125320   3.157   4.215   6.954
 4564SOL    HW225321   3.207   4.087   7.017
 4565SOL     OW25322   3.832   2.917  23.262
 4565SOL    HW125323   3.768   2.845  23.263
 4565SOL    HW225324   3.779   2.996  23.267
 4566SOL     OW25325   1.800   0.266   3.341
 4566SOL    HW125326   1.814   0.318   3.421
 4566SOL    HW225327   1.724   0.211   3.362
 4567SOL     OW25328   4.083   1.230  21.810
 4567SOL    HW125329   4.056   1.235  21.902
 4567SOL    HW225330   4.170   1.190  21.812
 4568SOL     OW25331   1.601   2.717   5.353
 4568SOL    HW125332   1.581   2.806   5.325
 4568SOL    HW225333   1.693   2.719   5.376
 4569SOL     OW25334   0.897   3.537  25.483
 4569SOL    HW125335   0.950   3.459  25.465
 4569SOL    HW225336   0.821   3.504  25.531
 4570SOL     OW25337   2.928   0.872  23.446
 4570SOL    HW125338   2.893   0.906  23.528
 4570SOL    HW225339   3.000   0.932  23.425
 4571SOL     OW25340   1.298   0.332   1.143
 4571SOL    HW125341   1.379   0.372   1.110
 4571SOL    HW225342   1.327   0.251   1.186
 4572SOL     OW25343   3.036   0.973   3.441
 4572SOL    HW125344   3.082   1.056   3.453
 4572SOL    HW225345   3.036   0.959   3.347
 4573SOL     OW25346   0.884   3.212   1.523
 4573SOL    HW125347   0.823   3.241   1.456
 4573SOL    HW225348   0.903   3.291   1.574
 4574SOL     OW25349   2.299   2.694  12.379
 4574SOL    HW125350   2.309   2.789  12.387
 4574SOL    HW225351   2.388   2.659  12.388
 4575SOL     OW25352   3.123   2.462  10.349
 4575SOL    HW125353   3.040   2.497  10.382
 4575SOL    HW225354   3.141   2.385  10.403
 4576SOL     OW25355   1.950   2.036  26.859
 4576SOL    HW125356   1.987   2.102  26.918
 4576SOL    HW225357   1.943   1.957  26.912
 4577SOL     OW25358   4.608   0.701   9.064
 4577SOL    HW125359   4.543   0.736   9.003
 4577SOL    HW225360   4.575   0.613   9.086
 4578SOL     OW25361   2.073   3.742  20.335
 4578SOL    HW125362   2.060   3.691  20.415
 4578SOL    HW225363   2.121   3.683  20.277
 4579SOL     OW25364   0.043   3.329   6.119
 4579SOL    HW125365   0.039   3.424   6.134
 4579SOL    HW225366   0.045   3.291   6.207
 4580SOL     OW25367   3.381   3.921   4.805
 4580SOL    HW125368   3.449   3.986   4.787
 4580SOL    HW225369   3.305   3.950   4.754
 4581SOL     OW25370   1.813   3.928  23.186
 4581SOL    HW125371   1.765   3.999  23.141
 4581SOL    HW225372   1.886   3.909  23.128
 4582SOL     OW25373   3.223   0.091  25.818
 4582SOL    HW125374   3.217   4.781  25.844
 4582SOL    HW225375   3.314   0.115  25.837
 4583SOL     OW25376   3.931   0.689   2.584
 4583SOL    HW125377   3.914   0.746   2.509
 4583SOL    HW225378   4.021   0.710   2.610
 4584SOL     OW25379   3.719   4.617   6.515
 4584SOL    HW125380   3.739   4.561   6.439
 4584SOL    HW225381   3.674   4.559   6.576
 4585SOL     OW25382   3.146   0.592  10.820
 4585SOL    HW125383   3.096   0.550  10.750
 4585SOL    HW225384   3.186   0.669  10.779
 4586SOL     OW25385   0.264   1.366   4.998
 4586SOL    HW125386   0.208   1.359   4.920
 4586SOL    HW225387   0.278   1.461   5.008
 4587SOL     OW25388   4.394   2.894   4.381
 4587SOL    HW125389   4.380   2.969   4.323
 4587SOL    HW225390   4.306   2.871   4.411
 4588SOL     OW25391   1.449   0.791   9.307
 4588SOL    HW125392   1.453   0.695   9.308
 4588SOL    HW225393   1.435   0.813   9.215
 4589SOL     OW25394   1.732   3.624   7.890
 4589SOL    HW125395   1.707   3.579   7.970
 4589SOL    HW225396   1.653   3.668   7.861
 4590SOL     OW25397   3.297   2.912  10.796
 4590SOL    HW125398   3.319   2.819  10.792
 4590SOL    HW225399   3.380   2.957  10.775
 4591SOL     OW25400   4.186   2.954  24.407
 4591SOL    HW125401   4.113   3.001  24.448
 4591SOL    HW225402   4.192   2.872  24.456
 4592SOL     OW25403   2.899   1.737   3.940
 4592SOL    HW125404   2.978   1.726   3.887
 4592SOL    HW225405   2.833   1.682   3.896
 4593SOL     OW25406   2.599   4.199  11.539
 4593SOL    HW125407   2.564   4.135  11.602
 4593SOL    HW225408   2.530   4.210  11.475
 4594SOL     OW25409   4.269   2.436  12.351
 4594SOL    HW125410   4.183   2.469  12.377
 4594SOL    HW225411   4.308   2.404  12.432
 4595SOL     OW25412   2.095   1.666  12.369
 4595SOL    HW125413   2.007   1.704  12.373
 4595SOL    HW225414   2.144   1.714  12.436
 4596SOL     OW25415   1.851   0.256  12.573
 4596SOL    HW125416   1.787   0.208  12.625
 4596SOL    HW225417   1.891   0.317  12.634
 4597SOL     OW25418   2.027   1.833  12.704
 4597SOL    HW125419   2.081   1.806  12.630
 4597SOL    HW225420   2.065   1.789  12.780
 4598SOL     OW25421   3.373   1.599  12.526
 4598SOL    HW125422   3.338   1.613  12.438
 4598SOL    HW225423   3.340   1.674  12.577
 4599SOL     OW25424   1.437   0.208  12.550
 4599SOL    HW125425   1.517   0.210  12.602
 4599SOL    HW225426   1.443   0.284  12.492
 4600SOL     OW25427   2.440   1.939  11.570
 4600SOL    HW125428   2.514   1.887  11.538
 4600SOL    HW225429   2.480   2.012  11.617
 4601SOL     OW25430   2.411   1.381  12.112
 4601SOL    HW125431   2.414   1.358  12.019
 4601SOL    HW225432   2.360   1.462  12.115
 4602SOL     OW25433   2.684   4.772  14.166
 4602SOL    HW125434   2.731   4.780  14.083
 4602SOL    HW225435   2.632   0.070  14.171
 4603SOL     OW25436   3.614   2.364  10.154
 4603SOL    HW125437   3.630   2.364  10.060
 4603SOL    HW225438   3.687   2.414  10.191
 4604SOL     OW25439   2.846   0.563  12.393
 4604SOL    HW125440   2.910   0.537  12.326
 4604SOL    HW225441   2.889   0.636  12.439
 4605SOL     OW25442   4.063   1.441  12.804
 4605SOL    HW125443   4.130   1.411  12.865
 4605SOL    HW225444   3.990   1.380  12.817
 4606SOL     OW25445   1.355   4.712  12.550
 4606SOL    HW125446   1.418   0.002  12.547
 4606SOL    HW225447   1.354   4.685  12.642
 4607SOL     OW25448   2.126   1.356  13.193
 4607SOL    HW125449   2.075   1.407  13.256
 4607SOL    HW225450   2.181   1.299  13.247
 4608SOL     OW25451   4.035   2.000   3.779
 4608SOL    HW125452   4.098   1.937   3.813
 4608SOL    HW225453   4.088   2.063   3.731
 4609SOL     OW25454   2.872   0.933  13.093
 4609SOL    HW125455   2.936   0.948  13.163
 4609SOL    HW225456   2.910   0.975  13.016
 4610SOL     OW25457   2.006   1.507  12.802
 4610SOL    HW125458   2.007   1.435  12.864
 4610SOL    HW225459   2.074   1.567  12.833
 4611SOL     OW25460   3.278   1.569  11.827
 4611SOL    HW125461   3.237   1.512  11.761
 4611SOL    HW225462   3.321   1.508  11.887
 4612SOL     OW25463   1.963   1.329  12.993
 4612SOL    HW125464   2.012   1.345  13.074
 4612SOL    HW225465   1.966   1.234  12.982
 4613SOL     OW25466   3.092   1.404  13.074
 4613SOL    HW125467   3.116   1.343  13.144
 4613SOL    HW225468   3.120   1.360  12.994
 4614SOL     OW25469   4.729   0.991   9.734
 4614SOL    HW125470   4.773   0.909   9.712
 4614SOL    HW225471   4.712   0.985   9.828
 4615SOL     OW25472   2.098   2.743   2.648
 4615SOL    HW125473   2.053   2.678   2.702
 4615SOL    HW225474   2.163   2.693   2.599
 4616SOL     OW25475   1.190   4.500  12.433
 4616SOL    HW125476   1.185   4.427  12.494
 4616SOL    HW225477   1.248   4.563  12.476
 4617SOL     OW25478   2.327   1.107  12.127
 4617SOL    HW125479   2.372   1.187  12.155
 4617SOL    HW225480   2.264   1.136  12.061
 4618SOL     OW25481   0.729   1.192  12.098
 4618SOL    HW125482   0.708   1.151  12.182
 4618SOL    HW225483   0.738   1.285  12.118
 4619SOL     OW25484   0.176   2.527  12.951
 4619SOL    HW125485   0.121   2.470  13.005
 4619SOL    HW225486   0.265   2.509  12.980
 4620SOL     OW25487   3.209   0.936  12.953
 4620SOL    HW125488   3.172   0.858  12.995
 4620SOL    HW225489   3.274   0.901  12.891
 4621SOL     OW25490   2.206   0.463  12.734
 4621SOL    HW125491   2.225   0.397  12.800
 4621SOL    HW225492   2.232   0.546  12.774
 4622SOL     OW25493   3.058   0.221  13.848
 4622SOL    HW125494   3.148   0.252  13.845
 4622SOL    HW225495   3.007   0.295  13.815
 4623SOL     OW25496   1.250   3.589  11.026
 4623SOL    HW125497   1.297   3.599  11.109
 4623SOL    HW225498   1.158   3.600  11.050
 4624SOL     OW25499   3.093   1.963  11.468
 4624SOL    HW125500   3.021   1.933  11.413
 4624SOL    HW225501   3.147   2.016  11.409
 4625SOL     OW25502   2.892   4.138  14.178
 4625SOL    HW125503   2.912   4.209  14.238
 4625SOL    HW225504   2.816   4.170  14.128
 4626SOL     OW25505   1.803   0.361  13.367
 4626SOL    HW125506   1.804   0.278  13.415
 4626SOL    HW225507   1.769   0.425  13.431
 4627SOL     OW25508   1.806   1.595  12.122
 4627SOL    HW125509   1.809   1.598  12.217
 4627SOL    HW225510   1.870   1.528  12.098
 4628SOL     OW25511   3.410   4.314  12.883
 4628SOL    HW125512   3.402   4.291  12.975
 4628SOL    HW225513   3.346   4.385  12.870
 4629SOL     OW25514   3.585   1.211  13.367
 4629SOL    HW125515   3.511   1.209  13.307
 4629SOL    HW225516   3.601   1.119  13.388
 4630SOL     OW25517   2.239   0.716  12.845
 4630SOL    HW125518   2.218   0.809  12.851
 4630SOL    HW225519   2.230   0.683  12.935
 4631SOL     OW25520   2.139   1.195  11.948
 4631SOL    HW125521   2.114   1.144  11.871
 4631SOL    HW225522   2.114   1.141  12.023
 4632SOL     OW25523   2.537   2.596  12.434
 4632SOL    HW125524   2.519   2.529  12.500
 4632SOL    HW225525   2.585   2.664  12.481
 4633SOL     OW25526   3.426   1.085  13.161
 4633SOL    HW125527   3.479   1.019  13.116
 4633SOL    HW225528   3.352   1.100  13.102
 4634SOL     OW25529   2.096   4.568  13.229
 4634SOL    HW125530   2.093   4.648  13.281
 4634SOL    HW225531   2.084   4.498  13.293
 4635SOL     OW25532   3.076   4.415  12.940
 4635SOL    HW125533   3.101   4.507  12.927
 4635SOL    HW225534   3.050   4.410  13.032
 4636SOL     OW25535   2.810   0.102  11.010
 4636SOL    HW125536   2.735   0.133  11.061
 4636SOL    HW225537   2.870   0.177  11.009
 4637SOL     OW25538   1.176   0.807  13.209
 4637SOL    HW125539   1.249   0.745  13.206
 4637SOL    HW225540   1.217   0.893  13.202
 4638SOL     OW25541   3.028   2.024  11.064
 4638SOL    HW125542   2.958   2.067  11.016
 4638SOL    HW225543   2.992   1.938  11.087
 4639SOL     OW25544   3.597   1.437  12.472
 4639SOL    HW125545   3.536   1.482  12.531
 4639SOL    HW225546   3.661   1.396  12.530
 4640SOL     OW25547   2.189   0.278  12.988
 4640SOL    HW125548   2.141   0.312  13.064
 4640SOL    HW225549   2.247   0.212  13.024
 4641SOL     OW25550   1.699   0.637  13.499
 4641SOL    HW125551   1.659   0.600  13.578
 4641SOL    HW225552   1.641   0.710  13.475
 4642SOL     OW25553   2.128   1.714  12.929
 4642SOL    HW125554   2.212   1.721  12.973
 4642SOL    HW225555   2.063   1.731  12.998
 4643SOL     OW25556   2.189   1.586  11.406
 4643SOL    HW125557   2.274   1.546  11.425
 4643SOL    HW225558   2.210   1.675  11.380
 4644SOL     OW25559   3.039   2.869  12.891
 4644SOL    HW125560   3.043   2.922  12.812
 4644SOL    HW225561   3.130   2.844  12.908
 4645SOL     OW25562   2.144   0.103  14.229
 4645SOL    HW125563   2.084   0.174  14.254
 4645SOL    HW225564   2.093   0.023  14.242
 4646SOL     OW25565   1.656   0.146  13.850
 4646SOL    HW125566   1.736   0.146  13.902
 4646SOL    HW225567   1.586   0.136  13.913
 4647SOL     OW25568   3.241   0.330  13.366
 4647SOL    HW125569   3.300   0.296  13.434
 4647SOL    HW225570   3.173   0.377  13.415
 4648SOL     OW25571   2.220   0.632  11.136
 4648SOL    HW125572   2.306   0.667  11.161
 4648SOL    HW225573   2.221   0.541  11.168
 4649SOL     OW25574   2.101   0.269  11.671
 4649SOL    HW125575   2.108   0.261  11.766
 4649SOL    HW225576   2.090   0.180  11.640
 4650SOL     OW25577   3.110   3.286  12.785
 4650SOL    HW125578   3.143   3.244  12.865
 4650SOL    HW225579   3.125   3.221  12.716
 4651SOL     OW25580   3.455   1.953  25.270
 4651SOL    HW125581   3.521   2.000  25.218
 4651SOL    HW225582   3.411   1.896  25.207
 4652SOL     OW25583   3.881   1.260  12.908
 4652SOL    HW125584   3.830   1.317  12.966
 4652SOL    HW225585   3.920   1.196  12.968
 4653SOL     OW25586   3.587   2.793  11.310
 4653SOL    HW125587   3.667   2.840  11.334
 4653SOL    HW225588   3.617   2.714  11.266
 4654SOL     OW25589   3.858   3.623  10.725
 4654SOL    HW125590   3.768   3.591  10.733
 4654SOL    HW225591   3.907   3.575  10.791
 4655SOL     OW25592   1.796   1.348  12.671
 4655SOL    HW125593   1.857   1.419  12.692
 4655SOL    HW225594   1.845   1.268  12.690
 4656SOL     OW25595   3.535   2.043  13.153
 4656SOL    HW125596   3.566   2.111  13.093
 4656SOL    HW225597   3.440   2.041  13.140
 4657SOL     OW25598   3.367   4.780  12.511
 4657SOL    HW125599   3.343   0.090  12.505
 4657SOL    HW225600   3.440   4.770  12.449
 4658SOL     OW25601   3.166   0.698  12.307
 4658SOL    HW125602   3.129   0.766  12.250
 4658SOL    HW225603   3.138   0.615  12.266
 4659SOL     OW25604   2.454   1.266  11.880
 4659SOL    HW125605   2.506   1.186  11.893
 4659SOL    HW225606   2.404   1.249  11.800
 4660SOL     OW25607   0.590   1.322  12.501
 4660SOL    HW125608   0.578   1.286  12.589
 4660SOL    HW225609   0.664   1.382  12.510
 4661SOL     OW25610   2.078   0.267  13.283
 4661SOL    HW125611   2.126   0.337  13.326
 4661SOL    HW225612   1.989   0.274  13.317
 4662SOL     OW25613   2.435   2.059  14.656
 4662SOL    HW125614   2.464   1.970  14.678
 4662SOL    HW225615   2.377   2.083  14.728
 4663SOL     OW25616   2.168   1.737  14.551
 4663SOL    HW125617   2.182   1.797  14.625
 4663SOL    HW225618   2.172   1.650  14.590
 4664SOL     OW25619   2.677   1.535  13.975
 4664SOL    HW125620   2.622   1.607  13.947
 4664SOL    HW225621   2.709   1.495  13.894
 4665SOL     OW25622   2.296   1.386  12.956
 4665SOL    HW125623   2.355   1.460  12.941
 4665SOL    HW225624   2.253   1.406  13.039
 4666SOL     OW25625   2.183   1.222  12.775
 4666SOL    HW125626   2.217   1.277  12.846
 4666SOL    HW225627   2.162   1.283  12.704
 4667SOL     OW25628   3.853   1.492  14.661
 4667SOL    HW125629   3.862   1.498  14.756
 4667SOL    HW225630   3.759   1.482  14.646
 4668SOL     OW25631   0.592   4.640  13.261
 4668SOL    HW125632   0.626   4.675  13.178
 4668SOL    HW225633   0.647   4.681  13.328
 4669SOL     OW25634   3.135   1.200  14.033
 4669SOL    HW125635   3.225   1.173  14.009
 4669SOL    HW225636   3.092   1.118  14.057
 4670SOL     OW25637   1.809   4.027  11.832
 4670SOL    HW125638   1.818   4.074  11.750
 4670SOL    HW225639   1.898   4.015  11.864
 4671SOL     OW25640   3.026   0.803  14.513
 4671SOL    HW125641   3.059   0.819  14.424
 4671SOL    HW225642   3.067   0.720  14.539
 4672SOL     OW25643   2.069   2.535  14.484
 4672SOL    HW125644   2.142   2.548  14.424
 4672SOL    HW225645   1.991   2.551  14.431
 4673SOL     OW25646   3.748   0.733  14.772
 4673SOL    HW125647   3.790   0.799  14.717
 4673SOL    HW225648   3.809   0.719  14.844
 4674SOL     OW25649   2.078   4.361  13.415
 4674SOL    HW125650   2.116   4.380  13.501
 4674SOL    HW225651   2.150   4.323  13.365
 4675SOL     OW25652   3.323   0.995  14.040
 4675SOL    HW125653   3.411   0.963  14.062
 4675SOL    HW225654   3.281   0.920  13.998
 4676SOL     OW25655   2.571   2.011  13.445
 4676SOL    HW125656   2.666   1.999  13.451
 4676SOL    HW225657   2.559   2.095  13.402
 4677SOL     OW25658   1.869   0.791  12.077
 4677SOL    HW125659   1.959   0.811  12.101
 4677SOL    HW225660   1.829   0.760  12.159
 4678SOL     OW25661   1.898   0.086  14.000
 4678SOL    HW125662   1.957   0.143  14.050
 4678SOL    HW225663   1.868   0.021  14.063
 4679SOL     OW25664   2.582   1.264  13.763
 4679SOL    HW125665   2.665   1.295  13.728
 4679SOL    HW225666   2.607   1.188  13.818
 4680SOL     OW25667   2.703   0.557  14.608
 4680SOL    HW125668   2.642   0.497  14.651
 4680SOL    HW225669   2.790   0.524  14.630
 4681SOL     OW25670   2.223   0.795  13.334
 4681SOL    HW125671   2.167   0.730  13.375
 4681SOL    HW225672   2.255   0.849  13.406
 4682SOL     OW25673   2.969   1.982  12.239
 4682SOL    HW125674   2.970   1.887  12.228
 4682SOL    HW225675   3.048   2.001  12.289
 4683SOL     OW25676   2.430   4.431  12.549
 4683SOL    HW125677   2.516   4.389  12.542
 4683SOL    HW225678   2.440   4.514  12.503
 4684SOL     OW25679   3.212   0.523  13.887
 4684SOL    HW125680   3.218   0.614  13.916
 4684SOL    HW225681   3.121   0.514  13.859
 4685SOL     OW25682   2.941   1.052  14.637
 4685SOL    HW125683   2.975   0.972  14.597
 4685SOL    HW225684   2.857   1.026  14.675
 4686SOL     OW25685   1.884   0.740  14.529
 4686SOL    HW125686   1.857   0.734  14.438
 4686SOL    HW225687   1.886   0.834  14.547
 4687SOL     OW25688   1.718   4.507  14.041
 4687SOL    HW125689   1.756   4.585  14.082
 4687SOL    HW225690   1.649   4.480  14.101
 4688SOL     OW25691   3.325   0.154  14.083
 4688SOL    HW125692   3.399   0.097  14.062
 4688SOL    HW225693   3.345   0.189  14.169
 4689SOL     OW25694   1.589   1.380  12.883
 4689SOL    HW125695   1.641   1.359  12.805
 4689SOL    HW225696   1.646   1.436  12.936
 4690SOL     OW25697   3.064   1.465  13.977
 4690SOL    HW125698   3.006   1.494  14.049
 4690SOL    HW225699   3.088   1.376  14.001
 4691SOL     OW25700   2.310   0.423  13.988
 4691SOL    HW125701   2.397   0.403  13.954
 4691SOL    HW225702   2.326   0.485  14.060
 4692SOL     OW25703   4.038   1.339  14.852
 4692SOL    HW125704   3.999   1.372  14.932
 4692SOL    HW225705   4.115   1.394  14.837
 4693SOL     OW25706   2.855   2.034  14.759
 4693SOL    HW125707   2.796   2.089  14.707
 4693SOL    HW225708   2.799   1.966  14.796
 4694SOL     OW25709   2.915   1.391  14.365
 4694SOL    HW125710   3.008   1.373  14.351
 4694SOL    HW225711   2.913   1.447  14.443
 4695SOL     OW25712   1.946   1.375  12.401
 4695SOL    HW125713   1.880   1.438  12.428
 4695SOL    HW225714   2.020   1.390  12.460
 4696SOL     OW25715   2.320   2.195  14.447
 4696SOL    HW125716   2.367   2.200  14.364
 4696SOL    HW225717   2.374   2.138  14.501
 4697SOL     OW25718   1.521   2.298  11.486
 4697SOL    HW125719   1.608   2.264  11.463
 4697SOL    HW225720   1.530   2.330  11.576
 4698SOL     OW25721   3.590   1.459  14.611
 4698SOL    HW125722   3.514   1.496  14.656
 4698SOL    HW225723   3.584   1.365  14.628
 4699SOL     OW25724   2.663   4.306  12.621
 4699SOL    HW125725   2.729   4.263  12.566
 4699SOL    HW225726   2.713   4.347  12.691
 4700SOL     OW25727   2.140   1.291  14.460
 4700SOL    HW125728   2.063   1.243  14.430
 4700SOL    HW225729   2.187   1.313  14.380
 4701SOL     OW25730   1.958   3.783  14.305
 4701SOL    HW125731   1.941   3.701  14.259
 4701SOL    HW225732   2.041   3.814  14.269
 4702SOL     OW25733   2.858   1.239  13.137
 4702SOL    HW125734   2.929   1.298  13.109
 4702SOL    HW225735   2.818   1.210  13.055
 4703SOL     OW25736   3.121   0.312  14.487
 4703SOL    HW125737   3.042   0.315  14.433
 4703SOL    HW225738   3.145   0.219  14.488
 4704SOL     OW25739   2.748   0.823  14.526
 4704SOL    HW125740   2.710   0.737  14.545
 4704SOL    HW225741   2.840   0.804  14.504
 4705SOL     OW25742   2.886   1.581  14.159
 4705SOL    HW125743   2.898   1.537  14.243
 4705SOL    HW225744   2.816   1.531  14.116
 4706SOL     OW25745   2.222   0.990  12.868
 4706SOL    HW125746   2.187   1.007  12.955
 4706SOL    HW225747   2.201   1.068  12.817
 4707SOL     OW25748   2.757   0.278  13.556
 4707SOL    HW125749   2.716   0.332  13.488
 4707SOL    HW225750   2.747   0.330  13.636
 4708SOL     OW25751   1.573   1.822  14.099
 4708SOL    HW125752   1.603   1.853  14.184
 4708SOL    HW225753   1.555   1.729  14.112
 4709SOL     OW25754   3.627   1.953  14.170
 4709SOL    HW125755   3.600   1.870  14.130
 4709SOL    HW225756   3.669   2.001  14.098
 4710SOL     OW25757   2.015   1.881  14.359
 4710SOL    HW125758   1.989   1.953  14.415
 4710SOL    HW225759   2.089   1.840  14.405
 4711SOL     OW25760   2.977   0.507  13.769
 4711SOL    HW125761   2.985   0.600  13.789
 4711SOL    HW225762   2.885   0.486  13.784
 4712SOL     OW25763   1.037   4.740  13.443
 4712SOL    HW125764   1.064   4.649  13.431
 4712SOL    HW225765   1.095   0.008  13.386
 4713SOL     OW25766   1.656   1.227  12.459
 4713SOL    HW125767   1.577   1.236  12.513
 4713SOL    HW225768   1.722   1.279  12.505
 4714SOL     OW25769   2.460   1.417  14.138
 4714SOL    HW125770   2.492   1.375  14.218
 4714SOL    HW225771   2.538   1.454  14.097
 4715SOL     OW25772   1.675   4.392  12.909
 4715SOL    HW125773   1.742   4.426  12.968
 4715SOL    HW225774   1.694   4.298  12.903
 4716SOL     OW25775   0.047   2.391  13.157
 4716SOL    HW125776   0.010   2.478  13.170
 4716SOL    HW225777   0.080   2.365  13.243
 4717SOL     OW25778   1.943   0.770  12.930
 4717SOL    HW125779   1.896   0.741  12.852
 4717SOL    HW225780   1.923   0.704  12.996
 4718SOL     OW25781   2.805   1.837  14.112
 4718SOL    HW125782   2.711   1.818  14.118
 4718SOL    HW225783   2.847   1.751  14.113
 4719SOL     OW25784   2.704   4.520  13.982
 4719SOL    HW125785   2.621   4.556  13.949
 4719SOL    HW225786   2.769   4.588  13.963
 4720SOL     OW25787   1.627   4.427  15.310
 4720SOL    HW125788   1.554   4.445  15.370
 4720SOL    HW225789   1.609   4.339  15.276
 4721SOL     OW25790   1.879   1.118  16.270
 4721SOL    HW125791   1.917   1.207  16.270
 4721SOL    HW225792   1.875   1.094  16.177
 4722SOL     OW25793   3.224   1.468  15.578
 4722SOL    HW125794   3.156   1.426  15.525
 4722SOL    HW225795   3.280   1.511  15.514
 4723SOL     OW25796   0.503   1.228  15.368
 4723SOL    HW125797   0.422   1.234  15.419
 4723SOL    HW225798   0.491   1.151  15.313
 4724SOL     OW25799   0.817   2.526  17.753
 4724SOL    HW125800   0.819   2.569  17.668
 4724SOL    HW225801   0.739   2.471  17.751
 4725SOL     OW25802   1.951   1.927  16.756
 4725SOL    HW125803   1.919   1.912  16.845
 4725SOL    HW225804   1.969   1.839  16.722
 4726SOL     OW25805   1.046   2.589  17.112
 4726SOL    HW125806   1.044   2.534  17.190
 4726SOL    HW225807   1.097   2.538  17.049
 4727SOL     OW25808   4.402   3.777  18.013
 4727SOL    HW125809   4.432   3.716  17.946
 4727SOL    HW225810   4.441   3.861  17.988
 4728SOL     OW25811   2.594   4.456  15.647
 4728SOL    HW125812   2.530   4.520  15.618
 4728SOL    HW225813   2.554   4.371  15.627
 4729SOL     OW25814   3.470   1.976  14.939
 4729SOL    HW125815   3.535   1.950  15.005
 4729SOL    HW225816   3.522   2.015  14.869
 4730SOL     OW25817   1.926   1.534  14.854
 4730SOL    HW125818   1.952   1.625  14.865
 4730SOL    HW225819   1.948   1.513  14.763
 4731SOL     OW25820   1.060   2.756  17.751
 4731SOL    HW125821   0.999   2.682  17.748
 4731SOL    HW225822   1.135   2.727  17.699
 4732SOL     OW25823   2.472   1.290  15.551
 4732SOL    HW125824   2.502   1.202  15.574
 4732SOL    HW225825   2.472   1.291  15.455
 4733SOL     OW25826   3.197   0.371  16.328
 4733SOL    HW125827   3.286   0.336  16.329
 4733SOL    HW225828   3.200   0.445  16.267
 4734SOL     OW25829   3.339   1.575  15.793
 4734SOL    HW125830   3.294   1.518  15.730
 4734SOL    HW225831   3.409   1.615  15.742
 4735SOL     OW25832   4.442   2.794  15.131
 4735SOL    HW125833   4.481   2.796  15.044
 4735SOL    HW225834   4.507   2.836  15.187
 4736SOL     OW25835   2.242   1.390  15.653
 4736SOL    HW125836   2.262   1.347  15.736
 4736SOL    HW225837   2.310   1.360  15.593
 4737SOL     OW25838   2.742   0.397  23.208
 4737SOL    HW125839   2.769   0.416  23.298
 4737SOL    HW225840   2.780   0.468  23.157
 4738SOL     OW25841   1.211   2.404  16.994
 4738SOL    HW125842   1.174   2.322  17.027
 4738SOL    HW225843   1.294   2.379  16.954
 4739SOL     OW25844   2.524   4.611  14.756
 4739SOL    HW125845   2.566   4.696  14.739
 4739SOL    HW225846   2.542   4.559  14.677
 4740SOL     OW25847   3.072   0.092  17.826
 4740SOL    HW125848   3.126   0.023  17.789
 4740SOL    HW225849   3.073   0.161  17.760
 4741SOL     OW25850   2.064   0.082  17.038
 4741SOL    HW125851   1.996   0.149  17.034
 4741SOL    HW225852   2.144   0.127  17.010
 4742SOL     OW25853   0.867   3.463  16.103
 4742SOL    HW125854   0.888   3.480  16.011
 4742SOL    HW225855   0.773   3.480  16.109
 4743SOL     OW25856   2.069   3.922  16.209
 4743SOL    HW125857   2.091   3.979  16.136
 4743SOL    HW225858   2.073   3.979  16.286
 4744SOL     OW25859   3.006   1.707  15.333
 4744SOL    HW125860   3.013   1.616  15.305
 4744SOL    HW225861   2.929   1.709  15.389
 4745SOL     OW25862   2.164   4.700  15.408
 4745SOL    HW125863   2.216   4.780  15.401
 4745SOL    HW225864   2.081   4.722  15.365
 4746SOL     OW25865   3.225   1.224  15.723
 4746SOL    HW125866   3.180   1.304  15.697
 4746SOL    HW225867   3.316   1.237  15.696
 4747SOL     OW25868   3.453   0.246  16.287
 4747SOL    HW125869   3.518   0.317  16.284
 4747SOL    HW225870   3.455   0.209  16.198
 4748SOL     OW25871   3.698   0.434  15.105
 4748SOL    HW125872   3.613   0.477  15.103
 4748SOL    HW225873   3.733   0.445  15.016
 4749SOL     OW25874   2.820   1.403  15.833
 4749SOL    HW125875   2.855   1.471  15.890
 4749SOL    HW225876   2.887   1.391  15.765
 4750SOL     OW25877   2.560   0.301  15.645
 4750SOL    HW125878   2.467   0.321  15.643
 4750SOL    HW225879   2.585   0.292  15.553
 4751SOL     OW25880   1.877   4.495  15.253
 4751SOL    HW125881   1.895   4.584  15.281
 4751SOL    HW225882   1.782   4.486  15.259
 4752SOL     OW25883   1.216   2.221  17.269
 4752SOL    HW125884   1.287   2.160  17.250
 4752SOL    HW225885   1.162   2.221  17.190
 4753SOL     OW25886   2.286   0.620  15.695
 4753SOL    HW125887   2.230   0.675  15.749
 4753SOL    HW225888   2.374   0.631  15.732
 4754SOL     OW25889   3.378   2.883  17.581
 4754SOL    HW125890   3.380   2.855  17.489
 4754SOL    HW225891   3.438   2.957  17.585
 4755SOL     OW25892   1.979   0.267  15.272
 4755SOL    HW125893   2.052   0.253  15.211
 4755SOL    HW225894   1.903   0.232  15.227
 4756SOL     OW25895   1.974   1.056  16.859
 4756SOL    HW125896   1.935   1.044  16.772
 4756SOL    HW225897   2.048   0.996  16.860
 4757SOL     OW25898   3.572   0.870  14.937
 4757SOL    HW125899   3.635   0.927  14.980
 4757SOL    HW225900   3.622   0.827  14.868
 4758SOL     OW25901   3.638   0.446  16.301
 4758SOL    HW125902   3.694   0.517  16.333
 4758SOL    HW225903   3.575   0.489  16.244
 4759SOL     OW25904   1.964   0.756  16.590
 4759SOL    HW125905   1.926   0.720  16.670
 4759SOL    HW225906   2.049   0.712  16.582
 4760SOL     OW25907   3.804   0.908  15.690
 4760SOL    HW125908   3.879   0.852  15.671
 4760SOL    HW225909   3.751   0.907  15.611
 4761SOL     OW25910   2.449   1.876  15.906
 4761SOL    HW125911   2.536   1.889  15.943
 4761SOL    HW225912   2.422   1.789  15.935
 4762SOL     OW25913   2.307   0.868  16.482
 4762SOL    HW125914   2.285   0.783  16.520
 4762SOL    HW225915   2.242   0.928  16.519
 4763SOL     OW25916   2.558   1.507  16.162
 4763SOL    HW125917   2.563   1.573  16.093
 4763SOL    HW225918   2.609   1.433  16.128
 4764SOL     OW25919   1.178   1.770  16.448
 4764SOL    HW125920   1.186   1.682  16.412
 4764SOL    HW225921   1.086   1.792  16.437
 4765SOL     OW25922   2.763   0.179  15.795
 4765SOL    HW125923   2.790   0.088  15.788
 4765SOL    HW225924   2.683   0.185  15.741
 4766SOL     OW25925   0.887   2.229  17.819
 4766SOL    HW125926   0.850   2.279  17.891
 4766SOL    HW225927   0.833   2.251  17.743
 4767SOL     OW25928   2.882   0.658  15.471
 4767SOL    HW125929   2.944   0.608  15.522
 4767SOL    HW225930   2.931   0.686  15.394
 4768SOL     OW25931   2.528   1.271  15.278
 4768SOL    HW125932   2.572   1.203  15.226
 4768SOL    HW225933   2.463   1.308  15.218
 4769SOL     OW25934   3.919   0.772  14.970
 4769SOL    HW125935   3.983   0.725  15.023
 4769SOL    HW225936   3.906   0.855  15.016
 4770SOL     OW25937   2.107   1.907  14.780
 4770SOL    HW125938   2.175   1.972  14.796
 4770SOL    HW225939   2.093   1.866  14.865
 4771SOL     OW25940   4.025   0.404  15.203
 4771SOL    HW125941   4.028   0.496  15.177
 4771SOL    HW225942   4.002   0.357  15.123
 4772SOL     OW25943   1.921   4.767  15.295
 4772SOL    HW125944   1.862   0.018  15.361
 4772SOL    HW225945   1.903   0.038  15.217
 4773SOL     OW25946   3.083   1.285  14.756
 4773SOL    HW125947   3.064   1.370  14.715
 4773SOL    HW225948   3.022   1.224  14.714
 4774SOL     OW25949   3.564   1.130  15.931
 4774SOL    HW125950   3.581   1.212  15.978
 4774SOL    HW225951   3.560   1.155  15.839
 4775SOL     OW25952   3.700   0.492  15.896
 4775SOL    HW125953   3.613   0.454  15.890
 4775SOL    HW225954   3.716   0.529  15.809
 4776SOL     OW25955   2.699   1.286  16.059
 4776SOL    HW125956   2.721   1.193  16.063
 4776SOL    HW225957   2.745   1.317  15.981
 4777SOL     OW25958   1.696   1.870  16.382
 4777SOL    HW125959   1.763   1.803  16.369
 4777SOL    HW225960   1.613   1.824  16.371
 4778SOL     OW25961   2.740   0.090  15.031
 4778SOL    HW125962   2.773   0.122  15.115
 4778SOL    HW225963   2.695   0.008  15.052
 4779SOL     OW25964   3.568   0.342  16.589
 4779SOL    HW125965   3.634   0.407  16.616
 4779SOL    HW225966   3.557   0.357  16.495
 4780SOL     OW25967   0.771   4.017  19.838
 4780SOL    HW125968   0.753   3.953  19.907
 4780SOL    HW225969   0.773   3.965  19.758
 4781SOL     OW25970   1.252   3.919  15.064
 4781SOL    HW125971   1.274   3.958  14.980
 4781SOL    HW225972   1.205   3.839  15.042
 4782SOL     OW25973   1.168   2.287  17.825
 4782SOL    HW125974   1.077   2.269  17.800
 4782SOL    HW225975   1.220   2.256  17.751
 4783SOL     OW25976   3.534   0.106  16.045
 4783SOL    HW125977   3.561   0.046  15.976
 4783SOL    HW225978   3.589   0.184  16.033
 4784SOL     OW25979   2.709   0.372  16.368
 4784SOL    HW125980   2.678   0.309  16.303
 4784SOL    HW225981   2.735   0.448  16.316
 4785SOL     OW25982   1.327   1.652  16.782
 4785SOL    HW125983   1.418   1.648  16.753
 4785SOL    HW225984   1.278   1.608  16.713
 4786SOL     OW25985   4.111   0.713  15.403
 4786SOL    HW125986   4.206   0.723  15.417
 4786SOL    HW225987   4.071   0.745  15.484
 4787SOL     OW25988   2.988   0.495  15.701
 4787SOL    HW125989   3.048   0.465  15.770
 4787SOL    HW225990   3.016   0.446  15.623
 4788SOL     OW25991   3.482   4.181   6.599
 4788SOL    HW125992   3.399   4.143   6.630
 4788SOL    HW225993   3.548   4.114   6.617
 4789SOL     OW25994   0.058   3.951  24.195
 4789SOL    HW125995   0.013   4.030  24.224
 4789SOL    HW225996   0.073   3.901  24.275
 4790SOL     OW25997   0.708   2.619  23.238
 4790SOL    HW125998   0.783   2.588  23.188
 4790SOL    HW225999   0.643   2.549  23.231
 4791SOL     OW26000   2.430   1.501   5.207
 4791SOL    HW126001   2.479   1.456   5.138
 4791SOL    HW226002   2.498   1.540   5.262
 4792SOL     OW26003   3.129   0.696  16.943
 4792SOL    HW126004   3.042   0.656  16.949
 4792SOL    HW226005   3.162   0.694  17.032
 4793SOL     OW26006   3.224   0.341  17.282
 4793SOL    HW126007   3.143   0.291  17.291
 4793SOL    HW226008   3.248   0.331  17.190
 4794SOL     OW26009   2.255   1.399  15.276
 4794SOL    HW126010   2.306   1.473  15.309
 4794SOL    HW226011   2.268   1.401  15.181
 4795SOL     OW26012   0.592   0.818   7.228
 4795SOL    HW126013   0.546   0.825   7.311
 4795SOL    HW226014   0.625   0.906   7.212
 4796SOL     OW26015   0.135   2.588  22.056
 4796SOL    HW126016   0.178   2.512  22.017
 4796SOL    HW226017   0.042   2.569  22.052
 4797SOL     OW26018   1.581   0.391  20.334
 4797SOL    HW126019   1.646   0.362  20.270
 4797SOL    HW226020   1.631   0.402  20.415
 4798SOL     OW26021   3.287   0.957  16.837
 4798SOL    HW126022   3.332   0.935  16.755
 4798SOL    HW226023   3.241   0.876  16.861
 4799SOL     OW26024   0.649   4.170  25.885
 4799SOL    HW126025   0.741   4.145  25.891
 4799SOL    HW226026   0.605   4.090  25.854
 4800SOL     OW26027   2.949   3.376   0.114
 4800SOL    HW126028   2.891   3.359   0.040
 4800SOL    HW226029   2.935   3.468   0.135
 4801SOL     OW26030   3.184   0.579  14.593
 4801SOL    HW126031   3.199   0.493  14.553
 4801SOL    HW226032   3.263   0.596  14.644
 4802SOL     OW26033   0.421   3.414  21.565
 4802SOL    HW126034   0.454   3.349  21.627
 4802SOL    HW226035   0.478   3.404  21.489
 4803SOL     OW26036   1.413   1.611  17.037
 4803SOL    HW126037   1.383   1.616  16.947
 4803SOL    HW226038   1.476   1.539  17.038
 4804SOL     OW26039   4.754   4.167  20.522
 4804SOL    HW126040   0.057   4.191  20.486
 4804SOL    HW226041   4.692   4.187  20.452
 4805SOL     OW26042   3.115   0.381  15.920
 4805SOL    HW126043   3.036   0.330  15.935
 4805SOL    HW226044   3.135   0.420  16.006
 4806SOL     OW26045   2.454   0.061  26.275
 4806SOL    HW126046   2.402   0.052  26.355
 4806SOL    HW226047   2.540   0.027  26.298
 4807SOL     OW26048   4.506   3.828  23.379
 4807SOL    HW126049   4.576   3.892  23.383
 4807SOL    HW226050   4.510   3.793  23.290
 4808SOL     OW26051   1.247   2.142  16.781
 4808SOL    HW126052   1.274   2.225  16.742
 4808SOL    HW226053   1.280   2.075  16.720
 4809SOL     OW26054   1.914   2.312  17.662
 4809SOL    HW126055   1.965   2.388  17.688
 4809SOL    HW226056   1.933   2.246  17.728
 4810SOL     OW26057   2.959   1.683  16.885
 4810SOL    HW126058   3.044   1.658  16.848
 4810SOL    HW226059   2.895   1.640  16.828
 4811SOL     OW26060   0.436   3.889   3.902
 4811SOL    HW126061   0.466   3.809   3.858
 4811SOL    HW226062   0.453   3.959   3.839
 4812SOL     OW26063   4.669   2.212  19.160
 4812SOL    HW126064   4.620   2.262  19.095
 4812SOL    HW226065   4.603   2.163  19.208
 4813SOL     OW26066   1.518   3.308  10.154
 4813SOL    HW126067   1.534   3.365  10.229
 4813SOL    HW226068   1.574   3.343  10.085
 4814SOL     OW26069   0.609   1.982   7.683
 4814SOL    HW126070   0.541   2.045   7.657
 4814SOL    HW226071   0.572   1.938   7.760
 4815SOL     OW26072   2.458   0.470  17.786
 4815SOL    HW126073   2.364   0.456  17.796
 4815SOL    HW226074   2.493   0.465  17.875
 4816SOL     OW26075   3.480   1.634  24.024
 4816SOL    HW126076   3.477   1.648  23.929
 4816SOL    HW226077   3.573   1.640  24.047
 4817SOL     OW26078   2.158   4.634  16.924
 4817SOL    HW126079   2.125   4.716  16.960
 4817SOL    HW226080   2.093   4.569  16.951
 4818SOL     OW26081   1.802   2.651  22.470
 4818SOL    HW126082   1.814   2.618  22.381
 4818SOL    HW226083   1.753   2.582  22.515
 4819SOL     OW26084   4.061   2.186   6.538
 4819SOL    HW126085   4.062   2.241   6.617
 4819SOL    HW226086   4.113   2.109   6.562
 4820SOL     OW26087   4.101   1.446   7.183
 4820SOL    HW126088   4.055   1.470   7.102
 4820SOL    HW226089   4.194   1.451   7.161
 4821SOL     OW26090   0.704   1.104  17.394
 4821SOL    HW126091   0.687   1.160  17.470
 4821SOL    HW226092   0.763   1.155  17.339
 4822SOL     OW26093   3.952   0.655   8.571
 4822SOL    HW126094   3.883   0.615   8.518
 4822SOL    HW226095   3.931   0.629   8.661
 4823SOL     OW26096   4.002   1.910   5.850
 4823SOL    HW126097   4.055   1.833   5.871
 4823SOL    HW226098   4.038   1.980   5.905
 4824SOL     OW26099   2.862   3.651   8.092
 4824SOL    HW126100   2.807   3.717   8.050
 4824SOL    HW226101   2.939   3.644   8.036
 4825SOL     OW26102   1.956   0.441   8.829
 4825SOL    HW126103   1.905   0.427   8.909
 4825SOL    HW226104   1.940   0.363   8.776
 4826SOL     OW26105   3.359   0.526  21.947
 4826SOL    HW126106   3.386   0.443  21.987
 4826SOL    HW226107   3.377   0.515  21.854
 4827SOL     OW26108   3.455   0.688  20.272
 4827SOL    HW126109   3.415   0.679  20.185
 4827SOL    HW226110   3.408   0.625  20.326
 4828SOL     OW26111   1.684   2.117  17.039
 4828SOL    HW126112   1.735   2.058  16.984
 4828SOL    HW226113   1.595   2.081  17.038
 4829SOL     OW26114   3.486   0.520  16.105
 4829SOL    HW126115   3.426   0.594  16.110
 4829SOL    HW226116   3.460   0.473  16.026
 4830SOL     OW26117   3.738   1.855  17.529
 4830SOL    HW126118   3.804   1.923  17.533
 4830SOL    HW226119   3.726   1.838  17.436
 4831SOL     OW26120   2.548   0.439  18.046
 4831SOL    HW126121   2.611   0.368  18.060
 4831SOL    HW226122   2.598   0.519  18.061
 4832SOL     OW26123   4.639   1.773  23.796
 4832SOL    HW126124   4.648   1.690  23.842
 4832SOL    HW226125   4.653   1.839  23.864
 4833SOL     OW26126   1.640   4.685   5.269
 4833SOL    HW126127   1.562   4.700   5.323
 4833SOL    HW226128   1.707   4.742   5.308
 4834SOL     OW26129   3.257   3.995  22.767
 4834SOL    HW126130   3.243   3.937  22.842
 4834SOL    HW226131   3.326   3.951  22.716
 4835SOL     OW26132   1.793   1.463  17.121
 4835SOL    HW126133   1.859   1.408  17.080
 4835SOL    HW226134   1.716   1.455  17.065
 4836SOL     OW26135   1.438   2.575  22.250
 4836SOL    HW126136   1.449   2.515  22.176
 4836SOL    HW226137   1.345   2.595  22.253
 4837SOL     OW26138   4.092   2.348  21.359
 4837SOL    HW126139   4.088   2.260  21.395
 4837SOL    HW226140   4.001   2.371  21.341
 4838SOL     OW26141   1.435   1.798  16.370
 4838SOL    HW126142   1.347   1.764  16.386
 4838SOL    HW226143   1.422   1.869  16.308
 4839SOL     OW26144   2.933   0.878  21.148
 4839SOL    HW126145   2.990   0.929  21.091
 4839SOL    HW226146   2.849   0.925  21.147
 4840SOL     OW26147   3.822   4.539  17.492
 4840SOL    HW126148   3.909   4.551  17.532
 4840SOL    HW226149   3.796   4.451  17.520
 4841SOL     OW26150   2.540   3.794   0.599
 4841SOL    HW126151   2.562   3.790   0.692
 4841SOL    HW226152   2.623   3.785   0.553
 4842SOL     OW26153   1.827   0.250  17.069
 4842SOL    HW126154   1.836   0.311  16.995
 4842SOL    HW226155   1.735   0.223  17.066
 4843SOL     OW26156   4.426   3.813   0.230
 4843SOL    HW126157   4.398   3.743   0.171
 4843SOL    HW226158   4.362   3.812   0.301
 4844SOL     OW26159   2.332   1.417  23.881
 4844SOL    HW126160   2.261   1.437  23.819
 4844SOL    HW226161   2.389   1.358  23.832
 4845SOL     OW26162   3.213   3.300  28.269
 4845SOL    HW126163   3.168   3.245  28.333
 4845SOL    HW226164   3.147   3.321  28.204
 4846SOL     OW26165   1.185   1.871  16.905
 4846SOL    HW126166   1.240   1.799  16.873
 4846SOL    HW226167   1.181   1.932  16.831
 4847SOL     OW26168   1.388   2.710   5.115
 4847SOL    HW126169   1.430   2.625   5.123
 4847SOL    HW226170   1.369   2.736   5.206
 4848SOL     OW26171   2.442   4.681  16.988
 4848SOL    HW126172   2.501   4.615  16.951
 4848SOL    HW226173   2.354   4.647  16.972
 4849SOL     OW26174   4.379   1.088  22.237
 4849SOL    HW126175   4.432   1.030  22.292
 4849SOL    HW226176   4.444   1.139  22.188
 4850SOL     OW26177   1.260   2.736  28.025
 4850SOL    HW126178   1.272   2.686  27.945
 4850SOL    HW226179   1.169   2.722  28.050
 4851SOL     OW26180   4.776   2.046   7.399
 4851SOL    HW126181   4.682   2.037   7.416
 4851SOL    HW226182   0.035   1.982   7.457
 4852SOL     OW26183   4.715   1.738   9.987
 4852SOL    HW126184   4.754   1.652  10.000
 4852SOL    HW226185   4.713   1.777  10.074
 4853SOL     OW26186   1.939   0.221  15.612
 4853SOL    HW126187   1.907   0.307  15.584
 4853SOL    HW226188   1.914   0.162  15.540
 4854SOL     OW26189   2.519   0.514  23.857
 4854SOL    HW126190   2.490   0.590  23.908
 4854SOL    HW226191   2.557   0.552  23.778
 4855SOL     OW26192   3.166   1.642  16.693
 4855SOL    HW126193   3.114   1.561  16.696
 4855SOL    HW226194   3.174   1.663  16.600
 4856SOL     OW26195   0.817   4.619  16.801
 4856SOL    HW126196   0.783   4.622  16.711
 4856SOL    HW226197   0.908   4.591  16.792
 4857SOL     OW26198   1.967   1.332  15.932
 4857SOL    HW126199   2.017   1.271  15.878
 4857SOL    HW226200   1.879   1.332  15.894
 4858SOL     OW26201   2.105   0.088  23.449
 4858SOL    HW126202   2.012   0.067  23.438
 4858SOL    HW226203   2.137   0.099  23.359
 4859SOL     OW26204   0.038   2.896   7.707
 4859SOL    HW126205   0.063   2.828   7.770
 4859SOL    HW226206   4.731   2.920   7.733
 4860SOL     OW26207   3.822   0.726  19.145
 4860SOL    HW126208   3.847   0.720  19.237
 4860SOL    HW226209   3.874   0.659  19.101
 4861SOL     OW26210   2.553   1.410  15.808
 4861SOL    HW126211   2.648   1.400  15.817
 4861SOL    HW226212   2.537   1.402  15.714
 4862SOL     OW26213   4.616   1.470   6.616
 4862SOL    HW126214   4.543   1.485   6.556
 4862SOL    HW226215   4.583   1.502   6.701
 4863SOL     OW26216   2.638   0.232  20.697
 4863SOL    HW126217   2.611   0.185  20.618
 4863SOL    HW226218   2.573   0.302  20.706
 4864SOL     OW26219   4.681   0.896  15.785
 4864SOL    HW126220   4.661   0.899  15.691
 4864SOL    HW226221   4.772   0.867  15.789
 4865SOL     OW26222   2.909   0.554   6.670
 4865SOL    HW126223   2.920   0.579   6.762
 4865SOL    HW226224   2.844   0.615   6.637
 4866SOL     OW26225   3.858   2.994  21.733
 4866SOL    HW126226   3.910   3.035  21.802
 4866SOL    HW226227   3.821   3.068  21.684
 4867SOL     OW26228   1.492   2.191  16.443
 4867SOL    HW126229   1.569   2.201  16.387
 4867SOL    HW226230   1.438   2.125  16.399
 4868SOL     OW26231   4.753   1.075   6.820
 4868SOL    HW126232   4.682   1.015   6.844
 4868SOL    HW226233   4.730   1.106   6.733
 4869SOL     OW26234   2.465   1.350  24.513
 4869SOL    HW126235   2.462   1.382  24.603
 4869SOL    HW226236   2.535   1.400  24.472
 4870SOL     OW26237   3.757   0.594  15.634
 4870SOL    HW126238   3.743   0.553  15.549
 4870SOL    HW226239   3.775   0.686  15.615
 4871SOL     OW26240   3.192   0.301  17.979
 4871SOL    HW126241   3.119   0.363  17.985
 4871SOL    HW226242   3.161   0.233  17.920
 4872SOL     OW26243   2.758   4.613  18.008
 4872SOL    HW126244   2.697   4.547  18.041
 4872SOL    HW226245   2.843   4.588  18.043
 4873SOL     OW26246   3.741   4.310  17.652
 4873SOL    HW126247   3.794   4.320  17.731
 4873SOL    HW226248   3.738   4.216  17.637
 4874SOL     OW26249   2.085   1.976  19.660
 4874SOL    HW126250   2.154   1.910  19.666
 4874SOL    HW226251   2.124   2.046  19.608
 4875SOL     OW26252   0.827   0.062  18.368
 4875SOL    HW126253   0.746   0.010  18.367
 4875SOL    HW226254   0.807   0.139  18.316
 4876SOL     OW26255   3.866   0.418  23.335
 4876SOL    HW126256   3.917   0.446  23.258
 4876SOL    HW226257   3.880   0.324  23.339
 4877SOL     OW26258   3.678   0.066   3.428
 4877SOL    HW126259   3.640   0.069   3.515
 4877SOL    HW226260   3.638   4.773   3.386
 4878SOL     OW26261   0.966   0.798   9.000
 4878SOL    HW126262   1.055   0.803   9.034
 4878SOL    HW226263   0.920   0.743   9.063
 4879SOL     OW26264   1.760   1.372   3.989
 4879SOL    HW126265   1.774   1.358   3.895
 4879SOL    HW226266   1.676   1.329   4.007
 4880SOL     OW26267   0.272   1.426   3.839
 4880SOL    HW126268   0.330   1.382   3.777
 4880SOL    HW226269   0.325   1.440   3.917
 4881SOL     OW26270   4.480   3.161  26.774
 4881SOL    HW126271   4.496   3.139  26.866
 4881SOL    HW226272   4.394   3.205  26.776
 4882SOL     OW26273   3.963   2.231   0.466
 4882SOL    HW126274   3.994   2.322   0.469
 4882SOL    HW226275   4.034   2.180   0.506
 4883SOL     OW26276   2.289   0.077  20.643
 4883SOL    HW126277   2.357   0.051  20.581
 4883SOL    HW226278   2.246   4.777  20.666
 4884SOL     OW26279   0.759   0.241   7.622
 4884SOL    HW126280   0.719   0.283   7.699
 4884SOL    HW226281   0.768   0.312   7.559
 4885SOL     OW26282   0.442   4.057  19.807
 4885SOL    HW126283   0.460   4.000  19.732
 4885SOL    HW226284   0.386   4.126  19.771
 4886SOL     OW26285   2.205   1.281   2.065
 4886SOL    HW126286   2.269   1.351   2.054
 4886SOL    HW226287   2.257   1.202   2.077
 4887SOL     OW26288   2.304   0.171   5.805
 4887SOL    HW126289   2.365   0.141   5.737
 4887SOL    HW226290   2.354   0.164   5.886
 4888SOL     OW26291   4.312   1.447  17.455
 4888SOL    HW126292   4.316   1.383  17.384
 4888SOL    HW226293   4.366   1.519  17.425
 4889SOL     OW26294   1.216   4.301  24.771
 4889SOL    HW126295   1.268   4.221  24.767
 4889SOL    HW226296   1.250   4.355  24.700
 4890SOL     OW26297   1.820   3.267  25.728
 4890SOL    HW126298   1.771   3.194  25.690
 4890SOL    HW226299   1.753   3.325  25.764
 4891SOL     OW26300   3.318   4.765   4.413
 4891SOL    HW126301   3.234   0.005   4.453
 4891SOL    HW226302   3.347   4.687   4.461
 4892SOL     OW26303   0.684   1.455   3.640
 4892SOL    HW126304   0.703   1.549   3.650
 4892SOL    HW226305   0.736   1.429   3.564
 4893SOL     OW26306   0.492   1.030  23.794
 4893SOL    HW126307   0.441   0.965  23.843
 4893SOL    HW226308   0.488   1.109  23.848
 4894SOL     OW26309   1.746   3.712  21.434
 4894SOL    HW126310   1.807   3.639  21.449
 4894SOL    HW226311   1.686   3.680  21.368
 4895SOL     OW26312   3.039   3.978   8.343
 4895SOL    HW126313   3.034   4.045   8.411
 4895SOL    HW226314   3.122   3.933   8.360
 4896SOL     OW26315   3.316   1.618  19.433
 4896SOL    HW126316   3.361   1.596  19.514
 4896SOL    HW226317   3.386   1.627  19.368
 4897SOL     OW26318   2.628   4.455  24.754
 4897SOL    HW126319   2.585   4.404  24.823
 4897SOL    HW226320   2.604   4.546  24.774
 4898SOL     OW26321   3.007   3.167   8.712
 4898SOL    HW126322   3.082   3.185   8.769
 4898SOL    HW226323   2.975   3.082   8.742
 4899SOL     OW26324   2.869   2.966  21.767
 4899SOL    HW126325   2.868   2.890  21.709
 4899SOL    HW226326   2.839   3.039  21.711
 4900SOL     OW26327   4.172   4.443   9.304
 4900SOL    HW126328   4.118   4.379   9.351
 4900SOL    HW226329   4.119   4.469   9.229
 4901SOL     OW26330   2.608   3.569   8.800
 4901SOL    HW126331   2.644   3.537   8.882
 4901SOL    HW226332   2.641   3.507   8.734
 4902SOL     OW26333   1.530   0.121   0.198
 4902SOL    HW126334   1.573   0.036   0.213
 4902SOL    HW226335   1.600   0.185   0.212
 4903SOL     OW26336   2.775   3.493  18.459
 4903SOL    HW126337   2.762   3.485  18.365
 4903SOL    HW226338   2.689   3.519  18.493
 4904SOL     OW26339   2.119   1.570   2.358
 4904SOL    HW126340   2.095   1.478   2.369
 4904SOL    HW226341   2.178   1.588   2.431
 4905SOL     OW26342   2.785   0.622  19.432
 4905SOL    HW126343   2.827   0.638  19.348
 4905SOL    HW226344   2.703   0.578  19.410
 4906SOL     OW26345   1.872   3.895   8.091
 4906SOL    HW126346   1.791   3.924   8.134
 4906SOL    HW226347   1.917   3.842   8.156
 4907SOL     OW26348   2.713   0.532  25.394
 4907SOL    HW126349   2.673   0.460  25.444
 4907SOL    HW226350   2.764   0.488  25.326
 4908SOL     OW26351   3.480   3.116   5.833
 4908SOL    HW126352   3.464   3.042   5.891
 4908SOL    HW226353   3.416   3.105   5.763
 4909SOL     OW26354   0.637   0.289   9.939
 4909SOL    HW126355   0.642   0.293   9.844
 4909SOL    HW226356   0.633   0.380   9.968
 4910SOL     OW26357   3.079   1.358   2.888
 4910SOL    HW126358   3.107   1.327   2.974
 4910SOL    HW226359   2.997   1.404   2.904
 4911SOL     OW26360   2.206   3.805  19.650
 4911SOL    HW126361   2.204   3.825  19.743
 4911SOL    HW226362   2.157   3.724  19.641
 4912SOL     OW26363   1.153   2.566   2.919
 4912SOL    HW126364   1.143   2.521   2.835
 4912SOL    HW226365   1.142   2.659   2.898
 4913SOL     OW26366   0.482   1.881  18.862
 4913SOL    HW126367   0.549   1.919  18.805
 4913SOL    HW226368   0.416   1.950  18.870
 4914SOL     OW26369   1.006   0.472  11.178
 4914SOL    HW126370   1.032   0.483  11.086
 4914SOL    HW226371   1.000   0.561  11.212
 4915SOL     OW26372   2.779   2.588  26.986
 4915SOL    HW126373   2.694   2.631  26.983
 4915SOL    HW226374   2.765   2.502  26.948
 4916SOL     OW26375   3.594   3.003   3.723
 4916SOL    HW126376   3.531   2.987   3.653
 4916SOL    HW226377   3.617   2.915   3.754
 4917SOL     OW26378   2.038   1.278  21.526
 4917SOL    HW126379   2.032   1.317  21.439
 4917SOL    HW226380   2.131   1.278  21.546
 4918SOL     OW26381   0.028   3.985  24.487
 4918SOL    HW126382   4.737   3.926  24.468
 4918SOL    HW226383   0.070   3.948  24.565
 4919SOL     OW26384   3.771   0.146   5.378
 4919SOL    HW126385   3.838   0.100   5.328
 4919SOL    HW226386   3.724   0.197   5.312
 4920SOL     OW26387   2.799   0.959   9.971
 4920SOL    HW126388   2.755   0.891   9.919
 4920SOL    HW226389   2.727   1.008  10.011
 4921SOL     OW26390   4.439   0.045   9.905
 4921SOL    HW126391   4.515   4.777   9.876
 4921SOL    HW226392   4.417   0.008   9.991
 4922SOL     OW26393   2.721   0.494   8.171
 4922SOL    HW126394   2.767   0.564   8.217
 4922SOL    HW226395   2.695   0.434   8.241
 4923SOL     OW26396   2.010   3.669   3.231
 4923SOL    HW126397   2.036   3.702   3.145
 4923SOL    HW226398   1.998   3.575   3.218
 4924SOL     OW26399   1.031   1.292   8.703
 4924SOL    HW126400   0.948   1.340   8.699
 4924SOL    HW226401   1.009   1.210   8.747
 4925SOL     OW26402   4.354   1.060  27.635
 4925SOL    HW126403   4.323   1.137  27.682
 4925SOL    HW226404   4.278   1.002  27.629
 4926SOL     OW26405   2.212   3.689   9.477
 4926SOL    HW126406   2.256   3.759   9.526
 4926SOL    HW226407   2.123   3.689   9.511
 4927SOL     OW26408   3.586   1.625  23.474
 4927SOL    HW126409   3.537   1.630  23.556
 4927SOL    HW226410   3.524   1.651  23.407
 4928SOL     OW26411   2.376   0.950   8.403
 4928SOL    HW126412   2.347   0.895   8.476
 4928SOL    HW226413   2.295   0.979   8.361
 4929SOL     OW26414   1.324   0.790  27.195
 4929SOL    HW126415   1.328   0.753  27.107
 4929SOL    HW226416   1.318   0.714  27.253
 4930SOL     OW26417   4.476   3.648   4.903
 4930SOL    HW126418   4.439   3.580   4.846
 4930SOL    HW226419   4.424   3.726   4.884
 4931SOL     OW26420   3.642   2.642   9.303
 4931SOL    HW126421   3.570   2.593   9.263
 4931SOL    HW226422   3.598   2.709   9.355
 4932SOL     OW26423   1.478   1.044  24.917
 4932SOL    HW126424   1.529   1.018  24.840
 4932SOL    HW226425   1.540   1.091  24.973
 4933SOL     OW26426   0.215   1.630  22.343
 4933SOL    HW126427   0.227   1.548  22.295
 4933SOL    HW226428   0.124   1.627  22.374
 4934SOL     OW26429   4.575   0.620  23.871
 4934SOL    HW126430   4.499   0.653  23.918
 4934SOL    HW226431   4.629   0.579  23.938
 4935SOL     OW26432   3.722   1.204   5.930
 4935SOL    HW126433   3.769   1.266   5.874
 4935SOL    HW226434   3.758   1.119   5.906
 4936SOL     OW26435   0.740   4.258  21.011
 4936SOL    HW126436   0.710   4.173  20.979
 4936SOL    HW226437   0.767   4.241  21.102
 4937SOL     OW26438   3.567   0.579   3.958
 4937SOL    HW126439   3.485   0.589   4.007
 4937SOL    HW226440   3.634   0.612   4.018
 4938SOL     OW26441   3.558   3.659   4.579
 4938SOL    HW126442   3.535   3.743   4.539
 4938SOL    HW226443   3.566   3.598   4.505
 4939SOL     OW26444   2.703   2.452  23.954
 4939SOL    HW126445   2.631   2.389  23.963
 4939SOL    HW226446   2.760   2.434  24.028
 4940SOL     OW26447   3.742   1.393   5.560
 4940SOL    HW126448   3.690   1.472   5.576
 4940SOL    HW226449   3.784   1.374   5.643
 4941SOL     OW26450   3.910   0.879   7.313
 4941SOL    HW126451   3.879   0.822   7.384
 4941SOL    HW226452   3.986   0.924   7.350
 4942SOL     OW26453   4.205   4.410  12.177
 4942SOL    HW126454   4.211   4.392  12.083
 4942SOL    HW226455   4.145   4.344  12.211
 4943SOL     OW26456   1.332   1.137   5.003
 4943SOL    HW126457   1.331   1.070   5.072
 4943SOL    HW226458   1.334   1.088   4.921
 4944SOL     OW26459   3.517   0.954  20.979
 4944SOL    HW126460   3.490   0.925  21.066
 4944SOL    HW226461   3.610   0.930  20.973
 4945SOL     OW26462   2.876   4.352  21.717
 4945SOL    HW126463   2.965   4.320  21.706
 4945SOL    HW226464   2.874   4.435  21.669
 4946SOL     OW26465   0.115   2.263   6.382
 4946SOL    HW126466   0.145   2.354   6.375
 4946SOL    HW226467   0.129   2.227   6.294
 4947SOL     OW26468   0.768   0.570   6.836
 4947SOL    HW126469   0.843   0.602   6.885
 4947SOL    HW226470   0.790   0.479   6.815
 4948SOL     OW26471   1.798   2.037  23.354
 4948SOL    HW126472   1.743   2.058  23.278
 4948SOL    HW226473   1.833   1.950  23.335
 4949SOL     OW26474   2.775   3.959  17.598
 4949SOL    HW126475   2.850   3.975  17.540
 4949SOL    HW226476   2.798   3.879  17.646
 4950SOL     OW26477   0.555   3.231  10.890
 4950SOL    HW126478   0.515   3.198  10.971
 4950SOL    HW226479   0.502   3.307  10.867
 4951SOL     OW26480   0.165   1.949  24.546
 4951SOL    HW126481   0.249   1.904  24.557
 4951SOL    HW226482   0.189   2.035  24.513
 4952SOL     OW26483   2.255   1.141  24.425
 4952SOL    HW126484   2.341   1.148  24.467
 4952SOL    HW226485   2.193   1.169  24.493
 4953SOL     OW26486   4.354   0.298   4.783
 4953SOL    HW126487   4.351   0.215   4.735
 4953SOL    HW226488   4.315   0.361   4.722
 4954SOL     OW26489   2.971   0.946   7.649
 4954SOL    HW126490   2.893   0.941   7.705
 4954SOL    HW226491   2.996   0.855   7.635
 4955SOL     OW26492   2.849   4.545   8.793
 4955SOL    HW126493   2.940   4.520   8.812
 4955SOL    HW226494   2.812   4.568   8.878
 4956SOL     OW26495   4.023   3.852  20.593
 4956SOL    HW126496   3.954   3.787  20.578
 4956SOL    HW226497   4.089   3.832  20.526
 4957SOL     OW26498   0.995   3.912  11.516
 4957SOL    HW126499   0.926   3.846  11.509
 4957SOL    HW226500   0.949   3.996  11.510
 4958SOL     OW26501   2.262   2.992  22.052
 4958SOL    HW126502   2.206   2.916  22.068
 4958SOL    HW226503   2.216   3.043  21.986
 4959SOL     OW26504   2.074   0.318   2.502
 4959SOL    HW126505   2.119   0.369   2.434
 4959SOL    HW226506   1.984   0.308   2.469
 4960SOL     OW26507   4.390   1.520   7.198
 4960SOL    HW126508   4.442   1.453   7.243
 4960SOL    HW226509   4.391   1.595   7.257
 4961SOL     OW26510   4.090   4.757   7.531
 4961SOL    HW126511   4.174   4.764   7.575
 4961SOL    HW226512   4.026   0.005   7.596
 4962SOL     OW26513   0.552   1.687   5.277
 4962SOL    HW126514   0.592   1.774   5.272
 4962SOL    HW226515   0.579   1.643   5.197
 4963SOL     OW26516   1.708   3.995   7.472
 4963SOL    HW126517   1.667   4.080   7.487
 4963SOL    HW226518   1.664   3.936   7.533
 4964SOL     OW26519   1.218   0.027  28.506
 4964SOL    HW126520   1.233   4.775   0.063
 4964SOL    HW226521   1.304   0.027  28.464
 4965SOL     OW26522   3.475   3.076   6.774
 4965SOL    HW126523   3.558   3.074   6.822
 4965SOL    HW226524   3.492   3.029   6.693
 4966SOL     OW26525   0.560   0.904   2.922
 4966SOL    HW126526   0.504   0.862   2.858
 4966SOL    HW226527   0.627   0.949   2.870
 4967SOL     OW26528   2.640   4.655  24.434
 4967SOL    HW126529   2.637   4.738  24.386
 4967SOL    HW226530   2.649   4.681  24.525
 4968SOL     OW26531   4.596   3.078   0.506
 4968SOL    HW126532   4.574   3.042   0.593
 4968SOL    HW226533   4.691   3.072   0.501
 4969SOL     OW26534   2.148   2.012   6.547
 4969SOL    HW126535   2.100   2.067   6.486
 4969SOL    HW226536   2.108   2.031   6.632
 4970SOL     OW26537   3.585   2.071   0.304
 4970SOL    HW126538   3.615   2.150   0.258
 4970SOL    HW226539   3.637   2.069   0.384
 4971SOL     OW26540   2.389   0.934   6.441
 4971SOL    HW126541   2.372   0.908   6.531
 4971SOL    HW226542   2.320   0.996   6.420
 4972SOL     OW26543   0.578   0.925  23.568
 4972SOL    HW126544   0.541   0.950  23.652
 4972SOL    HW226545   0.629   0.846  23.586
 4973SOL     OW26546   2.429   3.030  21.662
 4973SOL    HW126547   2.484   3.034  21.583
 4973SOL    HW226548   2.486   2.991  21.728
 4974SOL     OW26549   0.049   1.480   9.955
 4974SOL    HW126550   4.775   1.428   9.898
 4974SOL    HW226551   0.109   1.524   9.895
 4975SOL     OW26552   3.627   3.670  21.505
 4975SOL    HW126553   3.612   3.674  21.599
 4975SOL    HW226554   3.603   3.581  21.480
 4976SOL     OW26555   4.537   2.303  23.195
 4976SOL    HW126556   4.586   2.380  23.168
 4976SOL    HW226557   4.604   2.243  23.230
 4977SOL     OW26558   3.310   1.847  24.722
 4977SOL    HW126559   3.341   1.821  24.635
 4977SOL    HW226560   3.244   1.781  24.745
 4978SOL     OW26561   0.884   2.842   8.820
 4978SOL    HW126562   0.975   2.814   8.829
 4978SOL    HW226563   0.882   2.931   8.855
 4979SOL     OW26564   0.096   2.534   7.156
 4979SOL    HW126565   0.099   2.452   7.206
 4979SOL    HW226566   0.083   2.602   7.222
 4980SOL     OW26567   0.911   2.941  26.996
 4980SOL    HW126568   0.986   2.975  27.045
 4980SOL    HW226569   0.835   2.979  27.038
 4981SOL     OW26570   4.388   0.657  17.968
 4981SOL    HW126571   4.424   0.626  18.052
 4981SOL    HW226572   4.408   0.750  17.968
 4982SOL     OW26573   0.565   0.847  17.379
 4982SOL    HW126574   0.640   0.807  17.335
 4982SOL    HW226575   0.602   0.919  17.430
 4983SOL     OW26576   2.674   1.442  24.359
 4983SOL    HW126577   2.752   1.423  24.307
 4983SOL    HW226578   2.636   1.519  24.317
 4984SOL     OW26579   2.523   1.574   3.589
 4984SOL    HW126580   2.607   1.591   3.630
 4984SOL    HW226581   2.470   1.651   3.608
 4985SOL     OW26582   4.092   4.288  19.026
 4985SOL    HW126583   4.031   4.218  19.052
 4985SOL    HW226584   4.049   4.369  19.052
 4986SOL     OW26585   0.745   0.352  20.842
 4986SOL    HW126586   0.817   0.297  20.812
 4986SOL    HW226587   0.746   0.428  20.784
 4987SOL     OW26588   1.766   2.460  21.673
 4987SOL    HW126589   1.689   2.425  21.717
 4987SOL    HW226590   1.746   2.452  21.579
 4988SOL     OW26591   1.355   2.305   6.250
 4988SOL    HW126592   1.266   2.335   6.270
 4988SOL    HW226593   1.344   2.246   6.175
 4989SOL     OW26594   1.110   2.231  27.305
 4989SOL    HW126595   1.024   2.214  27.267
 4989SOL    HW226596   1.124   2.325  27.293
 4990SOL     OW26597   1.135   4.134   2.277
 4990SOL    HW126598   1.202   4.068   2.259
 4990SOL    HW226599   1.130   4.185   2.196
 4991SOL     OW26600   3.387   4.192  16.550
 4991SOL    HW126601   3.393   4.284  16.576
 4991SOL    HW226602   3.346   4.195  16.463
 4992SOL     OW26603   3.394   0.193  19.866
 4992SOL    HW126604   3.351   0.130  19.809
 4992SOL    HW226605   3.362   0.172  19.954
 4993SOL     OW26606   0.643   1.714   9.210
 4993SOL    HW126607   0.596   1.769   9.148
 4993SOL    HW226608   0.644   1.765   9.292
 4994SOL     OW26609   0.122   0.240   6.498
 4994SOL    HW126610   0.164   0.178   6.558
 4994SOL    HW226611   0.183   0.314   6.494
 4995SOL     OW26612   4.332   2.477  26.136
 4995SOL    HW126613   4.266   2.412  26.115
 4995SOL    HW226614   4.291   2.561  26.113
 4996SOL     OW26615   3.925   0.041  26.257
 4996SOL    HW126616   3.856   4.764  26.285
 4996SOL    HW226617   3.941   0.097  26.333
 4997SOL     OW26618   1.994   2.937   7.402
 4997SOL    HW126619   2.055   2.870   7.434
 4997SOL    HW226620   1.911   2.915   7.443
 4998SOL     OW26621   1.987   0.003   7.989
 4998SOL    HW126622   2.041   0.061   8.043
 4998SOL    HW226623   1.931   4.740   8.052
 4999SOL     OW26624   0.881   4.592  26.499
 4999SOL    HW126625   0.844   4.665  26.450
 4999SOL    HW226626   0.858   4.515  26.448
 5000SOL     OW26627   4.081   1.159   9.307
 5000SOL    HW126628   4.132   1.083   9.334
 5000SOL    HW226629   4.042   1.193   9.388
 5001SOL     OW26630   2.760   0.701  18.484
 5001SOL    HW126631   2.737   0.611  18.508
 5001SOL    HW226632   2.680   0.738  18.447
 5002SOL     OW26633   2.654   1.626  27.640
 5002SOL    HW126634   2.583   1.593  27.585
 5002SOL    HW226635   2.727   1.566  27.625
 5003SOL     OW26636   1.445   2.417   3.559
 5003SOL    HW126637   1.470   2.447   3.472
 5003SOL    HW226638   1.383   2.346   3.543
 5004SOL     OW26639   3.608   0.234  25.577
 5004SOL    HW126640   3.665   0.237  25.654
 5004SOL    HW226641   3.521   0.215  25.612
 5005SOL     OW26642   0.219   2.315  23.730
 5005SOL    HW126643   0.136   2.273  23.710
 5005SOL    HW226644   0.198   2.380  23.797
 5006SOL     OW26645   3.907   0.483  20.325
 5006SOL    HW126646   3.979   0.476  20.263
 5006SOL    HW226647   3.858   0.560  20.297
 5007SOL     OW26648   4.750   3.824   4.835
 5007SOL    HW126649   4.674   3.881   4.824
 5007SOL    HW226650   4.753   3.805   4.928
 5008SOL     OW26651   0.974   0.537  22.588
 5008SOL    HW126652   0.975   0.451  22.548
 5008SOL    HW226653   1.028   0.591  22.530
 5009SOL     OW26654   3.005   4.293   2.431
 5009SOL    HW126655   2.918   4.276   2.395
 5009SOL    HW226656   2.990   4.360   2.498
 5010SOL     OW26657   2.640   4.261  22.357
 5010SOL    HW126658   2.629   4.183  22.304
 5010SOL    HW226659   2.720   4.301  22.325
 5011SOL     OW26660   0.183   4.437  27.058
 5011SOL    HW126661   0.221   4.523  27.075
 5011SOL    HW226662   0.187   4.393  27.143
 5012SOL     OW26663   2.088   3.816   2.377
 5012SOL    HW126664   2.104   3.724   2.359
 5012SOL    HW226665   2.085   3.823   2.472
 5013SOL     OW26666   3.290   2.168  28.397
 5013SOL    HW126667   3.255   2.159  28.309
 5013SOL    HW226668   3.265   2.256  28.424
 5014SOL     OW26669   4.686   2.688   0.134
 5014SOL    HW126670   4.736   2.730   0.203
 5014SOL    HW226671   4.706   2.595   0.143
 5015SOL     OW26672   1.928   1.379  18.972
 5015SOL    HW126673   1.946   1.394  18.879
 5015SOL    HW226674   1.902   1.464  19.005
 5016SOL     OW26675   4.554   1.331   6.886
 5016SOL    HW126676   4.479   1.271   6.893
 5016SOL    HW226677   4.627   1.281   6.921
 5017SOL     OW26678   1.363   3.776   8.040
 5017SOL    HW126679   1.432   3.842   8.056
 5017SOL    HW226680   1.281   3.824   8.052
 5018SOL     OW26681   4.032   2.999   4.830
 5018SOL    HW126682   4.021   3.016   4.924
 5018SOL    HW226683   4.013   3.082   4.788
 5019SOL     OW26684   4.207   0.301  23.508
 5019SOL    HW126685   4.209   0.378  23.452
 5019SOL    HW226686   4.253   0.234  23.458
 5020SOL     OW26687   1.800   3.736   6.803
 5020SOL    HW126688   1.739   3.677   6.848
 5020SOL    HW226689   1.868   3.677   6.769
 5021SOL     OW26690   2.329   1.674  24.712
 5021SOL    HW126691   2.344   1.673  24.617
 5021SOL    HW226692   2.237   1.651  24.722
 5022SOL     OW26693   1.274   3.907  20.640
 5022SOL    HW126694   1.357   3.896  20.594
 5022SOL    HW226695   1.224   3.966  20.583
 5023SOL     OW26696   2.399   2.053   3.399
 5023SOL    HW126697   2.447   2.121   3.447
 5023SOL    HW226698   2.463   1.983   3.385
 5024SOL     OW26699   2.259   1.124   7.841
 5024SOL    HW126700   2.209   1.197   7.879
 5024SOL    HW226701   2.280   1.068   7.916
 5025SOL     OW26702   1.767   3.897  21.793
 5025SOL    HW126703   1.834   3.835  21.824
 5025SOL    HW226704   1.795   3.920  21.705
 5026SOL     OW26705   0.041   1.674   1.709
 5026SOL    HW126706   0.080   1.739   1.768
 5026SOL    HW226707   4.775   1.615   1.767
 5027SOL     OW26708   4.745   0.037   1.175
 5027SOL    HW126709   0.054   0.011   1.161
 5027SOL    HW226710   4.695   4.739   1.159
 5028SOL     OW26711   0.496   2.796  20.851
 5028SOL    HW126712   0.489   2.840  20.936
 5028SOL    HW226713   0.486   2.866  20.787
 5029SOL     OW26714   1.708   3.558  17.957
 5029SOL    HW126715   1.739   3.629  18.014
 5029SOL    HW226716   1.741   3.581  17.870
 5030SOL     OW26717   4.082   3.415  27.431
 5030SOL    HW126718   4.033   3.387  27.353
 5030SOL    HW226719   4.128   3.336  27.460
 5031SOL     OW26720   3.375   4.172   0.696
 5031SOL    HW126721   3.380   4.133   0.609
 5031SOL    HW226722   3.387   4.099   0.756
 5032SOL     OW26723   1.164   4.401  26.804
 5032SOL    HW126724   1.071   4.415  26.788
 5032SOL    HW226725   1.203   4.489  26.795
 5033SOL     OW26726   2.107   1.701   9.362
 5033SOL    HW126727   2.107   1.692   9.266
 5033SOL    HW226728   2.131   1.614   9.394
 5034SOL     OW26729   0.223   0.492   6.811
 5034SOL    HW126730   0.253   0.572   6.769
 5034SOL    HW226731   0.300   0.436   6.815
 5035SOL     OW26732   0.996   0.686  21.856
 5035SOL    HW126733   0.943   0.752  21.811
 5035SOL    HW226734   0.977   0.604  21.810
 5036SOL     OW26735   3.963   0.823  22.630
 5036SOL    HW126736   3.961   0.848  22.723
 5036SOL    HW226737   4.003   0.898  22.586
 5037SOL     OW26738   4.758   1.234  22.571
 5037SOL    HW126739   4.693   1.264  22.634
 5037SOL    HW226740   4.714   1.240  22.486
 5038SOL     OW26741   3.847   0.257   5.887
 5038SOL    HW126742   3.809   0.178   5.851
 5038SOL    HW226743   3.778   0.297   5.940
 5039SOL     OW26744   2.952   2.289   2.963
 5039SOL    HW126745   2.999   2.207   2.943
 5039SOL    HW226746   3.021   2.349   2.991
 5040SOL     OW26747   1.272   1.093   4.428
 5040SOL    HW126748   1.282   1.030   4.500
 5040SOL    HW226749   1.265   1.178   4.472
 5041SOL     OW26750   2.246   0.847   1.305
 5041SOL    HW126751   2.310   0.818   1.371
 5041SOL    HW226752   2.298   0.897   1.242
 5042SOL     OW26753   2.497   3.274  17.867
 5042SOL    HW126754   2.457   3.356  17.896
 5042SOL    HW226755   2.574   3.301  17.818
 5043SOL     OW26756   3.028   4.472   4.818
 5043SOL    HW126757   3.042   4.448   4.726
 5043SOL    HW226758   3.085   4.547   4.832
 5044SOL     OW26759   1.031   0.327  25.537
 5044SOL    HW126760   0.994   0.402  25.583
 5044SOL    HW226761   1.078   0.365  25.463
 5045SOL     OW26762   2.460   2.798   8.345
 5045SOL    HW126763   2.486   2.870   8.288
 5045SOL    HW226764   2.458   2.722   8.288
 5046SOL     OW26765   3.867   4.303   8.099
 5046SOL    HW126766   3.857   4.313   8.005
 5046SOL    HW226767   3.923   4.375   8.126
 5047SOL     OW26768   2.799   1.066  17.483
 5047SOL    HW126769   2.851   1.007  17.429
 5047SOL    HW226770   2.711   1.060  17.447
 5048SOL     OW26771   4.715   1.277  26.875
 5048SOL    HW126772   0.020   1.311  26.852
 5048SOL    HW226773   4.728   1.234  26.959
 5049SOL     OW26774   1.368   1.655  27.555
 5049SOL    HW126775   1.362   1.660  27.460
 5049SOL    HW226776   1.442   1.597  27.572
 5050SOL     OW26777   1.470   2.455   5.035
 5050SOL    HW126778   1.396   2.419   4.987
 5050SOL    HW226779   1.513   2.378   5.072
 5051SOL     OW26780   4.252   4.121  25.206
 5051SOL    HW126781   4.278   4.118  25.298
 5051SOL    HW226782   4.157   4.112  25.207
 5052SOL     OW26783   1.818   3.829  28.248
 5052SOL    HW126784   1.774   3.749  28.220
 5052SOL    HW226785   1.907   3.802  28.270
 5053SOL     OW26786   4.366   4.391  25.987
 5053SOL    HW126787   4.361   4.380  25.892
 5053SOL    HW226788   4.296   4.453  26.008
 5054SOL     OW26789   3.468   0.402   0.779
 5054SOL    HW126790   3.396   0.402   0.716
 5054SOL    HW226791   3.442   0.465   0.846
 5055SOL     OW26792   3.923   1.321   5.757
 5055SOL    HW126793   3.969   1.395   5.796
 5055SOL    HW226794   3.989   1.251   5.754
 5056SOL     OW26795   4.491   0.761   4.530
 5056SOL    HW126796   4.404   0.738   4.563
 5056SOL    HW226797   4.551   0.733   4.599
 5057SOL     OW26798   1.346   1.233  21.590
 5057SOL    HW126799   1.372   1.314  21.634
 5057SOL    HW226800   1.423   1.177  21.598
 5058SOL     OW26801   3.417   0.127  10.557
 5058SOL    HW126802   3.494   0.117  10.612
 5058SOL    HW226803   3.353   0.172  10.612
 5059SOL     OW26804   0.489   2.407  25.595
 5059SOL    HW126805   0.502   2.441  25.506
 5059SOL    HW226806   0.557   2.340  25.605
 5060SOL     OW26807   1.522   4.106   6.248
 5060SOL    HW126808   1.438   4.144   6.273
 5060SOL    HW226809   1.584   4.179   6.249
 5061SOL     OW26810   2.605   4.107  20.335
 5061SOL    HW126811   2.604   4.045  20.262
 5061SOL    HW226812   2.653   4.183  20.301
 5062SOL     OW26813   1.896   4.026   9.545
 5062SOL    HW126814   1.954   4.008   9.470
 5062SOL    HW226815   1.897   4.121   9.553
 5063SOL     OW26816   2.358   1.266   1.069
 5063SOL    HW126817   2.422   1.202   1.102
 5063SOL    HW226818   2.279   1.213   1.052
 5064SOL     OW26819   3.018   2.665   8.958
 5064SOL    HW126820   3.106   2.625   8.958
 5064SOL    HW226821   2.972   2.621   8.887
 5065SOL     OW26822   2.529   1.092  23.107
 5065SOL    HW126823   2.465   1.136  23.051
 5065SOL    HW226824   2.556   1.015  23.057
 5066SOL     OW26825   2.068   1.296  22.921
 5066SOL    HW126826   2.043   1.216  22.967
 5066SOL    HW226827   1.985   1.337  22.896
 5067SOL     OW26828   1.223   3.873   6.383
 5067SOL    HW126829   1.215   3.779   6.398
 5067SOL    HW226830   1.311   3.884   6.346
 5068SOL     OW26831   2.752   0.391  18.870
 5068SOL    HW126832   2.658   0.409  18.867
 5068SOL    HW226833   2.762   0.326  18.939
 5069SOL     OW26834   0.295   3.429   1.631
 5069SOL    HW126835   0.203   3.401   1.624
 5069SOL    HW226836   0.337   3.360   1.682
 5070SOL     OW26837   0.125   1.168  26.599
 5070SOL    HW126838   0.123   1.075  26.574
 5070SOL    HW226839   0.166   1.169  26.685
 5071SOL     OW26840   2.513   1.648  28.295
 5071SOL    HW126841   2.537   1.642  28.203
 5071SOL    HW226842   2.474   1.735  28.304
 5072SOL     OW26843   0.320   4.161   8.008
 5072SOL    HW126844   0.243   4.136   7.956
 5072SOL    HW226845   0.340   4.083   8.059
 5073SOL     OW26846   3.720   3.192   5.904
 5073SOL    HW126847   3.633   3.167   5.874
 5073SOL    HW226848   3.705   3.250   5.979
 5074SOL     OW26849   3.598   0.191  26.272
 5074SOL    HW126850   3.647   0.257  26.223
 5074SOL    HW226851   3.644   0.185  26.356
 5075SOL     OW26852   2.211   3.474  23.916
 5075SOL    HW126853   2.284   3.469  23.854
 5075SOL    HW226854   2.223   3.396  23.972
 5076SOL     OW26855   1.044   1.004   4.858
 5076SOL    HW126856   0.988   1.072   4.895
 5076SOL    HW226857   1.076   1.041   4.776
 5077SOL     OW26858   2.318   0.537   3.112
 5077SOL    HW126859   2.399   0.514   3.066
 5077SOL    HW226860   2.343   0.540   3.204
 5078SOL     OW26861   0.309   0.676  23.513
 5078SOL    HW126862   0.355   0.715  23.439
 5078SOL    HW226863   0.306   0.746  23.579
 5079SOL     OW26864   3.410   3.646  26.714
 5079SOL    HW126865   3.407   3.567  26.659
 5079SOL    HW226866   3.319   3.678  26.715
 5080SOL     OW26867   3.937   2.139  20.759
 5080SOL    HW126868   3.959   2.116  20.849
 5080SOL    HW226869   3.974   2.069  20.706
 5081SOL     OW26870   4.117   1.525   1.638
 5081SOL    HW126871   4.057   1.536   1.711
 5081SOL    HW226872   4.081   1.582   1.569
 5082SOL     OW26873   2.612   1.567   6.238
 5082SOL    HW126874   2.566   1.513   6.302
 5082SOL    HW226875   2.676   1.507   6.198
 5083SOL     OW26876   4.584   2.855  26.679
 5083SOL    HW126877   4.676   2.831  26.680
 5083SOL    HW226878   4.584   2.951  26.681
 5084SOL     OW26879   0.632   2.461   5.848
 5084SOL    HW126880   0.594   2.400   5.911
 5084SOL    HW226881   0.725   2.465   5.871
 5085SOL     OW26882   2.449   4.066  21.006
 5085SOL    HW126883   2.479   4.105  20.924
 5085SOL    HW226884   2.450   3.971  20.990
 5086SOL     OW26885   3.113   0.221  23.885
 5086SOL    HW126886   3.019   0.232  23.870
 5086SOL    HW226887   3.123   0.231  23.979
 5087SOL     OW26888   4.140   4.338  22.004
 5087SOL    HW126889   4.170   4.296  21.923
 5087SOL    HW226890   4.188   4.294  22.074
 5088SOL     OW26891   0.907   3.024   3.234
 5088SOL    HW126892   0.977   3.086   3.214
 5088SOL    HW226893   0.927   2.947   3.181
 5089SOL     OW26894   1.552   2.781   9.495
 5089SOL    HW126895   1.538   2.688   9.478
 5089SOL    HW226896   1.613   2.810   9.427
 5090SOL     OW26897   3.280   0.508   9.043
 5090SOL    HW126898   3.245   0.549   8.964
 5090SOL    HW226899   3.363   0.554   9.060
 5091SOL     OW26900   3.850   1.594  25.503
 5091SOL    HW126901   3.899   1.524  25.461
 5091SOL    HW226902   3.868   1.671  25.450
 5092SOL     OW26903   3.647   0.492  26.904
 5092SOL    HW126904   3.597   0.570  26.879
 5092SOL    HW226905   3.592   0.418  26.879
 5093SOL     OW26906   3.703   3.979  20.081
 5093SOL    HW126907   3.646   4.055  20.079
 5093SOL    HW226908   3.644   3.905  20.094
 5094SOL     OW26909   4.478   2.189   5.288
 5094SOL    HW126910   4.524   2.215   5.208
 5094SOL    HW226911   4.505   2.254   5.353
 5095SOL     OW26912   1.636   0.204  26.815
 5095SOL    HW126913   1.556   0.204  26.762
 5095SOL    HW226914   1.692   0.139  26.772
 5096SOL     OW26915   0.232   2.810  22.656
 5096SOL    HW126916   0.225   2.715  22.656
 5096SOL    HW226917   0.314   2.829  22.611
 5097SOL     OW26918   2.545   2.109   1.493
 5097SOL    HW126919   2.602   2.091   1.418
 5097SOL    HW226920   2.599   2.088   1.569
 5098SOL     OW26921   3.712   4.743  17.109
 5098SOL    HW126922   3.661   4.756  17.189
 5098SOL    HW226923   3.789   4.693  17.138
 5099SOL     OW26924   3.729   2.775   9.646
 5099SOL    HW126925   3.646   2.754   9.603
 5099SOL    HW226926   3.749   2.864   9.617
 5100SOL     OW26927   3.763   4.617  28.128
 5100SOL    HW126928   3.730   4.678  28.194
 5100SOL    HW226929   3.739   4.657  28.045
 5101SOL     OW26930   1.357   0.355   9.497
 5101SOL    HW126931   1.345   0.324   9.587
 5101SOL    HW226932   1.340   0.278   9.443
 5102SOL     OW26933   2.653   2.062   5.017
 5102SOL    HW126934   2.669   2.046   4.924
 5102SOL    HW226935   2.560   2.047   5.028
 5103SOL     OW26936   1.799   0.722  26.968
 5103SOL    HW126937   1.784   0.629  26.952
 5103SOL    HW226938   1.892   0.728  26.991
 5104SOL     OW26939   0.869   3.833   5.097
 5104SOL    HW126940   0.950   3.783   5.101
 5104SOL    HW226941   0.802   3.768   5.076
 5105SOL     OW26942   4.263   1.983  19.261
 5105SOL    HW126943   4.219   1.976  19.177
 5105SOL    HW226944   4.225   1.914  19.315
 5106SOL     OW26945   3.378   4.301  23.326
 5106SOL    HW126946   3.355   4.382  23.371
 5106SOL    HW226947   3.392   4.238  23.396
 5107SOL     OW26948   1.216   0.155   7.620
 5107SOL    HW126949   1.254   0.219   7.680
 5107SOL    HW226950   1.149   0.110   7.672
 5108SOL     OW26951   0.436   1.007   9.357
 5108SOL    HW126952   0.349   0.966   9.359
 5108SOL    HW226953   0.441   1.046   9.270
 5109SOL     OW26954   3.498   3.187   1.595
 5109SOL    HW126955   3.534   3.254   1.536
 5109SOL    HW226956   3.404   3.187   1.575
 5110SOL     OW26957   4.196   2.106   0.276
 5110SOL    HW126958   4.188   2.123   0.370
 5110SOL    HW226959   4.126   2.158   0.236
 5111SOL     OW26960   3.464   2.674   6.485
 5111SOL    HW126961   3.486   2.661   6.577
 5111SOL    HW226962   3.382   2.625   6.473
 5112SOL     OW26963   3.038   1.553  27.284
 5112SOL    HW126964   3.027   1.610  27.360
 5112SOL    HW226965   3.123   1.578  27.248
 5113SOL     OW26966   1.965   3.730   8.311
 5113SOL    HW126967   1.992   3.673   8.382
 5113SOL    HW226968   1.871   3.711   8.300
 5114SOL     OW26969   2.113   1.621   3.132
 5114SOL    HW126970   2.205   1.601   3.146
 5114SOL    HW226971   2.114   1.701   3.079
 5115SOL     OW26972   4.658   0.524   4.913
 5115SOL    HW126973   4.664   0.493   5.004
 5115SOL    HW226974   4.741   0.569   4.897
 5116SOL     OW26975   3.058   3.833   7.602
 5116SOL    HW126976   3.143   3.875   7.589
 5116SOL    HW226977   3.002   3.902   7.638
 5117SOL     OW26978   3.450   1.233   0.715
 5117SOL    HW126979   3.545   1.227   0.710
 5117SOL    HW226980   3.427   1.186   0.796
 5118SOL     OW26981   2.558   0.866   8.228
 5118SOL    HW126982   2.518   0.948   8.257
 5118SOL    HW226983   2.537   0.803   8.297
 5119SOL     OW26984   4.782   2.128   6.960
 5119SOL    HW126985   4.723   2.054   6.949
 5119SOL    HW226986   0.009   2.165   6.872
 5120SOL     OW26987   3.022   3.119   5.085
 5120SOL    HW126988   2.958   3.096   5.153
 5120SOL    HW226989   3.093   3.162   5.133
 5121SOL     OW26990   2.298   0.185   0.725
 5121SOL    HW126991   2.300   0.091   0.744
 5121SOL    HW226992   2.292   0.189   0.630
 5122SOL     OW26993   2.696   3.769   3.209
 5122SOL    HW126994   2.662   3.730   3.129
 5122SOL    HW226995   2.650   3.853   3.216
 5123SOL     OW26996   0.592   0.513   6.242
 5123SOL    HW126997   0.593   0.500   6.337
 5123SOL    HW226998   0.665   0.459   6.210
 5124SOL     OW26999   3.497   3.123  23.040
 5124SOL    HW127000   3.412   3.161  23.064
 5124SOL    HW227001   3.545   3.117  23.122
 5125SOL     OW27002   2.654   0.621  27.352
 5125SOL    HW127003   2.714   0.616  27.277
 5125SOL    HW227004   2.694   0.685  27.410
 5126SOL     OW27005   2.619   4.451  25.824
 5126SOL    HW127006   2.635   4.531  25.874
 5126SOL    HW227007   2.530   4.460  25.792
 5127SOL     OW27008   2.741   2.514  21.976
 5127SOL    HW127009   2.701   2.518  21.889
 5127SOL    HW227010   2.829   2.479  21.961
 5128SOL     OW27011   4.208   0.633  24.290
 5128SOL    HW127012   4.127   0.585  24.274
 5128SOL    HW227013   4.262   0.574  24.342
 5129SOL     OW27014   0.271   1.927  26.311
 5129SOL    HW127015   0.232   1.840  26.300
 5129SOL    HW227016   0.268   1.943  26.405
 5130SOL     OW27017   2.432   0.404   0.858
 5130SOL    HW127018   2.426   0.470   0.789
 5130SOL    HW227019   2.361   0.342   0.838
 5131SOL     OW27020   1.665   2.931  20.066
 5131SOL    HW127021   1.652   2.924  20.161
 5131SOL    HW227022   1.719   3.009  20.055
 5132SOL     OW27023   2.040   0.353   0.765
 5132SOL    HW127024   2.071   0.396   0.844
 5132SOL    HW227025   2.096   0.275   0.756
 5133SOL     OW27026   0.852   3.667   4.729
 5133SOL    HW127027   0.922   3.724   4.760
 5133SOL    HW227028   0.772   3.714   4.752
 5134SOL     OW27029   2.799   2.791   5.035
 5134SOL    HW127030   2.893   2.791   5.051
 5134SOL    HW227031   2.779   2.702   5.007
 5135SOL     OW27032   3.278   2.737  27.156
 5135SOL    HW127033   3.351   2.780  27.111
 5135SOL    HW227034   3.261   2.658  27.105
 5136SOL     OW27035   1.941   3.717   9.576
 5136SOL    HW127036   1.895   3.800   9.582
 5136SOL    HW227037   1.876   3.656   9.542
 5137SOL     OW27038   3.010   4.546  19.258
 5137SOL    HW127039   3.101   4.543  19.230
 5137SOL    HW227040   3.005   4.621  19.316
 5138SOL     OW27041   1.793   4.609   1.804
 5138SOL    HW127042   1.787   4.658   1.886
 5138SOL    HW227043   1.710   4.627   1.760
 5139SOL     OW27044   0.685   2.581   4.384
 5139SOL    HW127045   0.741   2.641   4.335
 5139SOL    HW227046   0.740   2.504   4.400
 5140SOL     OW27047   2.384   4.346   4.883
 5140SOL    HW127048   2.288   4.339   4.887
 5140SOL    HW227049   2.415   4.255   4.886
 5141SOL     OW27050   1.001   2.659  18.429
 5141SOL    HW127051   0.996   2.684  18.521
 5141SOL    HW227052   1.095   2.644  18.413
 5142SOL     OW27053   1.328   2.454  10.576
 5142SOL    HW127054   1.401   2.463  10.515
 5142SOL    HW227055   1.328   2.536  10.626
 5143SOL     OW27056   2.150   4.181   2.713
 5143SOL    HW127057   2.204   4.251   2.677
 5143SOL    HW227058   2.208   4.134   2.773
 5144SOL     OW27059   0.039   4.043  25.848
 5144SOL    HW127060   0.088   4.124  25.858
 5144SOL    HW227061   0.102   3.974  25.867
 5145SOL     OW27062   3.323   2.153  27.737
 5145SOL    HW127063   3.310   2.238  27.779
 5145SOL    HW227064   3.406   2.121  27.772
 5146SOL     OW27065   4.044   3.238  25.323
 5146SOL    HW127066   3.954   3.207  25.328
 5146SOL    HW227067   4.095   3.176  25.375
 5147SOL     OW27068   2.639   4.721  25.633
 5147SOL    HW127069   2.686   4.657  25.579
 5147SOL    HW227070   2.704   0.005  25.654
 5148SOL     OW27071   1.187   1.086  24.353
 5148SOL    HW127072   1.219   1.104  24.265
 5148SOL    HW227073   1.223   1.000  24.375
 5149SOL     OW27074   2.898   4.387  28.314
 5149SOL    HW127075   2.960   4.432  28.256
 5149SOL    HW227076   2.849   4.329  28.257
 5150SOL     OW27077   0.224   2.546   5.411
 5150SOL    HW127078   0.196   2.474   5.354
 5150SOL    HW227079   0.319   2.549   5.401
 5151SOL     OW27080   1.033   3.475  17.184
 5151SOL    HW127081   1.111   3.467  17.129
 5151SOL    HW227082   0.971   3.525  17.132
 5152SOL     OW27083   4.461   0.605  22.106
 5152SOL    HW127084   4.399   0.677  22.088
 5152SOL    HW227085   4.475   0.565  22.020
 5153SOL     OW27086   0.927   3.682  28.381
 5153SOL    HW127087   1.006   3.629  28.397
 5153SOL    HW227088   0.912   3.729  28.463
 5154SOL     OW27089   3.871   0.049  20.489
 5154SOL    HW127090   3.879   0.027  20.582
 5154SOL    HW227091   3.942   0.111  20.473
 5155SOL     OW27092   4.781   0.644   2.999
 5155SOL    HW127093   4.772   0.670   2.907
 5155SOL    HW227094   4.723   0.568   3.007
 5156SOL     OW27095   1.775   3.043   0.642
 5156SOL    HW127096   1.700   3.086   0.684
 5156SOL    HW227097   1.737   2.967   0.598
 5157SOL     OW27098   4.326   0.536   8.199
 5157SOL    HW127099   4.289   0.558   8.114
 5157SOL    HW227100   4.388   0.606   8.217
 5158SOL     OW27101   2.203   0.929  18.275
 5158SOL    HW127102   2.122   0.881  18.292
 5158SOL    HW227103   2.231   0.961  18.361
 5159SOL     OW27104   2.838   1.922  22.791
 5159SOL    HW127105   2.861   1.999  22.739
 5159SOL    HW227106   2.771   1.877  22.738
 5160SOL     OW27107   1.337   1.703  28.359
 5160SOL    HW127108   1.375   1.776  28.409
 5160SOL    HW227109   1.250   1.691  28.396
 5161SOL     OW27110   0.450   0.831   7.473
 5161SOL    HW127111   0.369   0.796   7.511
 5161SOL    HW227112   0.433   0.925   7.463
 5162SOL     OW27113   4.270   2.167  24.734
 5162SOL    HW127114   4.240   2.078  24.720
 5162SOL    HW227115   4.287   2.172  24.828
 5163SOL     OW27116   4.147   0.649  19.635
 5163SOL    HW127117   4.105   0.607  19.560
 5163SOL    HW227118   4.078   0.704  19.673
 5164SOL     OW27119   1.340   3.922  28.011
 5164SOL    HW127120   1.287   3.968  27.947
 5164SOL    HW227121   1.426   3.914  27.970
 5165SOL     OW27122   3.568   3.978  20.798
 5165SOL    HW127123   3.654   3.963  20.759
 5165SOL    HW227124   3.506   3.962  20.727
 5166SOL     OW27125   1.723   2.581  21.364
 5166SOL    HW127126   1.679   2.552  21.283
 5166SOL    HW227127   1.656   2.630  21.411
 5167SOL     OW27128   1.500   2.046  20.798
 5167SOL    HW127129   1.562   1.978  20.773
 5167SOL    HW227130   1.514   2.117  20.735
 5168SOL     OW27131   1.482   4.696   2.660
 5168SOL    HW127132   1.419   4.638   2.618
 5168SOL    HW227133   1.537   4.728   2.588
 5169SOL     OW27134   3.387   4.543   3.909
 5169SOL    HW127135   3.451   4.573   3.974
 5169SOL    HW227136   3.438   4.530   3.829
 5170SOL     OW27137   1.732   3.934  22.666
 5170SOL    HW127138   1.740   3.901  22.577
 5170SOL    HW227139   1.719   4.028  22.655
 5171SOL     OW27140   0.402   2.060   0.517
 5171SOL    HW127141   0.457   2.024   0.447
 5171SOL    HW227142   0.373   2.144   0.483
 5172SOL     OW27143   1.613   3.762  10.791
 5172SOL    HW127144   1.649   3.828  10.732
 5172SOL    HW227145   1.564   3.703  10.734
 5173SOL     OW27146   4.049   1.443   9.564
 5173SOL    HW127147   4.004   1.359   9.560
 5173SOL    HW227148   4.025   1.487   9.482
 5174SOL     OW27149   0.410   4.427   7.958
 5174SOL    HW127150   0.493   4.408   8.002
 5174SOL    HW227151   0.359   4.347   7.969
 5175SOL     OW27152   0.928   0.485   1.705
 5175SOL    HW127153   0.910   0.465   1.613
 5175SOL    HW227154   0.860   0.549   1.729
 5176SOL     OW27155   0.201   1.102   3.000
 5176SOL    HW127156   0.181   1.024   3.053
 5176SOL    HW227157   0.180   1.076   2.911
 5177SOL     OW27158   3.462   2.812   0.804
 5177SOL    HW127159   3.516   2.876   0.851
 5177SOL    HW227160   3.525   2.755   0.761
 5178SOL     OW27161   3.533   1.779   8.586
 5178SOL    HW127162   3.525   1.848   8.651
 5178SOL    HW227163   3.623   1.787   8.553
 5179SOL     OW27164   2.471   3.050   3.817
 5179SOL    HW127165   2.423   3.122   3.776
 5179SOL    HW227166   2.514   3.005   3.744
 5180SOL     OW27167   1.814   2.343   4.965
 5180SOL    HW127168   1.896   2.387   4.988
 5180SOL    HW227169   1.806   2.273   5.029
 5181SOL     OW27170   2.369   4.351  24.571
 5181SOL    HW127171   2.315   4.419  24.532
 5181SOL    HW227172   2.451   4.354  24.521
 5182SOL     OW27173   2.139   0.681  28.259
 5182SOL    HW127174   2.190   0.762  28.265
 5182SOL    HW227175   2.083   0.682  28.336
 5183SOL     OW27176   3.770   3.439   7.168
 5183SOL    HW127177   3.774   3.517   7.112
 5183SOL    HW227178   3.693   3.392   7.138
 5184SOL     OW27179   1.843   2.247  25.735
 5184SOL    HW127180   1.932   2.235  25.768
 5184SOL    HW227181   1.794   2.173  25.771
 5185SOL     OW27182   1.081   0.175   5.235
 5185SOL    HW127183   1.005   0.227   5.261
 5185SOL    HW227184   1.156   0.220   5.274
 5186SOL     OW27185   1.943   3.435   8.718
 5186SOL    HW127186   1.988   3.494   8.780
 5186SOL    HW227187   1.850   3.445   8.739
 5187SOL     OW27188   3.919   3.228   4.732
 5187SOL    HW127189   3.833   3.260   4.759
 5187SOL    HW227190   3.923   3.249   4.638
 5188SOL     OW27191   0.429   0.242  20.156
 5188SOL    HW127192   0.381   0.263  20.236
 5188SOL    HW227193   0.365   0.200  20.100
 5189SOL     OW27194   1.411   1.087   0.677
 5189SOL    HW127195   1.355   1.101   0.600
 5189SOL    HW227196   1.493   1.132   0.656
 5190SOL     OW27197   4.290   1.788   7.848
 5190SOL    HW127198   4.352   1.734   7.898
 5190SOL    HW227199   4.208   1.779   7.896
 5191SOL     OW27200   0.588   1.609   3.246
 5191SOL    HW127201   0.544   1.580   3.166
 5191SOL    HW227202   0.679   1.582   3.235
 5192SOL     OW27203   0.746   0.817   0.687
 5192SOL    HW127204   0.830   0.829   0.732
 5192SOL    HW227205   0.733   0.899   0.638
 5193SOL     OW27206   1.706   0.270   7.426
 5193SOL    HW127207   1.647   0.212   7.473
 5193SOL    HW227208   1.769   0.211   7.383
 5194SOL     OW27209   1.855   2.100   1.949
 5194SOL    HW127210   1.896   2.139   1.871
 5194SOL    HW227211   1.885   2.009   1.948
 5195SOL     OW27212   1.526   0.222  24.897
 5195SOL    HW127213   1.579   0.142  24.905
 5195SOL    HW227214   1.529   0.261  24.985
 5196SOL     OW27215   0.637   3.582  26.741
 5196SOL    HW127216   0.583   3.645  26.694
 5196SOL    HW227217   0.581   3.552  26.812
 5197SOL     OW27218   1.829   1.009  23.454
 5197SOL    HW127219   1.751   0.991  23.506
 5197SOL    HW227220   1.897   0.956  23.495
 5198SOL     OW27221   2.950   0.095  22.617
 5198SOL    HW127222   2.986   0.182  22.605
 5198SOL    HW227223   2.954   0.080  22.712
 5199SOL     OW27224   3.267   3.568  21.592
 5199SOL    HW127225   3.357   3.538  21.574
 5199SOL    HW227226   3.234   3.507  21.658
 5200SOL     OW27227   1.266   4.014  21.632
 5200SOL    HW127228   1.332   4.078  21.606
 5200SOL    HW227229   1.301   3.930  21.603
 5201SOL     OW27230   1.996   4.329   2.490
 5201SOL    HW127231   1.991   4.399   2.556
 5201SOL    HW227232   1.977   4.249   2.539
 5202SOL     OW27233   4.043   0.247   3.192
 5202SOL    HW127234   3.987   0.254   3.114
 5202SOL    HW227235   4.028   0.330   3.239
 5203SOL     OW27236   1.436   0.903   6.584
 5203SOL    HW127237   1.389   0.984   6.565
 5203SOL    HW227238   1.433   0.895   6.679
 5204SOL     OW27239   2.742   4.651   6.118
 5204SOL    HW127240   2.692   4.601   6.183
 5204SOL    HW227241   2.792   4.714   6.171
 5205SOL     OW27242   2.702   0.687  26.435
 5205SOL    HW127243   2.628   0.723  26.386
 5205SOL    HW227244   2.713   0.747  26.509
 5206SOL     OW27245   1.604   2.694   4.940
 5206SOL    HW127246   1.546   2.621   4.964
 5206SOL    HW227247   1.545   2.767   4.921
 5207SOL     OW27248   0.953   2.631   0.958
 5207SOL    HW127249   0.967   2.697   1.026
 5207SOL    HW227250   1.004   2.556   0.988
 5208SOL     OW27251   4.031   4.535   6.343
 5208SOL    HW127252   4.049   4.479   6.418
 5208SOL    HW227253   3.936   4.529   6.332
 5209SOL     OW27254   3.418   1.885  19.843
 5209SOL    HW127255   3.326   1.893  19.821
 5209SOL    HW227256   3.420   1.826  19.918
 5210SOL     OW27257   4.413   1.292  27.946
 5210SOL    HW127258   4.503   1.322  27.932
 5210SOL    HW227259   4.361   1.343  27.883
 5211SOL     OW27260   0.071   0.673  27.001
 5211SOL    HW127261   0.026   0.736  27.058
 5211SOL    HW227262   0.163   0.679  27.027
 5212SOL     OW27263   3.550   0.666   3.612
 5212SOL    HW127264   3.621   0.643   3.671
 5212SOL    HW227265   3.473   0.622   3.648
 5213SOL     OW27266   2.139   3.651  27.662
 5213SOL    HW127267   2.066   3.622  27.607
 5213SOL    HW227268   2.139   3.589  27.735
 5214SOL     OW27269   0.283   0.910  22.722
 5214SOL    HW127270   0.356   0.873  22.674
 5214SOL    HW227271   0.211   0.848  22.709
 5215SOL     OW27272   4.068   1.144  20.756
 5215SOL    HW127273   4.159   1.119  20.739
 5215SOL    HW227274   4.024   1.135  20.671
 5216SOL     OW27275   0.891   1.132  22.395
 5216SOL    HW127276   0.932   1.119  22.481
 5216SOL    HW227277   0.927   1.062  22.340
 5217SOL     OW27278   2.094   2.517  20.710
 5217SOL    HW127279   2.005   2.552  20.710
 5217SOL    HW227280   2.109   2.489  20.620
 5218SOL     OW27281   4.402   0.189   9.042
 5218SOL    HW127282   4.393   0.166   8.950
 5218SOL    HW227283   4.470   0.131   9.075
 5219SOL     OW27284   3.726   0.103  10.337
 5219SOL    HW127285   3.709   0.165  10.266
 5219SOL    HW227286   3.737   0.158  10.415
 5220SOL     OW27287   0.167   0.477   1.979
 5220SOL    HW127288   0.200   0.564   1.958
 5220SOL    HW227289   0.172   0.471   2.074
 5221SOL     OW27290   2.072   3.059   5.844
 5221SOL    HW127291   2.050   3.142   5.886
 5221SOL    HW227292   2.074   2.996   5.915
 5222SOL     OW27293   0.851   1.677  24.428
 5222SOL    HW127294   0.815   1.693  24.341
 5222SOL    HW227295   0.941   1.647  24.411
 5223SOL     OW27296   1.607   3.209   7.407
 5223SOL    HW127297   1.630   3.125   7.448
 5223SOL    HW227298   1.682   3.265   7.427
 5224SOL     OW27299   2.444   2.039  20.458
 5224SOL    HW127300   2.355   2.006  20.468
 5224SOL    HW227301   2.498   1.977  20.507
 5225SOL     OW27302   3.842   3.803  20.340
 5225SOL    HW127303   3.776   3.840  20.281
 5225SOL    HW227304   3.914   3.866  20.338
 5226SOL     OW27305   0.836   0.223   1.781
 5226SOL    HW127306   0.760   0.197   1.833
 5226SOL    HW227307   0.863   0.306   1.818
 5227SOL     OW27308   1.705   4.325  23.386
 5227SOL    HW127309   1.694   4.315  23.481
 5227SOL    HW227310   1.706   4.235  23.353
 5228SOL     OW27311   3.144   2.160   6.898
 5228SOL    HW127312   3.084   2.227   6.933
 5228SOL    HW227313   3.216   2.210   6.860
 5229SOL     OW27314   0.247   1.370  23.489
 5229SOL    HW127315   0.256   1.423  23.410
 5229SOL    HW227316   0.168   1.403  23.531
 5230SOL     OW27317   2.854   0.009  10.228
 5230SOL    HW127318   2.913   4.751  10.291
 5230SOL    HW227319   2.854   0.102  10.251
 5231SOL     OW27320   0.508   1.312   4.875
 5231SOL    HW127321   0.478   1.360   4.797
 5231SOL    HW227322   0.429   1.300   4.927
 5232SOL     OW27323   0.862   4.648  25.345
 5232SOL    HW127324   0.803   4.668  25.417
 5232SOL    HW227325   0.949   4.671  25.378
 5233SOL     OW27326   1.938   1.140   3.070
 5233SOL    HW127327   1.902   1.221   3.034
 5233SOL    HW227328   1.862   1.097   3.111
 5234SOL     OW27329   0.950   2.398  27.545
 5234SOL    HW127330   0.968   2.440  27.629
 5234SOL    HW227331   1.023   2.426  27.489
 5235SOL     OW27332   3.437   1.733  20.882
 5235SOL    HW127333   3.493   1.655  20.876
 5235SOL    HW227334   3.494   1.805  20.855
 5236SOL     OW27335   2.619   0.671  21.637
 5236SOL    HW127336   2.582   0.585  21.617
 5236SOL    HW227337   2.628   0.713  21.551
 5237SOL     OW27338   0.301   0.963  24.187
 5237SOL    HW127339   0.246   0.991  24.260
 5237SOL    HW227340   0.239   0.936  24.119
 5238SOL     OW27341   2.300   3.042   8.427
 5238SOL    HW127342   2.360   3.048   8.502
 5238SOL    HW227343   2.357   3.036   8.351
 5239SOL     OW27344   4.437   3.491   5.687
 5239SOL    HW127345   4.364   3.479   5.747
 5239SOL    HW227346   4.503   3.538   5.739
 5240SOL     OW27347   4.260   4.594   0.600
 5240SOL    HW127348   4.290   4.676   0.639
 5240SOL    HW227349   4.340   4.550   0.570
 5241SOL     OW27350   2.027   0.839   0.586
 5241SOL    HW127351   2.076   0.902   0.640
 5241SOL    HW227352   1.994   0.775   0.648
 5242SOL     OW27353   3.972   2.102  26.819
 5242SOL    HW127354   3.903   2.159  26.785
 5242SOL    HW227355   4.050   2.157  26.819
 5243SOL     OW27356   3.851   0.078  21.425
 5243SOL    HW127357   3.931   0.028  21.406
 5243SOL    HW227358   3.865   0.111  21.514
 5244SOL     OW27359   3.344   2.449  25.826
 5244SOL    HW127360   3.411   2.421  25.764
 5244SOL    HW227361   3.358   2.543  25.837
 5245SOL     OW27362   4.208   0.956  17.481
 5245SOL    HW127363   4.266   0.942  17.407
 5245SOL    HW227364   4.126   0.985  17.441
 5246SOL     OW27365   2.963   0.858   3.092
 5246SOL    HW127366   2.938   0.789   3.153
 5246SOL    HW227367   3.057   0.870   3.105
 5247SOL     OW27368   3.424   3.114  26.989
 5247SOL    HW127369   3.363   3.172  27.036
 5247SOL    HW227370   3.370   3.040  26.961
 5248SOL     OW27371   0.357   2.652  20.295
 5248SOL    HW127372   0.263   2.665  20.308
 5248SOL    HW227373   0.363   2.597  20.217
 5249SOL     OW27374   1.388   0.318  19.246
 5249SOL    HW127375   1.368   0.318  19.152
 5249SOL    HW227376   1.302   0.330  19.288
 5250SOL     OW27377   1.844   3.192   8.615
 5250SOL    HW127378   1.914   3.126   8.614
 5250SOL    HW227379   1.887   3.272   8.648
 5251SOL     OW27380   1.093   0.176  22.904
 5251SOL    HW127381   1.042   0.137  22.832
 5251SOL    HW227382   1.160   0.228  22.860
 5252SOL     OW27383   4.714   1.512   1.888
 5252SOL    HW127384   4.703   1.419   1.903
 5252SOL    HW227385   0.002   1.539   1.948
 5253SOL     OW27386   1.991   3.172   9.969
 5253SOL    HW127387   2.058   3.164   9.901
 5253SOL    HW227388   2.007   3.096  10.026
 5254SOL     OW27389   4.408   4.182   2.970
 5254SOL    HW127390   4.381   4.149   3.056
 5254SOL    HW227391   4.344   4.250   2.949
 5255SOL     OW27392   1.311   2.119  19.151
 5255SOL    HW127393   1.329   2.132  19.058
 5255SOL    HW227394   1.220   2.091  19.154
 5256SOL     OW27395   1.293   4.567   2.505
 5256SOL    HW127396   1.349   4.554   2.429
 5256SOL    HW227397   1.210   4.526   2.481
 5257SOL     OW27398   0.867   0.225  10.357
 5257SOL    HW127399   0.954   0.210  10.395
 5257SOL    HW227400   0.807   0.223  10.431
 5258SOL     OW27401   1.905   0.005  27.290
 5258SOL    HW127402   1.809   0.011  27.285
 5258SOL    HW227403   1.930   4.737  27.213
 5259SOL     OW27404   2.383   2.260   0.299
 5259SOL    HW127405   2.418   2.217   0.221
 5259SOL    HW227406   2.461   2.287   0.348
 5260SOL     OW27407   2.812   3.458   6.423
 5260SOL    HW127408   2.884   3.465   6.486
 5260SOL    HW227409   2.762   3.538   6.434
 5261SOL     OW27410   2.615   1.264  26.037
 5261SOL    HW127411   2.698   1.309  26.053
 5261SOL    HW227412   2.640   1.185  25.990
 5262SOL     OW27413   0.645   3.359  23.046
 5262SOL    HW127414   0.592   3.280  23.042
 5262SOL    HW227415   0.656   3.377  23.139
 5263SOL     OW27416   4.661   1.861   2.341
 5263SOL    HW127417   4.733   1.899   2.292
 5263SOL    HW227418   4.622   1.936   2.387
 5264SOL     OW27419   1.383   0.324  23.691
 5264SOL    HW127420   1.336   0.408  23.696
 5264SOL    HW227421   1.447   0.328  23.763
 5265SOL     OW27422   1.177   3.726   1.919
 5265SOL    HW127423   1.130   3.771   1.989
 5265SOL    HW227424   1.128   3.644   1.906
 5266SOL     OW27425   2.851   3.700  22.977
 5266SOL    HW127426   2.767   3.745  22.966
 5266SOL    HW227427   2.865   3.655  22.893
 5267SOL     OW27428   0.340   2.304   0.419
 5267SOL    HW127429   0.258   2.268   0.383
 5267SOL    HW227430   0.312   2.361   0.490
 5268SOL     OW27431   0.036   0.969  22.555
 5268SOL    HW127432   0.037   1.060  22.586
 5268SOL    HW227433   0.111   0.964  22.495
 5269SOL     OW27434   4.512   3.645   2.626
 5269SOL    HW127435   4.470   3.721   2.667
 5269SOL    HW227436   4.577   3.617   2.689
 5270SOL     OW27437   2.600   3.882  26.484
 5270SOL    HW127438   2.516   3.868  26.528
 5270SOL    HW227439   2.596   3.972  26.453
 5271SOL     OW27440   4.704   2.369   1.952
 5271SOL    HW127441   4.623   2.413   1.928
 5271SOL    HW227442   4.716   2.302   1.886
 5272SOL     OW27443   0.619   0.108  18.600
 5272SOL    HW127444   0.609   0.042  18.531
 5272SOL    HW227445   0.704   0.088  18.640
 5273SOL     OW27446   3.051   4.686  23.259
 5273SOL    HW127447   3.129   4.676  23.205
 5273SOL    HW227448   2.978   4.682  23.198
 5274SOL     OW27449   4.542   1.258  10.250
 5274SOL    HW127450   4.514   1.346  10.225
 5274SOL    HW227451   4.461   1.206  10.249
 5275SOL     OW27452   0.123   3.745   9.806
 5275SOL    HW127453   0.057   3.678   9.788
 5275SOL    HW227454   0.206   3.705   9.780
 5276SOL     OW27455   2.396   1.769   1.868
 5276SOL    HW127456   2.391   1.864   1.877
 5276SOL    HW227457   2.425   1.755   1.778
 5277SOL     OW27458   2.861   0.778  22.677
 5277SOL    HW127459   2.844   0.713  22.744
 5277SOL    HW227460   2.859   0.729  22.594
 5278SOL     OW27461   0.146   3.133  18.150
 5278SOL    HW127462   0.186   3.052  18.183
 5278SOL    HW227463   0.202   3.202  18.186
 5279SOL     OW27464   3.524   4.338  23.950
 5279SOL    HW127465   3.608   4.295  23.965
 5279SOL    HW227466   3.520   4.350  23.855
 5280SOL     OW27467   2.391   1.545   2.461
 5280SOL    HW127468   2.425   1.553   2.550
 5280SOL    HW227469   2.433   1.466   2.426
 5281SOL     OW27470   2.837   0.269   5.138
 5281SOL    HW127471   2.888   0.347   5.115
 5281SOL    HW227472   2.872   0.242   5.223
 5282SOL     OW27473   2.644   0.330  22.176
 5282SOL    HW127474   2.557   0.305  22.147
 5282SOL    HW227475   2.702   0.265  22.135
 5283SOL     OW27476   3.909   0.256  10.080
 5283SOL    HW127477   3.867   0.170  10.078
 5283SOL    HW227478   3.839   0.315  10.110
 5284SOL     OW27479   1.511   1.143  23.292
 5284SOL    HW127480   1.469   1.228  23.307
 5284SOL    HW227481   1.603   1.158  23.315
 5285SOL     OW27482   3.981   4.265  27.697
 5285SOL    HW127483   3.912   4.296  27.755
 5285SOL    HW227484   3.995   4.336  27.635
 5286SOL     OW27485   4.498   1.096   9.600
 5286SOL    HW127486   4.576   1.058   9.642
 5286SOL    HW227487   4.428   1.035   9.621
 5287SOL     OW27488   2.407   4.248   0.507
 5287SOL    HW127489   2.423   4.217   0.596
 5287SOL    HW227490   2.322   4.293   0.512
 5288SOL     OW27491   1.331   1.037  18.174
 5288SOL    HW127492   1.392   1.024  18.246
 5288SOL    HW227493   1.244   1.036  18.215
 5289SOL     OW27494   0.694   3.619  19.694
 5289SOL    HW127495   0.604   3.631  19.725
 5289SOL    HW227496   0.688   3.627  19.599
 5290SOL     OW27497   2.158   4.082   1.695
 5290SOL    HW127498   2.102   4.079   1.773
 5290SOL    HW227499   2.113   4.025   1.632
 5291SOL     OW27500   3.659   0.198   7.937
 5291SOL    HW127501   3.646   0.221   8.029
 5291SOL    HW227502   3.591   0.133   7.919
 5292SOL     OW27503   4.358   3.696  17.473
 5292SOL    HW127504   4.435   3.641  17.463
 5292SOL    HW227505   4.347   3.738  17.388
 5293SOL     OW27506   2.103   1.044  20.546
 5293SOL    HW127507   2.154   1.125  20.556
 5293SOL    HW227508   2.053   1.058  20.466
 5294SOL     OW27509   1.395   4.758  22.656
 5294SOL    HW127510   1.329   4.695  22.685
 5294SOL    HW227511   1.381   4.765  22.562
 5295SOL     OW27512   1.320   3.667   9.571
 5295SOL    HW127513   1.387   3.664   9.640
 5295SOL    HW227514   1.333   3.586   9.522
 5296SOL     OW27515   1.497   2.960   5.738
 5296SOL    HW127516   1.521   2.874   5.772
 5296SOL    HW227517   1.433   2.994   5.800
 5297SOL     OW27518   1.129   1.163  28.188
 5297SOL    HW127519   1.189   1.232  28.218
 5297SOL    HW227520   1.080   1.139  28.267
 5298SOL     OW27521   2.962   3.908   1.984
 5298SOL    HW127522   2.964   3.923   2.078
 5298SOL    HW227523   2.874   3.875   1.967
 5299SOL     OW27524   2.631   4.589  10.258
 5299SOL    HW127525   2.639   4.618  10.349
 5299SOL    HW227526   2.703   4.631  10.212
 5300SOL     OW27527   3.369   2.931  25.840
 5300SOL    HW127528   3.286   2.924  25.887
 5300SOL    HW227529   3.434   2.952  25.907
 5301SOL     OW27530   0.223   2.282  20.466
 5301SOL    HW127531   0.238   2.218  20.396
 5301SOL    HW227532   0.192   2.360  20.420
 5302SOL     OW27533   0.774   3.941   9.087
 5302SOL    HW127534   0.728   3.981   9.013
 5302SOL    HW227535   0.708   3.934   9.156
 5303SOL     OW27536   1.077   4.216   4.524
 5303SOL    HW127537   1.146   4.175   4.576
 5303SOL    HW227538   1.030   4.143   4.484
 5304SOL     OW27539   3.913   2.750  22.507
 5304SOL    HW127540   3.929   2.805  22.431
 5304SOL    HW227541   3.904   2.812  22.580
 5305SOL     OW27542   4.047   3.294  23.583
 5305SOL    HW127543   4.085   3.271  23.668
 5305SOL    HW227544   3.975   3.232  23.572
 5306SOL     OW27545   2.320   0.345  11.513
 5306SOL    HW127546   2.246   0.313  11.566
 5306SOL    HW227547   2.340   0.431  11.550
 5307SOL     OW27548   0.180   4.045   4.299
 5307SOL    HW127549   0.110   4.072   4.357
 5307SOL    HW227550   0.180   3.950   4.302
 5308SOL     OW27551   1.026   0.332  19.900
 5308SOL    HW127552   1.066   0.255  19.860
 5308SOL    HW227553   1.098   0.375  19.946
 5309SOL     OW27554   4.011   0.166   1.478
 5309SOL    HW127555   4.047   0.175   1.566
 5309SOL    HW227556   4.028   0.250   1.436
 5310SOL     OW27557   1.924   0.976   5.569
 5310SOL    HW127558   1.853   1.020   5.524
 5310SOL    HW227559   1.956   0.911   5.506
 5311SOL     OW27560   4.611   2.699   2.085
 5311SOL    HW127561   4.577   2.680   1.998
 5311SOL    HW227562   4.624   2.794   2.085
 5312SOL     OW27563   2.049   3.385  17.711
 5312SOL    HW127564   2.083   3.382  17.622
 5312SOL    HW227565   2.085   3.308  17.754
 5313SOL     OW27566   0.814   2.629   2.085
 5313SOL    HW127567   0.800   2.548   2.133
 5313SOL    HW227568   0.896   2.616   2.038
 5314SOL     OW27569   0.696   3.858  27.064
 5314SOL    HW127570   0.774   3.818  27.025
 5314SOL    HW227571   0.637   3.872  26.991
 5315SOL     OW27572   1.513   0.439  26.321
 5315SOL    HW127573   1.480   0.500  26.387
 5315SOL    HW227574   1.468   0.356  26.340
 5316SOL     OW27575   4.265   2.303  24.981
 5316SOL    HW127576   4.234   2.222  25.021
 5316SOL    HW227577   4.199   2.368  25.004
 5317SOL     OW27578   3.716   0.368  21.763
 5317SOL    HW127579   3.731   0.460  21.741
 5317SOL    HW227580   3.668   0.332  21.689
 5318SOL     OW27581   1.317   1.615   4.159
 5318SOL    HW127582   1.360   1.627   4.244
 5318SOL    HW227583   1.389   1.598   4.098
 5319SOL     OW27584   0.470   4.590   6.854
 5319SOL    HW127585   0.530   4.517   6.846
 5319SOL    HW227586   0.508   4.659   6.799
 5320SOL     OW27587   3.567   2.379   9.871
 5320SOL    HW127588   3.488   2.338   9.837
 5320SOL    HW227589   3.539   2.468   9.894
 5321SOL     OW27590   1.659   0.171  27.434
 5321SOL    HW127591   1.590   0.120  27.476
 5321SOL    HW227592   1.639   0.166  27.341
 5322SOL     OW27593   3.453   2.919  24.429
 5322SOL    HW127594   3.358   2.926  24.422
 5322SOL    HW227595   3.468   2.841  24.482
 5323SOL     OW27596   4.292   1.321   8.109
 5323SOL    HW127597   4.276   1.340   8.017
 5323SOL    HW227598   4.213   1.276   8.139
 5324SOL     OW27599   4.778   3.918   2.890
 5324SOL    HW127600   0.035   4.003   2.870
 5324SOL    HW227601   4.683   3.935   2.886
 5325SOL     OW27602   4.485   4.374   7.802
 5325SOL    HW127603   4.469   4.293   7.754
 5325SOL    HW227604   4.401   4.395   7.843
 5326SOL     OW27605   3.828   4.269   0.044
 5326SOL    HW127606   3.877   4.315  28.507
 5326SOL    HW227607   3.862   4.179   0.040
 5327SOL     OW27608   2.094   1.680  21.347
 5327SOL    HW127609   2.128   1.631  21.423
 5327SOL    HW227610   2.113   1.772  21.368
 5328SOL     OW27611   1.237   3.403  27.353
 5328SOL    HW127612   1.184   3.349  27.293
 5328SOL    HW227613   1.174   3.440  27.414
 5329SOL     OW27614   4.176   0.576   3.736
 5329SOL    HW127615   4.210   0.665   3.725
 5329SOL    HW227616   4.195   0.554   3.827
 5330SOL     OW27617   2.328   2.148  28.263
 5330SOL    HW127618   2.321   2.228  28.313
 5330SOL    HW227619   2.257   2.153  28.199
 5331SOL     OW27620   0.468   2.140  25.882
 5331SOL    HW127621   0.479   2.228  25.917
 5331SOL    HW227622   0.556   2.102  25.884
 5332SOL     OW27623   4.774   3.301  23.987
 5332SOL    HW127624   4.760   3.345  23.903
 5332SOL    HW227625   4.719   3.349  24.049
 5333SOL     OW27626   3.301   0.931  17.905
 5333SOL    HW127627   3.236   0.872  17.943
 5333SOL    HW227628   3.358   0.955  17.978
 5334SOL     OW27629   2.374   2.872   1.910
 5334SOL    HW127630   2.372   2.814   1.986
 5334SOL    HW227631   2.444   2.838   1.855
 5335SOL     OW27632   2.826   3.583  26.551
 5335SOL    HW127633   2.808   3.639  26.476
 5335SOL    HW227634   2.918   3.557  26.541
 5336SOL     OW27635   1.287   3.802  10.779
 5336SOL    HW127636   1.322   3.722  10.818
 5336SOL    HW227637   1.211   3.824  10.833
 5337SOL     OW27638   2.626   1.620   2.669
 5337SOL    HW127639   2.688   1.682   2.631
 5337SOL    HW227640   2.679   1.546   2.697
 5338SOL     OW27641   0.618   0.062  22.100
 5338SOL    HW127642   0.592   0.009  22.176
 5338SOL    HW227643   0.632   4.781  22.030
 5339SOL     OW27644   4.717   2.989   1.009
 5339SOL    HW127645   4.769   3.069   1.003
 5339SOL    HW227646   0.000   2.919   1.014
 5340SOL     OW27647   1.139   1.119  24.869
 5340SOL    HW127648   1.178   1.079  24.791
 5340SOL    HW227649   1.067   1.171  24.835
 5341SOL     OW27650   3.500   4.287   1.696
 5341SOL    HW127651   3.443   4.321   1.765
 5341SOL    HW227652   3.468   4.198   1.680
 5342SOL     OW27653   2.768   2.936  19.615
 5342SOL    HW127654   2.858   2.955  19.639
 5342SOL    HW227655   2.717   3.010  19.649
 5343SOL     OW27656   3.725   1.081   4.296
 5343SOL    HW127657   3.705   1.168   4.332
 5343SOL    HW227658   3.659   1.068   4.228
 5344SOL     OW27659   3.980   4.113  25.872
 5344SOL    HW127660   4.060   4.068  25.902
 5344SOL    HW227661   3.924   4.114  25.950
 5345SOL     OW27662   3.576   2.015   5.793
 5345SOL    HW127663   3.481   2.016   5.804
 5345SOL    HW227664   3.589   2.011   5.698
 5346SOL     OW27665   1.336   2.854  22.154
 5346SOL    HW127666   1.392   2.922  22.191
 5346SOL    HW227667   1.252   2.898  22.141
 5347SOL     OW27668   4.385   2.810  25.625
 5347SOL    HW127669   4.426   2.843  25.545
 5347SOL    HW227670   4.457   2.777  25.677
 5348SOL     OW27671   0.573   3.483   7.026
 5348SOL    HW127672   0.650   3.435   7.057
 5348SOL    HW227673   0.507   3.415   7.009
 5349SOL     OW27674   4.559   2.422  17.403
 5349SOL    HW127675   4.638   2.379  17.436
 5349SOL    HW227676   4.505   2.350  17.370
 5350SOL     OW27677   3.022   2.530  19.112
 5350SOL    HW127678   2.981   2.611  19.081
 5350SOL    HW227679   3.051   2.486  19.032
 5351SOL     OW27680   4.359   3.729   3.748
 5351SOL    HW127681   4.416   3.805   3.741
 5351SOL    HW227682   4.272   3.763   3.726
 5352SOL     OW27683   0.823   4.098   0.967
 5352SOL    HW127684   0.778   4.029   0.918
 5352SOL    HW227685   0.767   4.175   0.958
 5353SOL     OW27686   1.428   3.245   0.440
 5353SOL    HW127687   1.488   3.194   0.496
 5353SOL    HW227688   1.420   3.193   0.361
 5354SOL     OW27689   1.602   1.639  16.772
 5354SOL    HW127690   1.612   1.722  16.726
 5354SOL    HW227691   1.623   1.573  16.706
 5355SOL     OW27692   4.391   0.685   3.390
 5355SOL    HW127693   4.482   0.705   3.409
 5355SOL    HW227694   4.389   0.589   3.383
 5356SOL     OW27695   1.163   4.152  26.455
 5356SOL    HW127696   1.170   4.240  26.417
 5356SOL    HW227697   1.075   4.123  26.432
 5357SOL     OW27698   1.154   4.193  25.259
 5357SOL    HW127699   1.106   4.202  25.176
 5357SOL    HW227700   1.205   4.274  25.265
 5358SOL     OW27701   0.544   3.754  21.958
 5358SOL    HW127702   0.558   3.685  21.894
 5358SOL    HW227703   0.451   3.774  21.952
 5359SOL     OW27704   1.622   2.189   8.788
 5359SOL    HW127705   1.715   2.211   8.790
 5359SOL    HW227706   1.609   2.148   8.702
 5360SOL     OW27707   3.253   1.168  15.990
 5360SOL    HW127708   3.265   1.260  16.014
 5360SOL    HW227709   3.233   1.169  15.897
 5361SOL     OW27710   4.164   4.443  21.152
 5361SOL    HW127711   4.094   4.406  21.098
 5361SOL    HW227712   4.189   4.524  21.108
 5362SOL     OW27713   2.472   2.146   6.353
 5362SOL    HW127714   2.539   2.142   6.422
 5362SOL    HW227715   2.495   2.075   6.293
 5363SOL     OW27716   2.991   3.676   2.282
 5363SOL    HW127717   3.053   3.681   2.209
 5363SOL    HW227718   2.975   3.767   2.306
 5364SOL     OW27719   1.103   4.749   6.922
 5364SOL    HW127720   1.102   0.002   7.010
 5364SOL    HW227721   1.188   4.774   6.887
 5365SOL     OW27722   1.509   2.787  21.942
 5365SOL    HW127723   1.485   2.862  21.888
 5365SOL    HW227724   1.467   2.803  22.027
 5366SOL     OW27725   2.312   2.928  19.562
 5366SOL    HW127726   2.231   2.978  19.564
 5366SOL    HW227727   2.354   2.946  19.646
 5367SOL     OW27728   4.315   4.190  18.368
 5367SOL    HW127729   4.380   4.261  18.373
 5367SOL    HW227730   4.293   4.172  18.460
 5368SOL     OW27731   0.073   4.430   8.123
 5368SOL    HW127732   0.074   4.360   8.188
 5368SOL    HW227733   0.050   4.385   8.041
 5369SOL     OW27734   2.985   0.933   4.605
 5369SOL    HW127735   2.942   0.975   4.531
 5369SOL    HW227736   2.936   0.852   4.620
 5370SOL     OW27737   0.633   4.322  23.952
 5370SOL    HW127738   0.604   4.412  23.933
 5370SOL    HW227739   0.570   4.290  24.016
 5371SOL     OW27740   4.527   1.039   8.904
 5371SOL    HW127741   4.541   1.093   8.982
 5371SOL    HW227742   4.572   1.086   8.834
 5372SOL     OW27743   0.685   2.540   2.758
 5372SOL    HW127744   0.748   2.612   2.764
 5372SOL    HW227745   0.653   2.544   2.667
 5373SOL     OW27746   1.231   4.327  11.859
 5373SOL    HW127747   1.287   4.344  11.935
 5373SOL    HW227748   1.263   4.387  11.792
 5374SOL     OW27749   0.104   4.031  19.160
 5374SOL    HW127750   0.173   4.036  19.226
 5374SOL    HW227751   0.132   4.092  19.092
 5375SOL     OW27752   4.103   3.378  25.737
 5375SOL    HW127753   4.015   3.373  25.700
 5375SOL    HW227754   4.112   3.300  25.791
 5376SOL     OW27755   2.341   4.100   3.957
 5376SOL    HW127756   2.299   4.042   3.894
 5376SOL    HW227757   2.273   4.165   3.978
 5377SOL     OW27758   2.992   3.677   3.006
 5377SOL    HW127759   2.917   3.735   3.018
 5377SOL    HW227760   2.972   3.626   2.928
 5378SOL     OW27761   3.362   4.082   8.976
 5378SOL    HW127762   3.428   4.103   8.910
 5378SOL    HW227763   3.412   4.054   9.053
 5379SOL     OW27764   0.406   1.836  20.422
 5379SOL    HW127765   0.344   1.773  20.459
 5379SOL    HW227766   0.429   1.894  20.495
 5380SOL     OW27767   4.735   3.804  17.541
 5380SOL    HW127768   4.754   3.817  17.448
 5380SOL    HW227769   0.003   3.726  17.566
 5381SOL     OW27770   0.602   3.296  27.245
 5381SOL    HW127771   0.606   3.391  27.250
 5381SOL    HW227772   0.528   3.272  27.300
 5382SOL     OW27773   4.508   2.097   7.410
 5382SOL    HW127774   4.428   2.058   7.376
 5382SOL    HW227775   4.529   2.168   7.350
 5383SOL     OW27776   3.929   3.156   1.150
 5383SOL    HW127777   3.929   3.232   1.208
 5383SOL    HW227778   3.866   3.178   1.081
 5384SOL     OW27779   1.976   3.718   6.291
 5384SOL    HW127780   1.932   3.773   6.356
 5384SOL    HW227781   2.069   3.730   6.310
 5385SOL     OW27782   3.501   3.537  19.981
 5385SOL    HW127783   3.566   3.497  19.923
 5385SOL    HW227784   3.444   3.587  19.923
 5386SOL     OW27785   4.422   1.734  23.339
 5386SOL    HW127786   4.438   1.701  23.427
 5386SOL    HW227787   4.509   1.755  23.304
 5387SOL     OW27788   0.840   1.437   1.817
 5387SOL    HW127789   0.920   1.455   1.867
 5387SOL    HW227790   0.774   1.419   1.884
 5388SOL     OW27791   1.048   1.175   4.615
 5388SOL    HW127792   1.069   1.242   4.550
 5388SOL    HW227793   1.039   1.224   4.697
 5389SOL     OW27794   0.870   0.969  23.638
 5389SOL    HW127795   0.930   0.904  23.603
 5389SOL    HW227796   0.799   0.918  23.676
 5390SOL     OW27797   0.434   0.510   6.013
 5390SOL    HW127798   0.478   0.518   6.098
 5390SOL    HW227799   0.492   0.454   5.962
 5391SOL     OW27800   3.484   1.483   5.214
 5391SOL    HW127801   3.490   1.548   5.284
 5391SOL    HW227802   3.565   1.433   5.220
 5392SOL     OW27803   2.160   3.625   4.928
 5392SOL    HW127804   2.201   3.709   4.948
 5392SOL    HW227805   2.112   3.640   4.847
 5393SOL     OW27806   3.152   3.068   8.148
 5393SOL    HW127807   3.143   3.143   8.207
 5393SOL    HW227808   3.129   2.993   8.202
 5394SOL     OW27809   4.414   2.523   5.888
 5394SOL    HW127810   4.378   2.503   5.975
 5394SOL    HW227811   4.357   2.592   5.854
 5395SOL     OW27812   1.496   3.276  26.525
 5395SOL    HW127813   1.568   3.224  26.561
 5395SOL    HW227814   1.417   3.237  26.564
 5396SOL     OW27815   4.176   1.070   3.205
 5396SOL    HW127816   4.119   0.994   3.216
 5396SOL    HW227817   4.160   1.099   3.114
 5397SOL     OW27818   4.577   4.533   1.430
 5397SOL    HW127819   4.547   4.462   1.487
 5397SOL    HW227820   4.516   4.605   1.446
 5398SOL     OW27821   4.657   3.975  21.464
 5398SOL    HW127822   4.654   3.992  21.370
 5398SOL    HW227823   4.703   4.050  21.501
 5399SOL     OW27824   3.201   1.814  22.235
 5399SOL    HW127825   3.113   1.814  22.272
 5399SOL    HW227826   3.250   1.751  22.288
 5400SOL     OW27827   2.291   0.044  24.132
 5400SOL    HW127828   2.366   0.033  24.073
 5400SOL    HW227829   2.215   0.050  24.074
 5401SOL     OW27830   3.827   2.413  27.078
 5401SOL    HW127831   3.796   2.492  27.122
 5401SOL    HW227832   3.915   2.399  27.111
 5402SOL     OW27833   3.266   3.688  24.810
 5402SOL    HW127834   3.286   3.745  24.884
 5402SOL    HW227835   3.322   3.612  24.821
 5403SOL     OW27836   1.944   0.983   6.288
 5403SOL    HW127837   1.902   1.003   6.371
 5403SOL    HW227838   1.875   0.943   6.235
 5404SOL     OW27839   2.124   1.465   6.868
 5404SOL    HW127840   2.161   1.455   6.781
 5404SOL    HW227841   2.029   1.463   6.855
 5405SOL     OW27842   0.553   3.073   6.444
 5405SOL    HW127843   0.626   3.125   6.410
 5405SOL    HW227844   0.530   3.014   6.373
 5406SOL     OW27845   0.129   2.202  19.596
 5406SOL    HW127846   0.141   2.129  19.536
 5406SOL    HW227847   0.142   2.281  19.543
 5407SOL     OW27848   2.246   4.493  26.262
 5407SOL    HW127849   2.244   4.554  26.336
 5407SOL    HW227850   2.324   4.440  26.276
 5408SOL     OW27851   1.867   4.686  20.678
 5408SOL    HW127852   1.892   4.730  20.759
 5408SOL    HW227853   1.829   4.756  20.624
 5409SOL     OW27854   3.665   1.855   6.876
 5409SOL    HW127855   3.739   1.915   6.869
 5409SOL    HW227856   3.678   1.810   6.959
 5410SOL     OW27857   1.960   1.047  27.614
 5410SOL    HW127858   1.921   0.972  27.660
 5410SOL    HW227859   1.960   1.118  27.677
 5411SOL     OW27860   2.313   1.002  20.723
 5411SOL    HW127861   2.376   0.961  20.665
 5411SOL    HW227862   2.233   0.949  20.714
 5412SOL     OW27863   2.740   3.703  26.777
 5412SOL    HW127864   2.657   3.679  26.819
 5412SOL    HW227865   2.756   3.633  26.713
 5413SOL     OW27866   1.426   1.771   4.591
 5413SOL    HW127867   1.420   1.866   4.596
 5413SOL    HW227868   1.491   1.748   4.657
 5414SOL     OW27869   4.278   2.088   4.738
 5414SOL    HW127870   4.305   2.080   4.830
 5414SOL    HW227871   4.188   2.055   4.737
 5415SOL     OW27872   0.535   0.691  25.842
 5415SOL    HW127873   0.585   0.684  25.924
 5415SOL    HW227874   0.533   0.785  25.825
 5416SOL     OW27875   4.084   3.923  27.078
 5416SOL    HW127876   4.153   3.966  27.027
 5416SOL    HW227877   4.004   3.939  27.028
 5417SOL     OW27878   4.044   2.793   1.129
 5417SOL    HW127879   3.962   2.755   1.100
 5417SOL    HW227880   4.111   2.729   1.102
 5418SOL     OW27881   1.783   0.140  20.567
 5418SOL    HW127882   1.837   0.154  20.489
 5418SOL    HW227883   1.725   0.216  20.570
 5419SOL     OW27884   4.677   3.965   1.270
 5419SOL    HW127885   4.760   3.988   1.229
 5419SOL    HW227886   4.618   4.036   1.246
 5420SOL     OW27887   4.585   4.573  19.297
 5420SOL    HW127888   4.505   4.520  19.288
 5420SOL    HW227889   4.582   4.604  19.388
 5421SOL     OW27890   4.457   1.660  10.976
 5421SOL    HW127891   4.487   1.639  11.064
 5421SOL    HW227892   4.364   1.640  10.977
 5422SOL     OW27893   2.899   2.343  25.658
 5422SOL    HW127894   2.950   2.348  25.739
 5422SOL    HW227895   2.880   2.435  25.637
 5423SOL     OW27896   3.764   0.995  17.771
 5423SOL    HW127897   3.719   0.938  17.710
 5423SOL    HW227898   3.836   1.033  17.721
 5424SOL     OW27899   0.655   3.933  24.318
 5424SOL    HW127900   0.669   4.027  24.311
 5424SOL    HW227901   0.595   3.912  24.246
 5425SOL     OW27902   1.074   2.922  10.357
 5425SOL    HW127903   1.057   2.975  10.279
 5425SOL    HW227904   1.022   2.964  10.426
 5426SOL     OW27905   2.723   4.181  22.680
 5426SOL    HW127906   2.698   4.251  22.620
 5426SOL    HW227907   2.783   4.223  22.742
 5427SOL     OW27908   3.411   1.598   6.400
 5427SOL    HW127909   3.369   1.627   6.481
 5427SOL    HW227910   3.500   1.632   6.405
 5428SOL     OW27911   0.429   1.168  21.551
 5428SOL    HW127912   0.371   1.105  21.508
 5428SOL    HW227913   0.483   1.203  21.480
 5429SOL     OW27914   2.798   4.176  19.003
 5429SOL    HW127915   2.863   4.116  19.040
 5429SOL    HW227916   2.847   4.230  18.942
 5430SOL     OW27917   2.627   3.473  22.466
 5430SOL    HW127918   2.615   3.445  22.375
 5430SOL    HW227919   2.667   3.560  22.459
 5431SOL     OW27920   0.700   2.866  24.616
 5431SOL    HW127921   0.748   2.816  24.550
 5431SOL    HW227922   0.633   2.914  24.566
 5432SOL     OW27923   2.351   1.092  18.459
 5432SOL    HW127924   2.371   1.075  18.551
 5432SOL    HW227925   2.290   1.165  18.461
 5433SOL     OW27926   1.648   2.190   4.029
 5433SOL    HW127927   1.622   2.188   3.937
 5433SOL    HW227928   1.626   2.278   4.059
 5434SOL     OW27929   2.487   2.934  28.326
 5434SOL    HW127930   2.471   2.865  28.263
 5434SOL    HW227931   2.412   2.930  28.386
 5435SOL     OW27932   1.540   4.083   3.857
 5435SOL    HW127933   1.453   4.085   3.818
 5435SOL    HW227934   1.525   4.097   3.951
 5436SOL     OW27935   4.134   0.665   1.246
 5436SOL    HW127936   4.127   0.683   1.152
 5436SOL    HW227937   4.096   0.741   1.288
 5437SOL     OW27938   4.267   1.015   8.974
 5437SOL    HW127939   4.209   0.991   8.901
 5437SOL    HW227940   4.355   1.015   8.936
 5438SOL     OW27941   2.391   2.864  20.729
 5438SOL    HW127942   2.485   2.853  20.739
 5438SOL    HW227943   2.373   2.842  20.638
 5439SOL     OW27944   2.029   2.087   3.288
 5439SOL    HW127945   2.051   2.008   3.337
 5439SOL    HW227946   2.110   2.111   3.243
 5440SOL     OW27947   1.704   0.738   6.719
 5440SOL    HW127948   1.721   0.709   6.630
 5440SOL    HW227949   1.757   0.818   6.729
 5441SOL     OW27950   3.419   4.643   4.874
 5441SOL    HW127951   3.341   4.678   4.915
 5441SOL    HW227952   3.470   4.720   4.848
 5442SOL     OW27953   4.056   2.633  19.083
 5442SOL    HW127954   4.024   2.720  19.060
 5442SOL    HW227955   4.068   2.636  19.178
 5443SOL     OW27956   3.218   1.559  19.796
 5443SOL    HW127957   3.264   1.479  19.822
 5443SOL    HW227958   3.288   1.616  19.762
 5444SOL     OW27959   1.498   4.555  25.519
 5444SOL    HW127960   1.546   4.602  25.452
 5444SOL    HW227961   1.408   4.585  25.511
 5445SOL     OW27962   2.463   3.518  18.022
 5445SOL    HW127963   2.447   3.595  17.967
 5445SOL    HW227964   2.524   3.548  18.089
 5446SOL     OW27965   1.851   3.409   6.600
 5446SOL    HW127966   1.771   3.441   6.559
 5446SOL    HW227967   1.827   3.322   6.634
 5447SOL     OW27968   4.065   3.272  24.389
 5447SOL    HW127969   4.003   3.342  24.405
 5447SOL    HW227970   4.120   3.268  24.467
 5448SOL     OW27971   3.186   1.282  19.951
 5448SOL    HW127972   3.246   1.250  19.884
 5448SOL    HW227973   3.101   1.249  19.925
 5449SOL     OW27974   1.480   0.080   4.144
 5449SOL    HW127975   1.412   0.075   4.212
 5449SOL    HW227976   1.454   0.154   4.090
 5450SOL     OW27977   3.042   1.309  19.606
 5450SOL    HW127978   2.961   1.260  19.623
 5450SOL    HW227979   3.111   1.247  19.630
 5451SOL     OW27980   3.764   3.249  22.529
 5451SOL    HW127981   3.776   3.225  22.621
 5451SOL    HW227982   3.684   3.204  22.503
 5452SOL     OW27983   4.047   2.298  17.432
 5452SOL    HW127984   4.011   2.376  17.390
 5452SOL    HW227985   4.108   2.332  17.496
 5453SOL     OW27986   3.856   3.387  26.191
 5453SOL    HW127987   3.788   3.327  26.221
 5453SOL    HW227988   3.894   3.423  26.272
 5454SOL     OW27989   4.075   1.480  16.610
 5454SOL    HW127990   4.037   1.460  16.525
 5454SOL    HW227991   4.169   1.467  16.598
 5455SOL     OW27992   3.382   1.858  26.621
 5455SOL    HW127993   3.451   1.911  26.581
 5455SOL    HW227994   3.351   1.910  26.695
 5456SOL     OW27995   3.935   0.714  19.417
 5456SOL    HW127996   3.889   0.641  19.457
 5456SOL    HW227997   3.913   0.790  19.472
 5457SOL     OW27998   0.693   2.488   6.668
 5457SOL    HW127999   0.715   2.413   6.613
 5457SOL    HW228000   0.776   2.517   6.704
 5458SOL     OW28001   4.313   0.303   5.924
 5458SOL    HW128002   4.328   0.212   5.897
 5458SOL    HW228003   4.219   0.317   5.912
 5459SOL     OW28004   1.083   0.720  26.493
 5459SOL    HW128005   1.042   0.681  26.415
 5459SOL    HW228006   1.151   0.657  26.518
 5460SOL     OW28007   3.048   2.830   3.053
 5460SOL    HW128008   2.971   2.838   3.109
 5460SOL    HW228009   3.098   2.910   3.070
 5461SOL     OW28010   2.687   4.363   1.317
 5461SOL    HW128011   2.690   4.270   1.296
 5461SOL    HW228012   2.751   4.403   1.259
 5462SOL     OW28013   1.488   0.781   4.507
 5462SOL    HW128014   1.513   0.699   4.549
 5462SOL    HW228015   1.403   0.803   4.545
 5463SOL     OW28016   0.781   3.057  11.049
 5463SOL    HW128017   0.829   3.117  11.105
 5463SOL    HW228018   0.762   3.108  10.970
 5464SOL     OW28019   0.581   2.019  22.131
 5464SOL    HW128020   0.653   1.966  22.165
 5464SOL    HW228021   0.590   2.103  22.174
 5465SOL     OW28022   4.251   3.274  21.078
 5465SOL    HW128023   4.277   3.320  21.157
 5465SOL    HW228024   4.198   3.201  21.109
 5466SOL     OW28025   2.711   1.793   1.129
 5466SOL    HW128026   2.716   1.699   1.146
 5466SOL    HW228027   2.765   1.806   1.051
 5467SOL     OW28028   4.658   0.431   7.092
 5467SOL    HW128029   4.675   0.421   7.186
 5467SOL    HW228030   4.694   0.516   7.069
 5468SOL     OW28031   0.867   1.433  20.117
 5468SOL    HW128032   0.918   1.446  20.037
 5468SOL    HW228033   0.919   1.475  20.186
 5469SOL     OW28034   3.176   1.610   5.245
 5469SOL    HW128035   3.248   1.547   5.247
 5469SOL    HW228036   3.195   1.670   5.318
 5470SOL     OW28037   3.615   2.304  26.574
 5470SOL    HW128038   3.544   2.302  26.510
 5470SOL    HW228039   3.574   2.338  26.654
 5471SOL     OW28040   2.729   3.802  27.172
 5471SOL    HW128041   2.823   3.799  27.153
 5471SOL    HW228042   2.698   3.878  27.123
 5472SOL     OW28043   4.039   1.905   2.972
 5472SOL    HW128044   4.106   1.966   3.001
 5472SOL    HW228045   4.039   1.836   3.038
 5473SOL     OW28046   4.071   0.498   1.610
 5473SOL    HW128047   4.034   0.463   1.529
 5473SOL    HW228048   4.044   0.437   1.678
 5474SOL     OW28049   1.641   2.197   4.548
 5474SOL    HW128050   1.581   2.160   4.613
 5474SOL    HW228051   1.705   2.247   4.599
 5475SOL     OW28052   4.635   2.739  26.946
 5475SOL    HW128053   4.664   2.660  26.900
 5475SOL    HW228054   4.574   2.782  26.886
 5476SOL     OW28055   3.263   4.340   8.428
 5476SOL    HW128056   3.342   4.286   8.418
 5476SOL    HW228057   3.294   4.417   8.476
 5477SOL     OW28058   0.458   4.065   6.127
 5477SOL    HW128059   0.543   4.043   6.087
 5477SOL    HW228060   0.430   3.984   6.169
 5478SOL     OW28061   2.161   3.818   9.899
 5478SOL    HW128062   2.092   3.882   9.915
 5478SOL    HW228063   2.117   3.733   9.901
 5479SOL     OW28064   0.348   4.398  20.673
 5479SOL    HW128065   0.317   4.361  20.591
 5479SOL    HW228066   0.384   4.323  20.721
 5480SOL     OW28067   0.718   1.572  20.392
 5480SOL    HW128068   0.800   1.611  20.362
 5480SOL    HW228069   0.712   1.596  20.484
 5481SOL     OW28070   1.848   0.597  26.543
 5481SOL    HW128071   1.799   0.516  26.558
 5481SOL    HW228072   1.898   0.580  26.463
 5482SOL     OW28073   1.308   0.273  26.813
 5482SOL    HW128074   1.366   0.345  26.788
 5482SOL    HW228075   1.228   0.316  26.844
 5483SOL     OW28076   3.506   4.035   9.215
 5483SOL    HW128077   3.551   4.105   9.263
 5483SOL    HW228078   3.438   4.004   9.275
 5484SOL     OW28079   3.043   1.737   1.334
 5484SOL    HW128080   3.042   1.752   1.240
 5484SOL    HW228081   2.952   1.745   1.361
 5485SOL     OW28082   0.945   3.045   7.366
 5485SOL    HW128083   0.960   3.139   7.365
 5485SOL    HW228084   0.872   3.033   7.427
 5486SOL     OW28085   0.531   0.202  22.512
 5486SOL    HW128086   0.501   0.205  22.422
 5486SOL    HW228087   0.550   0.293  22.534
 5487SOL     OW28088   1.995   0.131  25.333
 5487SOL    HW128089   1.908   0.164  25.355
 5487SOL    HW228090   2.049   0.153  25.408
 5488SOL     OW28091   3.146   2.494  21.230
 5488SOL    HW128092   3.066   2.522  21.185
 5488SOL    HW228093   3.126   2.405  21.260
 5489SOL     OW28094   1.431   2.971  19.535
 5489SOL    HW128095   1.459   3.045  19.589
 5489SOL    HW228096   1.484   2.898  19.565
 5490SOL     OW28097   3.589   1.594   5.737
 5490SOL    HW128098   3.550   1.513   5.770
 5490SOL    HW228099   3.620   1.639   5.815
 5491SOL     OW28100   2.984   1.671  22.855
 5491SOL    HW128101   2.948   1.758  22.840
 5491SOL    HW228102   3.070   1.687  22.894
 5492SOL     OW28103   2.773   0.677   8.871
 5492SOL    HW128104   2.722   0.737   8.927
 5492SOL    HW228105   2.818   0.734   8.810
 5493SOL     OW28106   3.282   4.115  23.042
 5493SOL    HW128107   3.236   4.122  22.959
 5493SOL    HW228108   3.356   4.176  23.034
 5494SOL     OW28109   1.100   3.303  22.115
 5494SOL    HW128110   1.141   3.244  22.051
 5494SOL    HW228111   1.077   3.381  22.064
 5495SOL     OW28112   0.116   2.586  16.933
 5495SOL    HW128113   0.094   2.586  16.840
 5495SOL    HW228114   0.177   2.660  16.943
 5496SOL     OW28115   0.786   3.439   3.493
 5496SOL    HW128116   0.853   3.488   3.446
 5496SOL    HW228117   0.834   3.366   3.533
 5497SOL     OW28118   2.184   0.974   5.281
 5497SOL    HW128119   2.233   0.911   5.335
 5497SOL    HW228120   2.205   1.059   5.318
 5498SOL     OW28121   1.203   1.407  18.112
 5498SOL    HW128122   1.189   1.499  18.135
 5498SOL    HW228123   1.295   1.403  18.085
 5499SOL     OW28124   3.551   3.064  17.374
 5499SOL    HW128125   3.485   3.094  17.312
 5499SOL    HW228126   3.623   3.126  17.365
 5500SOL     OW28127   2.475   3.709   6.648
 5500SOL    HW128128   2.443   3.784   6.697
 5500SOL    HW228129   2.397   3.656   6.630
 5501SOL     OW28130   0.283   0.736  11.923
 5501SOL    HW128131   0.317   0.724  12.011
 5501SOL    HW228132   0.228   0.814  11.928
 5502SOL     OW28133   4.263   1.955   0.811
 5502SOL    HW128134   4.188   1.923   0.761
 5502SOL    HW228135   4.229   2.031   0.859
 5503SOL     OW28136   2.048   1.719  21.060
 5503SOL    HW128137   2.044   1.697  21.153
 5503SOL    HW228138   2.140   1.737  21.043
 5504SOL     OW28139   0.346   1.010  26.197
 5504SOL    HW128140   0.332   0.960  26.277
 5504SOL    HW228141   0.342   1.101  26.225
 5505SOL     OW28142   4.728   4.030   7.068
 5505SOL    HW128143   4.740   4.125   7.075
 5505SOL    HW228144   0.029   3.999   7.034
 5506SOL     OW28145   1.219   2.437  23.218
 5506SOL    HW128146   1.155   2.425  23.288
 5506SOL    HW228147   1.271   2.512  23.246
 5507SOL     OW28148   1.394   3.520  23.756
 5507SOL    HW128149   1.409   3.566  23.674
 5507SOL    HW228150   1.394   3.589  23.822
 5508SOL     OW28151   1.090   1.051   9.996
 5508SOL    HW128152   1.162   1.083   9.942
 5508SOL    HW228153   1.012   1.064   9.942
 5509SOL     OW28154   0.289   3.264   6.432
 5509SOL    HW128155   0.340   3.306   6.502
 5509SOL    HW228156   0.317   3.172   6.434
 5510SOL     OW28157   2.264   4.706   9.234
 5510SOL    HW128158   2.286   0.015   9.251
 5510SOL    HW228159   2.181   4.710   9.187
 5511SOL     OW28160   2.400   1.641   6.575
 5511SOL    HW128161   2.323   1.608   6.622
 5511SOL    HW228162   2.372   1.726   6.540
 5512SOL     OW28163   2.739   3.056  22.356
 5512SOL    HW128164   2.714   3.096  22.273
 5512SOL    HW228165   2.661   3.064  22.411
 5513SOL     OW28166   2.358   4.025   3.510
 5513SOL    HW128167   2.306   4.094   3.551
 5513SOL    HW228168   2.327   3.945   3.551
 5514SOL     OW28169   2.439   1.904  19.458
 5514SOL    HW128170   2.383   1.950  19.520
 5514SOL    HW228171   2.478   1.974  19.405
 5515SOL     OW28172   1.518   1.638   6.272
 5515SOL    HW128173   1.517   1.577   6.198
 5515SOL    HW228174   1.592   1.611   6.325
 5516SOL     OW28175   3.775   0.319   7.697
 5516SOL    HW128176   3.715   0.263   7.747
 5516SOL    HW228177   3.796   0.390   7.756
 5517SOL     OW28178   1.694   2.601  21.904
 5517SOL    HW128179   1.639   2.679  21.913
 5517SOL    HW228180   1.705   2.591  21.809
 5518SOL     OW28181   1.854   2.761  28.051
 5518SOL    HW128182   1.894   2.698  27.991
 5518SOL    HW228183   1.911   2.759  28.128
 5519SOL     OW28184   4.315   0.212   1.435
 5519SOL    HW128185   4.285   0.272   1.366
 5519SOL    HW228186   4.246   0.213   1.500
 5520SOL     OW28187   2.433   4.618   9.053
 5520SOL    HW128188   2.396   4.665   8.978
 5520SOL    HW228189   2.389   4.655   9.129
 5521SOL     OW28190   0.537   3.752   6.992
 5521SOL    HW128191   0.495   3.747   6.907
 5521SOL    HW228192   0.562   3.662   7.013
 5522SOL     OW28193   2.525   4.391  27.602
 5522SOL    HW128194   2.546   4.484  27.611
 5522SOL    HW228195   2.543   4.354  27.688
 5523SOL     OW28196   2.522   2.505  20.450
 5523SOL    HW128197   2.610   2.478  20.474
 5523SOL    HW228198   2.465   2.441  20.493
 5524SOL     OW28199   1.911   4.113  18.762
 5524SOL    HW128200   1.921   4.178  18.831
 5524SOL    HW228201   1.994   4.065  18.762
 5525SOL     OW28202   0.228   2.515   4.676
 5525SOL    HW128203   0.155   2.453   4.672
 5525SOL    HW228204   0.194   2.594   4.635
 5526SOL     OW28205   2.238   1.515  24.430
 5526SOL    HW128206   2.248   1.547  24.340
 5526SOL    HW228207   2.305   1.447  24.438
 5527SOL     OW28208   4.496   3.512   2.407
 5527SOL    HW128209   4.490   3.555   2.492
 5527SOL    HW228210   4.589   3.517   2.384
 5528SOL     OW28211   4.200   3.385  20.670
 5528SOL    HW128212   4.223   3.414  20.582
 5528SOL    HW228213   4.230   3.457  20.727
 5529SOL     OW28214   2.099   3.072   8.604
 5529SOL    HW128215   2.155   3.053   8.529
 5529SOL    HW228216   2.088   2.988   8.647
 5530SOL     OW28217   0.554   0.271   4.425
 5530SOL    HW128218   0.597   0.198   4.469
 5530SOL    HW228219   0.550   0.340   4.491
 5531SOL     OW28220   1.405   1.055  17.877
 5531SOL    HW128221   1.320   1.069  17.836
 5531SOL    HW228222   1.390   1.074  17.970
 5532SOL     OW28223   0.124   3.695  27.676
 5532SOL    HW128224   0.109   3.601  27.667
 5532SOL    HW228225   0.159   3.722  27.592
 5533SOL     OW28226   2.562   2.887   3.629
 5533SOL    HW128227   2.638   2.830   3.613
 5533SOL    HW228228   2.523   2.898   3.542
 5534SOL     OW28229   1.152   4.702  26.511
 5534SOL    HW128230   1.155   4.740  26.423
 5534SOL    HW228231   1.061   4.675  26.523
 5535SOL     OW28232   3.593   3.995  21.395
 5535SOL    HW128233   3.551   3.924  21.347
 5535SOL    HW228234   3.602   3.962  21.485
 5536SOL     OW28235   2.627   3.559   3.024
 5536SOL    HW128236   2.650   3.466   3.032
 5536SOL    HW228237   2.687   3.593   2.958
 5537SOL     OW28238   4.526   4.485  22.143
 5537SOL    HW128239   4.504   4.454  22.055
 5537SOL    HW228240   4.501   4.413  22.200
 5538SOL     OW28241   2.129   4.295  21.127
 5538SOL    HW128242   2.174   4.253  21.200
 5538SOL    HW228243   2.196   4.350  21.086
 5539SOL     OW28244   1.569   2.558  19.185
 5539SOL    HW128245   1.524   2.483  19.145
 5539SOL    HW228246   1.499   2.609  19.226
 5540SOL     OW28247   4.323   3.005   6.296
 5540SOL    HW128248   4.273   3.087   6.294
 5540SOL    HW228249   4.409   3.029   6.261
 5541SOL     OW28250   1.465   1.644   5.438
 5541SOL    HW128251   1.372   1.621   5.437
 5541SOL    HW228252   1.508   1.569   5.479
 5542SOL     OW28253   0.144   2.997  24.263
 5542SOL    HW128254   0.185   3.034  24.184
 5542SOL    HW228255   0.064   3.048  24.274
 5543SOL     OW28256   2.279   4.191  21.311
 5543SOL    HW128257   2.305   4.100  21.303
 5543SOL    HW228258   2.354   4.241  21.279
 5544SOL     OW28259   1.311   2.067  26.146
 5544SOL    HW128260   1.238   2.005  26.140
 5544SOL    HW228261   1.311   2.094  26.238
 5545SOL     OW28262   3.234   1.364   5.800
 5545SOL    HW128263   3.211   1.452   5.829
 5545SOL    HW228264   3.150   1.325   5.774
 5546SOL     OW28265   3.880   1.300  22.830
 5546SOL    HW128266   3.884   1.208  22.802
 5546SOL    HW228267   3.799   1.306  22.880
 5547SOL     OW28268   1.041   4.429   2.436
 5547SOL    HW128269   1.076   4.341   2.453
 5547SOL    HW228270   0.974   4.415   2.369
 5548SOL     OW28271   2.105   0.758  20.059
 5548SOL    HW128272   2.016   0.790  20.044
 5548SOL    HW228273   2.153   0.781  19.980
 5549SOL     OW28274   2.846   4.332  25.535
 5549SOL    HW128275   2.799   4.285  25.466
 5549SOL    HW228276   2.813   4.422  25.529
 5550SOL     OW28277   4.372   3.786   7.994
 5550SOL    HW128278   4.295   3.764   7.942
 5550SOL    HW228279   4.341   3.852   8.057
 5551SOL     OW28280   4.177   4.297  23.280
 5551SOL    HW128281   4.240   4.349  23.231
 5551SOL    HW228282   4.230   4.243  23.339
 5552SOL     OW28283   3.922   3.677  24.146
 5552SOL    HW128284   3.845   3.650  24.096
 5552SOL    HW228285   3.994   3.628  24.106
 5553SOL     OW28286   3.715   3.353   1.711
 5553SOL    HW128287   3.663   3.282   1.749
 5553SOL    HW228288   3.662   3.386   1.639
 5554SOL     OW28289   4.386   2.459  23.823
 5554SOL    HW128290   4.400   2.365  23.813
 5554SOL    HW228291   4.453   2.487  23.885
 5555SOL     OW28292   0.160   1.417   7.684
 5555SOL    HW128293   0.220   1.377   7.746
 5555SOL    HW228294   0.089   1.453   7.738
 5556SOL     OW28295   0.127   1.573  26.735
 5556SOL    HW128296   0.183   1.647  26.758
 5556SOL    HW228297   0.155   1.502  26.793
 5557SOL     OW28298   2.191   2.903   4.087
 5557SOL    HW128299   2.107   2.947   4.097
 5557SOL    HW228300   2.256   2.974   4.092
 5558SOL     OW28301   2.410   0.577   0.666
 5558SOL    HW128302   2.383   0.664   0.636
 5558SOL    HW228303   2.386   0.518   0.595
 5559SOL     OW28304   1.441   1.679  22.325
 5559SOL    HW128305   1.533   1.652  22.320
 5559SOL    HW228306   1.393   1.607  22.284
 5560SOL     OW28307   0.153   1.257  25.008
 5560SOL    HW128308   0.059   1.254  24.989
 5560SOL    HW228309   0.195   1.270  24.923
 5561SOL     OW28310   4.340   2.710   5.342
 5561SOL    HW128311   4.341   2.660   5.260
 5561SOL    HW228312   4.272   2.776   5.329
 5562SOL     OW28313   0.642   2.864  27.093
 5562SOL    HW128314   0.612   2.782  27.054
 5562SOL    HW228315   0.654   2.844  27.186
 5563SOL     OW28316   0.384   2.230  28.231
 5563SOL    HW128317   0.302   2.229  28.181
 5563SOL    HW228318   0.429   2.151  28.204
 5564SOL     OW28319   1.496   3.929   3.544
 5564SOL    HW128320   1.408   3.948   3.575
 5564SOL    HW228321   1.516   4.001   3.484
 5565SOL     OW28322   1.960   3.651  17.792
 5565SOL    HW128323   2.002   3.576  17.751
 5565SOL    HW228324   1.876   3.659  17.747
 5566SOL     OW28325   2.613   0.687  20.858
 5566SOL    HW128326   2.706   0.703  20.873
 5566SOL    HW228327   2.610   0.601  20.816
 5567SOL     OW28328   1.181   0.303  20.657
 5567SOL    HW128329   1.194   0.394  20.630
 5567SOL    HW228330   1.250   0.287  20.721
 5568SOL     OW28331   1.598   0.008   8.763
 5568SOL    HW128332   1.560   0.011   8.675
 5568SOL    HW228333   1.534   0.051   8.819
 5569SOL     OW28334   3.980   0.152  21.048
 5569SOL    HW128335   4.044   0.131  21.116
 5569SOL    HW228336   3.899   0.111  21.077
 5570SOL     OW28337   4.002   3.373  28.335
 5570SOL    HW128338   3.966   3.406  28.253
 5570SOL    HW228339   4.037   3.451  28.378
 5571SOL     OW28340   0.005   3.764   1.424
 5571SOL    HW128341   4.734   3.687   1.405
 5571SOL    HW228342   4.761   3.828   1.358
 5572SOL     OW28343   4.483   3.615  17.803
 5572SOL    HW128344   4.510   3.695  17.758
 5572SOL    HW228345   4.554   3.552  17.786
 5573SOL     OW28346   0.165   4.369  20.421
 5573SOL    HW128347   0.146   4.375  20.327
 5573SOL    HW228348   0.134   4.452  20.457
 5574SOL     OW28349   2.935   2.512   6.717
 5574SOL    HW128350   2.995   2.559   6.775
 5574SOL    HW228351   2.848   2.544   6.742
 5575SOL     OW28352   4.357   3.606  10.367
 5575SOL    HW128353   4.419   3.663  10.412
 5575SOL    HW228354   4.289   3.589  10.432
 5576SOL     OW28355   1.918   1.265  25.328
 5576SOL    HW128356   1.910   1.173  25.304
 5576SOL    HW228357   1.935   1.265  25.422
 5577SOL     OW28358   2.570   4.302   2.755
 5577SOL    HW128359   2.602   4.377   2.806
 5577SOL    HW228360   2.509   4.339   2.692
 5578SOL     OW28361   1.808   3.170  25.987
 5578SOL    HW128362   1.801   3.164  25.892
 5578SOL    HW228363   1.753   3.098  26.020
 5579SOL     OW28364   3.937   3.067   6.619
 5579SOL    HW128365   3.936   3.024   6.533
 5579SOL    HW228366   4.028   3.095   6.630
 5580SOL     OW28367   1.479   0.451  26.735
 5580SOL    HW128368   1.553   0.484  26.785
 5580SOL    HW228369   1.476   0.506  26.656
 5581SOL     OW28370   0.056   2.942  26.886
 5581SOL    HW128371   0.083   2.889  26.812
 5581SOL    HW228372   4.763   2.895  26.923
 5582SOL     OW28373   3.537   0.293  23.310
 5582SOL    HW128374   3.588   0.212  23.315
 5582SOL    HW228375   3.560   0.330  23.225
 5583SOL     OW28376   1.066   3.273  24.837
 5583SOL    HW128377   1.092   3.199  24.891
 5583SOL    HW228378   1.067   3.239  24.747
 5584SOL     OW28379   3.094   0.440  21.327
 5584SOL    HW128380   3.003   0.412  21.337
 5584SOL    HW228381   3.133   0.428  21.414
 5585SOL     OW28382   4.582   0.951  27.510
 5585SOL    HW128383   4.508   0.977  27.565
 5585SOL    HW228384   4.548   0.880  27.456
 5586SOL     OW28385   3.977   0.108   6.833
 5586SOL    HW128386   3.991   0.065   6.917
 5586SOL    HW228387   4.016   0.195   6.843
 5587SOL     OW28388   1.338   3.876   9.214
 5587SOL    HW128389   1.304   3.802   9.164
 5587SOL    HW228390   1.277   3.948   9.196
 5588SOL     OW28391   2.920   0.586  26.565
 5588SOL    HW128392   2.862   0.531  26.616
 5588SOL    HW228393   2.862   0.634  26.506
 5589SOL     OW28394   2.666   3.243  19.706
 5589SOL    HW128395   2.655   3.270  19.615
 5589SOL    HW228396   2.677   3.325  19.754
 5590SOL     OW28397   2.039   3.170   1.204
 5590SOL    HW128398   1.992   3.154   1.285
 5590SOL    HW228399   1.970   3.176   1.137
 5591SOL     OW28400   2.658   4.047   9.284
 5591SOL    HW128401   2.730   4.089   9.237
 5591SOL    HW228402   2.688   3.957   9.298
 5592SOL     OW28403   2.349   1.019  21.209
 5592SOL    HW128404   2.286   0.983  21.270
 5592SOL    HW228405   2.347   1.114  21.224
 5593SOL     OW28406   2.794   1.277   6.487
 5593SOL    HW128407   2.748   1.358   6.512
 5593SOL    HW228408   2.740   1.207   6.524
 5594SOL     OW28409   3.097   1.615   5.828
 5594SOL    HW128410   3.029   1.551   5.807
 5594SOL    HW228411   3.051   1.683   5.877
 5595SOL     OW28412   3.224   4.198  25.553
 5595SOL    HW128413   3.262   4.193  25.641
 5595SOL    HW228414   3.299   4.208  25.495
 5596SOL     OW28415   2.455   4.715   7.406
 5596SOL    HW128416   2.434   4.621   7.410
 5596SOL    HW228417   2.485   4.729   7.316
 5597SOL     OW28418   2.785   2.083   2.200
 5597SOL    HW128419   2.863   2.035   2.173
 5597SOL    HW228420   2.714   2.018   2.197
 5598SOL     OW28421   4.228   1.061  21.147
 5598SOL    HW128422   4.204   0.986  21.092
 5598SOL    HW228423   4.278   1.023  21.219
 5599SOL     OW28424   2.947   1.696   8.933
 5599SOL    HW128425   3.009   1.754   8.888
 5599SOL    HW228426   2.963   1.712   9.026
 5600SOL     OW28427   0.016   2.055  21.293
 5600SOL    HW128428   0.089   1.999  21.318
 5600SOL    HW228429   0.000   2.110  21.370
 5601SOL     OW28430   0.464   1.485  19.869
 5601SOL    HW128431   0.532   1.540  19.831
 5601SOL    HW228432   0.431   1.535  19.943
 5602SOL     OW28433   1.506   4.770  25.936
 5602SOL    HW128434   1.558   4.742  25.861
 5602SOL    HW228435   1.454   0.061  25.902
 5603SOL     OW28436   1.847   4.013   5.774
 5603SOL    HW128437   1.786   3.947   5.806
 5603SOL    HW228438   1.934   3.981   5.800
 5604SOL     OW28439   0.719   4.347   3.888
 5604SOL    HW128440   0.712   4.277   3.824
 5604SOL    HW228441   0.721   4.302   3.973
 5605SOL     OW28442   0.023   4.589  22.062
 5605SOL    HW128443   4.715   4.587  22.094
 5605SOL    HW228444   0.053   4.499  22.072
 5606SOL     OW28445   4.217   1.256  26.996
 5606SOL    HW128446   4.281   1.258  27.067
 5606SOL    HW228447   4.269   1.232  26.919
 5607SOL     OW28448   1.811   1.048  18.324
 5607SOL    HW128449   1.835   1.115  18.388
 5607SOL    HW228450   1.876   0.979  18.335
 5608SOL     OW28451   4.245   0.702  25.448
 5608SOL    HW128452   4.236   0.740  25.361
 5608SOL    HW228453   4.281   0.772  25.502
 5609SOL     OW28454   3.323   0.805   3.392
 5609SOL    HW128455   3.345   0.750   3.467
 5609SOL    HW228456   3.390   0.873   3.392
 5610SOL     OW28457   1.080   2.810   4.813
 5610SOL    HW128458   1.146   2.771   4.756
 5610SOL    HW228459   1.061   2.742   4.878
 5611SOL     OW28460   3.290   3.041   7.569
 5611SOL    HW128461   3.258   3.073   7.485
 5611SOL    HW228462   3.211   3.030   7.622
 5612SOL     OW28463   0.288   2.348  22.721
 5612SOL    HW128464   0.246   2.395  22.793
 5612SOL    HW228465   0.248   2.384  22.642
 5613SOL     OW28466   2.106   0.115   1.290
 5613SOL    HW128467   2.105   0.051   1.361
 5613SOL    HW228468   2.185   0.166   1.305
 5614SOL     OW28469   3.356   2.135  25.744
 5614SOL    HW128470   3.377   2.102  25.657
 5614SOL    HW228471   3.260   2.127  25.749
 5615SOL     OW28472   0.491   3.648  23.318
 5615SOL    HW128473   0.442   3.579  23.275
 5615SOL    HW228474   0.558   3.603  23.368
 5616SOL     OW28475   0.386   4.128   8.666
 5616SOL    HW128476   0.298   4.153   8.640
 5616SOL    HW228477   0.426   4.209   8.697
 5617SOL     OW28478   3.383   0.848   0.521
 5617SOL    HW128479   3.434   0.848   0.440
 5617SOL    HW228480   3.296   0.878   0.494
 5618SOL     OW28481   4.160   0.911  24.319
 5618SOL    HW128482   4.103   0.922  24.243
 5618SOL    HW228483   4.200   0.824  24.306
 5619SOL     OW28484   4.439   2.373  19.800
 5619SOL    HW128485   4.409   2.426  19.726
 5619SOL    HW228486   4.521   2.334  19.771
 5620SOL     OW28487   3.160   1.040   5.724
 5620SOL    HW128488   3.158   1.081   5.638
 5620SOL    HW228489   3.252   1.042   5.750
 5621SOL     OW28490   0.093   2.286  17.724
 5621SOL    HW128491   0.034   2.295  17.799
 5621SOL    HW228492   0.092   2.372  17.682
 5622SOL     OW28493   3.011   3.575   7.054
 5622SOL    HW128494   2.925   3.547   7.023
 5622SOL    HW228495   3.029   3.656   7.006
 5623SOL     OW28496   1.761   0.298  24.738
 5623SOL    HW128497   1.787   0.224  24.684
 5623SOL    HW228498   1.670   0.280  24.762
 5624SOL     OW28499   2.973   2.605   7.546
 5624SOL    HW128500   2.959   2.699   7.539
 5624SOL    HW228501   2.990   2.576   7.457
 5625SOL     OW28502   3.857   3.807   2.908
 5625SOL    HW128503   3.918   3.796   2.981
 5625SOL    HW228504   3.802   3.881   2.934
 5626SOL     OW28505   0.413   4.607  26.235
 5626SOL    HW128506   0.335   4.551  26.232
 5626SOL    HW228507   0.427   4.623  26.329
 5627SOL     OW28508   4.150   2.941   4.086
 5627SOL    HW128509   4.194   3.001   4.147
 5627SOL    HW228510   4.058   2.946   4.110
 5628SOL     OW28511   4.381   2.964   2.351
 5628SOL    HW128512   4.378   3.042   2.295
 5628SOL    HW228513   4.438   2.989   2.423
 5629SOL     OW28514   3.734   1.385  11.525
 5629SOL    HW128515   3.648   1.428  11.520
 5629SOL    HW228516   3.734   1.342  11.610
 5630SOL     OW28517   3.398   2.465  18.947
 5630SOL    HW128518   3.384   2.381  18.903
 5630SOL    HW228519   3.464   2.447  19.014
 5631SOL     OW28520   4.378   3.749   3.382
 5631SOL    HW128521   4.335   3.772   3.464
 5631SOL    HW228522   4.468   3.727   3.407
 5632SOL     OW28523   3.437   2.462   5.865
 5632SOL    HW128524   3.432   2.540   5.809
 5632SOL    HW228525   3.513   2.415   5.834
 5633SOL     OW28526   2.229   3.153  27.271
 5633SOL    HW128527   2.199   3.244  27.276
 5633SOL    HW228528   2.286   3.151  27.194
 5634SOL     OW28529   1.380   2.703   8.082
 5634SOL    HW128530   1.420   2.707   8.169
 5634SOL    HW228531   1.440   2.649   8.030
 5635SOL     OW28532   2.718   3.937   0.198
 5635SOL    HW128533   2.715   3.860   0.255
 5635SOL    HW228534   2.682   4.008   0.251
 5636SOL     OW28535   2.909   2.848  20.092
 5636SOL    HW128536   2.879   2.783  20.155
 5636SOL    HW228537   2.844   2.845  20.022
 5637SOL     OW28538   2.074   0.347  25.171
 5637SOL    HW128539   2.038   0.273  25.219
 5637SOL    HW228540   2.106   0.310  25.088
 5638SOL     OW28541   3.224   2.482   6.606
 5638SOL    HW128542   3.198   2.541   6.677
 5638SOL    HW228543   3.283   2.420   6.648
 5639SOL     OW28544   4.715   4.462   4.520
 5639SOL    HW128545   0.007   4.421   4.476
 5639SOL    HW228546   4.670   4.391   4.564
 5640SOL     OW28547   4.222   1.745  18.400
 5640SOL    HW128548   4.232   1.675  18.335
 5640SOL    HW228549   4.258   1.823  18.357
 5641SOL     OW28550   2.071   3.301   6.425
 5641SOL    HW128551   1.999   3.309   6.487
 5641SOL    HW228552   2.137   3.249   6.471
 5642SOL     OW28553   0.614   1.967   5.306
 5642SOL    HW128554   0.652   2.055   5.313
 5642SOL    HW228555   0.542   1.977   5.244
 5643SOL     OW28556   3.318   4.067   3.929
 5643SOL    HW128557   3.287   4.152   3.895
 5643SOL    HW228558   3.282   4.003   3.868
 5644SOL     OW28559   4.088   3.435  22.990
 5644SOL    HW128560   4.153   3.461  23.055
 5644SOL    HW228561   4.073   3.514  22.938
 5645SOL     OW28562   1.521   3.089  25.320
 5645SOL    HW128563   1.518   2.994  25.305
 5645SOL    HW228564   1.582   3.121  25.253
 5646SOL     OW28565   0.739   4.412   1.575
 5646SOL    HW128566   0.673   4.481   1.575
 5646SOL    HW228567   0.689   4.331   1.564
 5647SOL     OW28568   0.432   0.972  24.578
 5647SOL    HW128569   0.473   0.885  24.573
 5647SOL    HW228570   0.419   0.986  24.672
 5648SOL     OW28571   1.551   4.758   1.111
 5648SOL    HW128572   1.536   4.723   1.023
 5648SOL    HW228573   1.535   4.684   1.169
 5649SOL     OW28574   0.415   4.128   4.597
 5649SOL    HW128575   0.441   4.066   4.529
 5649SOL    HW228576   0.469   4.105   4.672
 5650SOL     OW28577   4.363   1.577   5.363
 5650SOL    HW128578   4.452   1.555   5.388
 5650SOL    HW228579   4.354   1.544   5.274
 5651SOL     OW28580   4.283   0.550  20.940
 5651SOL    HW128581   4.203   0.498  20.949
 5651SOL    HW228582   4.334   0.503  20.874
 5652SOL     OW28583   2.956   0.615   2.157
 5652SOL    HW128584   2.940   0.553   2.229
 5652SOL    HW228585   2.954   0.560   2.078
 5653SOL     OW28586   0.374   0.649  24.924
 5653SOL    HW128587   0.429   0.715  24.966
 5653SOL    HW228588   0.326   0.608  24.995
 5654SOL     OW28589   1.435   0.149   8.941
 5654SOL    HW128590   1.454   0.242   8.956
 5654SOL    HW228591   1.353   0.134   8.987
 5655SOL     OW28592   4.547   4.636   7.575
 5655SOL    HW128593   4.589   4.561   7.616
 5655SOL    HW228594   4.567   4.627   7.481
 5656SOL     OW28595   2.254   0.207   2.150
 5656SOL    HW128596   2.287   0.230   2.063
 5656SOL    HW228597   2.173   0.160   2.133
 5657SOL     OW28598   1.008   4.046  28.509
 5657SOL    HW128599   1.002   3.977   0.045
 5657SOL    HW228600   0.956   4.013  28.436
 5658SOL     OW28601   4.504   1.138  26.732
 5658SOL    HW128602   4.437   1.205  26.746
 5658SOL    HW228603   4.583   1.173  26.774
 5659SOL     OW28604   3.421   0.699  22.221
 5659SOL    HW128605   3.441   0.750  22.142
 5659SOL    HW228606   3.336   0.659  22.202
 5660SOL     OW28607   1.893   4.675  22.335
 5660SOL    HW128608   1.842   4.605  22.376
 5660SOL    HW228609   1.835   4.751  22.338
 5661SOL     OW28610   2.966   1.424  10.103
 5661SOL    HW128611   2.882   1.387  10.076
 5661SOL    HW228612   2.943   1.498  10.159
 5662SOL     OW28613   0.911   3.637   1.229
 5662SOL    HW128614   0.826   3.668   1.262
 5662SOL    HW228615   0.922   3.684   1.146
 5663SOL     OW28616   3.796   2.480  22.529
 5663SOL    HW128617   3.868   2.451  22.586
 5663SOL    HW228618   3.811   2.575  22.519
 5664SOL     OW28619   3.570   0.428  22.751
 5664SOL    HW128620   3.581   0.511  22.704
 5664SOL    HW228621   3.644   0.374  22.722
 5665SOL     OW28622   4.677   0.244   6.271
 5665SOL    HW128623   4.629   0.315   6.315
 5665SOL    HW228624   4.610   0.180   6.248
 5666SOL     OW28625   2.298   0.676  25.495
 5666SOL    HW128626   2.350   0.629  25.560
 5666SOL    HW228627   2.331   0.645  25.411
 5667SOL     OW28628   4.470   2.459  22.247
 5667SOL    HW128629   4.408   2.515  22.293
 5667SOL    HW228630   4.417   2.411  22.184
 5668SOL     OW28631   1.805   3.222  22.960
 5668SOL    HW128632   1.855   3.302  22.942
 5668SOL    HW228633   1.855   3.179  23.030
 5669SOL     OW28634   1.600   4.717  28.161
 5669SOL    HW128635   1.514   4.736  28.197
 5669SOL    HW228636   1.583   4.685  28.072
 5670SOL     OW28637   1.811   0.560   9.092
 5670SOL    HW128638   1.775   0.648   9.077
 5670SOL    HW228639   1.781   0.537   9.180
 5671SOL     OW28640   4.399   3.188  17.145
 5671SOL    HW128641   4.317   3.236  17.161
 5671SOL    HW228642   4.409   3.189  17.050
 5672SOL     OW28643   3.853   2.512  21.667
 5672SOL    HW128644   3.782   2.504  21.731
 5672SOL    HW228645   3.813   2.555  21.592
 5673SOL     OW28646   1.140   1.823  25.185
 5673SOL    HW128647   1.151   1.732  25.157
 5673SOL    HW228648   1.097   1.866  25.111
 5674SOL     OW28649   2.242   1.199  27.798
 5674SOL    HW128650   2.259   1.130  27.734
 5674SOL    HW228651   2.208   1.272  27.747
 5675SOL     OW28652   0.436   3.415  11.094
 5675SOL    HW128653   0.518   3.451  11.129
 5675SOL    HW228654   0.440   3.433  11.000
 5676SOL     OW28655   2.201   1.380  28.191
 5676SOL    HW128656   2.130   1.315  28.196
 5676SOL    HW228657   2.263   1.342  28.129
 5677SOL     OW28658   4.455   3.455  23.017
 5677SOL    HW128659   4.417   3.399  23.086
 5677SOL    HW228660   4.501   3.394  22.960
 5678SOL     OW28661   2.256   1.672  10.507
 5678SOL    HW128662   2.161   1.676  10.494
 5678SOL    HW228663   2.268   1.604  10.574
 5679SOL     OW28664   4.607   3.875  21.741
 5679SOL    HW128665   4.683   3.836  21.785
 5679SOL    HW228666   4.644   3.914  21.661
 5680SOL     OW28667   4.510   3.155  18.015
 5680SOL    HW128668   4.503   3.242  18.054
 5680SOL    HW228669   4.431   3.109  18.042
 5681SOL     OW28670   3.766   3.776  28.080
 5681SOL    HW128671   3.768   3.722  28.159
 5681SOL    HW228672   3.775   3.713  28.008
 5682SOL     OW28673   1.715   1.237   8.642
 5682SOL    HW128674   1.638   1.293   8.637
 5682SOL    HW228675   1.766   1.273   8.715
 5683SOL     OW28676   3.204   0.100  22.197
 5683SOL    HW128677   3.132   0.153  22.230
 5683SOL    HW228678   3.170   0.062  22.116
 5684SOL     OW28679   2.618   1.721  26.308
 5684SOL    HW128680   2.536   1.677  26.332
 5684SOL    HW228681   2.687   1.664  26.343
 5685SOL     OW28682   2.249   1.293  20.562
 5685SOL    HW128683   2.253   1.388  20.573
 5685SOL    HW228684   2.337   1.263  20.584
 5686SOL     OW28685   3.636   4.605  21.271
 5686SOL    HW128686   3.554   4.636  21.234
 5686SOL    HW228687   3.623   4.605  21.365
 5687SOL     OW28688   2.391   4.463  27.101
 5687SOL    HW128689   2.415   4.473  27.194
 5687SOL    HW228690   2.345   4.544  27.080
 5688SOL     OW28691   4.420   3.255   3.279
 5688SOL    HW128692   4.437   3.207   3.360
 5688SOL    HW228693   4.503   3.296   3.257
 5689SOL     OW28694   0.746   4.239   0.660
 5689SOL    HW128695   0.703   4.236   0.745
 5689SOL    HW228696   0.682   4.200   0.600
 5690SOL     OW28697   1.792   4.591  10.060
 5690SOL    HW128698   1.883   4.572  10.081
 5690SOL    HW228699   1.743   4.567  10.138
 5691SOL     OW28700   1.967   4.255  28.453
 5691SOL    HW128701   1.951   4.336  28.502
 5691SOL    HW228702   1.931   4.272  28.366
 5692SOL     OW28703   1.799   0.052   5.684
 5692SOL    HW128704   1.879   4.782   5.670
 5692SOL    HW228705   1.782   0.092   5.599
 5693SOL     OW28706   0.051   4.758  21.594
 5693SOL    HW128707   0.116   4.773  21.663
 5693SOL    HW228708   0.102   4.726  21.520
 5694SOL     OW28709   2.671   1.993  10.018
 5694SOL    HW128710   2.655   1.996  10.113
 5694SOL    HW228711   2.631   1.911   9.990
 5695SOL     OW28712   4.523   4.572  20.997
 5695SOL    HW128713   4.574   4.596  20.920
 5695SOL    HW228714   4.572   4.606  21.071
 5696SOL     OW28715   3.319   2.177  21.136
 5696SOL    HW128716   3.313   2.091  21.177
 5696SOL    HW228717   3.358   2.233  21.203
 5697SOL     OW28718   0.482   3.062  18.123
 5697SOL    HW128719   0.539   3.137  18.140
 5697SOL    HW228720   0.424   3.092  18.052
 5698SOL     OW28721   3.904   4.533  18.481
 5698SOL    HW128722   3.995   4.532  18.510
 5698SOL    HW228723   3.904   4.479  18.402
 5699SOL     OW28724   4.241   1.556  25.463
 5699SOL    HW128725   4.252   1.562  25.558
 5699SOL    HW228726   4.191   1.633  25.439
 5700SOL     OW28727   1.561   0.947  22.146
 5700SOL    HW128728   1.587   0.855  22.139
 5700SOL    HW228729   1.553   0.977  22.055
 5701SOL     OW28730   4.347   2.879   3.603
 5701SOL    HW128731   4.437   2.847   3.616
 5701SOL    HW228732   4.301   2.856   3.684
 5702SOL     OW28733   4.578   1.157  20.758
 5702SOL    HW128734   4.551   1.248  20.746
 5702SOL    HW228735   4.507   1.118  20.810
 5703SOL     OW28736   3.627   4.592   6.085
 5703SOL    HW128737   3.579   4.675   6.088
 5703SOL    HW228738   3.708   4.612   6.039
 5704SOL     OW28739   0.182   4.490  26.300
 5704SOL    HW128740   0.126   4.477  26.224
 5704SOL    HW228741   0.136   4.447  26.372
 5705SOL     OW28742   0.671   3.812   7.817
 5705SOL    HW128743   0.688   3.724   7.785
 5705SOL    HW228744   0.607   3.848   7.756
 5706SOL     OW28745   3.964   1.110  17.630
 5706SOL    HW128746   4.046   1.158  17.619
 5706SOL    HW228747   3.934   1.095  17.540
 5707SOL     OW28748   2.563   3.640  23.939
 5707SOL    HW128749   2.607   3.710  23.891
 5707SOL    HW228750   2.592   3.653  24.030
 5708SOL     OW28751   0.809   0.198   6.477
 5708SOL    HW128752   0.853   0.118   6.450
 5708SOL    HW228753   0.716   0.178   6.475
 5709SOL     OW28754   3.437   3.465  22.648
 5709SOL    HW128755   3.374   3.535  22.629
 5709SOL    HW228756   3.462   3.431  22.562
 5710SOL     OW28757   3.796   4.271  27.892
 5710SOL    HW128758   3.752   4.355  27.906
 5710SOL    HW228759   3.754   4.212  27.954
 5711SOL     OW28760   0.260   2.459   6.612
 5711SOL    HW128761   0.306   2.498   6.686
 5711SOL    HW228762   0.328   2.441   6.547
 5712SOL     OW28763   3.756   0.054   6.356
 5712SOL    HW128764   3.748   4.749   6.395
 5712SOL    HW228765   3.803   0.040   6.274
 5713SOL     OW28766   4.108   4.699  18.842
 5713SOL    HW128767   4.163   4.621  18.833
 5713SOL    HW228768   4.169   4.771  18.854
 5714SOL     OW28769   4.072   0.084   4.540
 5714SOL    HW128770   3.986   0.043   4.543
 5714SOL    HW228771   4.095   0.086   4.447
 5715SOL     OW28772   1.532   1.057  18.364
 5715SOL    HW128773   1.617   1.071  18.322
 5715SOL    HW228774   1.552   1.002  18.440
 5716SOL     OW28775   2.022   0.863   2.441
 5716SOL    HW128776   2.053   0.945   2.403
 5716SOL    HW228777   2.038   0.872   2.535
 5717SOL     OW28778   3.767   1.945   7.901
 5717SOL    HW128779   3.681   1.907   7.883
 5717SOL    HW228780   3.764   2.032   7.861
 5718SOL     OW28781   4.401   3.499   4.699
 5718SOL    HW128782   4.422   3.543   4.616
 5718SOL    HW228783   4.317   3.456   4.684
 5719SOL     OW28784   0.738   3.718  10.320
 5719SOL    HW128785   0.802   3.761  10.263
 5719SOL    HW228786   0.708   3.786  10.380
 5720SOL     OW28787   0.267   4.637   8.049
 5720SOL    HW128788   0.204   4.574   8.084
 5720SOL    HW228789   0.339   4.583   8.016
 5721SOL     OW28790   1.677   4.700   4.079
 5721SOL    HW128791   1.752   4.755   4.104
 5721SOL    HW228792   1.600   4.752   4.104
 5722SOL     OW28793   0.289   2.432  10.426
 5722SOL    HW128794   0.270   2.518  10.462
 5722SOL    HW228795   0.384   2.426  10.425
 5723SOL     OW28796   1.169   0.589  16.507
 5723SOL    HW128797   1.130   0.669  16.473
 5723SOL    HW228798   1.237   0.618  16.568
 5724SOL     OW28799   3.381   0.530  11.000
 5724SOL    HW128800   3.469   0.500  11.019
 5724SOL    HW228801   3.377   0.536  10.904
 5725SOL     OW28802   1.105   4.163  23.040
 5725SOL    HW128803   1.038   4.198  22.981
 5725SOL    HW228804   1.183   4.214  23.020
 5726SOL     OW28805   1.236   3.891  27.235
 5726SOL    HW128806   1.208   3.800  27.248
 5726SOL    HW228807   1.299   3.886  27.162
 5727SOL     OW28808   2.621   1.642  26.772
 5727SOL    HW128809   2.635   1.626  26.865
 5727SOL    HW228810   2.604   1.555  26.735
 5728SOL     OW28811   1.049   1.708  28.411
 5728SOL    HW128812   1.040   1.675  28.501
 5728SOL    HW228813   1.028   1.801  28.417
 5729SOL     OW28814   3.146   2.846   1.138
 5729SOL    HW128815   3.191   2.811   1.215
 5729SOL    HW228816   3.185   2.933   1.127
 5730SOL     OW28817   3.600   0.070   3.695
 5730SOL    HW128818   3.579   0.041   3.784
 5730SOL    HW228819   3.578   0.163   3.695
 5731SOL     OW28820   2.045   4.353   0.558
 5731SOL    HW128821   2.016   4.265   0.581
 5731SOL    HW228822   2.007   4.409   0.625
 5732SOL     OW28823   1.690   4.698  20.989
 5732SOL    HW128824   1.610   4.674  21.037
 5732SOL    HW228825   1.717   4.617  20.946
 5733SOL     OW28826   4.425   3.990  22.597
 5733SOL    HW128827   4.502   4.000  22.542
 5733SOL    HW228828   4.374   3.920  22.555
 5734SOL     OW28829   2.818   3.390   7.254
 5734SOL    HW128830   2.839   3.467   7.307
 5734SOL    HW228831   2.759   3.338   7.309
 5735SOL     OW28832   0.786   1.355  18.043
 5735SOL    HW128833   0.811   1.273  18.085
 5735SOL    HW228834   0.694   1.344  18.021
 5736SOL     OW28835   0.683   3.671   4.106
 5736SOL    HW128836   0.687   3.596   4.166
 5736SOL    HW228837   0.606   3.654   4.052
 5737SOL     OW28838   3.051   3.280  17.000
 5737SOL    HW128839   3.017   3.198  16.965
 5737SOL    HW228840   3.118   3.307  16.937
 5738SOL     OW28841   4.734   3.238  20.755
 5738SOL    HW128842   0.040   3.238  20.718
 5738SOL    HW228843   4.696   3.321  20.727
 5739SOL     OW28844   4.164   2.787   6.222
 5739SOL    HW128845   4.226   2.723   6.188
 5739SOL    HW228846   4.213   2.869   6.225
 5740SOL     OW28847   1.048   4.099  11.987
 5740SOL    HW128848   1.074   4.174  11.933
 5740SOL    HW228849   1.090   4.115  12.072
 5741SOL     OW28850   2.774   2.597  25.560
 5741SOL    HW128851   2.699   2.617  25.615
 5741SOL    HW228852   2.848   2.640  25.604
 5742SOL     OW28853   1.686   4.732   3.165
 5742SOL    HW128854   1.781   4.739   3.170
 5742SOL    HW228855   1.667   4.712   3.073
 5743SOL     OW28856   3.425   3.391   5.924
 5743SOL    HW128857   3.474   3.402   6.006
 5743SOL    HW228858   3.365   3.319   5.942
 5744SOL     OW28859   3.202   3.484  24.648
 5744SOL    HW128860   3.284   3.453  24.689
 5744SOL    HW228861   3.197   3.576  24.673
 5745SOL     OW28862   3.304   0.238   4.632
 5745SOL    HW128863   3.223   0.287   4.620
 5745SOL    HW228864   3.316   0.190   4.550
 5746SOL     OW28865   2.601   4.544  21.998
 5746SOL    HW128866   2.531   4.563  22.061
 5746SOL    HW228867   2.585   4.603  21.925
 5747SOL     OW28868   4.011   2.068  24.549
 5747SOL    HW128869   4.065   2.014  24.491
 5747SOL    HW228870   3.979   2.008  24.616
 5748SOL     OW28871   4.763   3.231   4.735
 5748SOL    HW128872   4.776   3.315   4.779
 5748SOL    HW228873   4.678   3.238   4.693
 5749SOL     OW28874   1.274   2.403   4.392
 5749SOL    HW128875   1.216   2.375   4.322
 5749SOL    HW228876   1.239   2.487   4.421
 5750SOL     OW28877   1.483   2.545   7.298
 5750SOL    HW128878   1.471   2.494   7.379
 5750SOL    HW228879   1.411   2.517   7.242
 5751SOL     OW28880   2.152   2.893  27.275
 5751SOL    HW128881   2.085   2.846  27.326
 5751SOL    HW228882   2.132   2.986  27.288
 5752SOL     OW28883   2.675   3.434   6.036
 5752SOL    HW128884   2.729   3.380   6.094
 5752SOL    HW228885   2.611   3.474   6.094
 5753SOL     OW28886   0.980   4.657   9.656
 5753SOL    HW128887   0.885   4.661   9.645
 5753SOL    HW228888   1.009   4.588   9.596
 5754SOL     OW28889   1.071   0.585  17.822
 5754SOL    HW128890   1.017   0.653  17.862
 5754SOL    HW228891   1.063   0.600  17.728
 5755SOL     OW28892   1.199   0.733  25.329
 5755SOL    HW128893   1.260   0.793  25.370
 5755SOL    HW228894   1.253   0.680  25.269
 5756SOL     OW28895   0.959   0.418  21.736
 5756SOL    HW128896   0.886   0.423  21.674
 5756SOL    HW228897   1.033   0.455  21.688
 5757SOL     OW28898   2.452   0.443  28.429
 5757SOL    HW128899   2.423   0.387  28.502
 5757SOL    HW228900   2.391   0.424  28.358
 5758SOL     OW28901   0.606   4.619   8.994
 5758SOL    HW128902   0.572   4.626   9.083
 5758SOL    HW228903   0.607   4.709   8.961
 5759SOL     OW28904   4.052   3.876   7.285
 5759SOL    HW128905   4.136   3.886   7.240
 5759SOL    HW228906   3.999   3.949   7.252
 5760SOL     OW28907   4.508   2.921   1.412
 5760SOL    HW128908   4.529   2.869   1.334
 5760SOL    HW228909   4.412   2.918   1.417
 5761SOL     OW28910   1.858   3.368  19.327
 5761SOL    HW128911   1.764   3.386  19.320
 5761SOL    HW228912   1.895   3.404  19.246
 5762SOL     OW28913   1.177   0.854   2.226
 5762SOL    HW128914   1.261   0.843   2.182
 5762SOL    HW228915   1.179   0.791   2.297
 5763SOL     OW28916   1.452   1.828   8.619
 5763SOL    HW128917   1.467   1.747   8.570
 5763SOL    HW228918   1.513   1.890   8.582
 5764SOL     OW28919   1.780   2.554   9.341
 5764SOL    HW128920   1.798   2.645   9.363
 5764SOL    HW228921   1.688   2.542   9.361
 5765SOL     OW28922   2.437   0.389   8.653
 5765SOL    HW128923   2.456   0.314   8.708
 5765SOL    HW228924   2.519   0.438   8.649
 5766SOL     OW28925   2.181   3.445  21.962
 5766SOL    HW128926   2.258   3.466  21.908
 5766SOL    HW228927   2.153   3.530  21.996
 5767SOL     OW28928   2.637   3.223  26.412
 5767SOL    HW128929   2.569   3.290  26.403
 5767SOL    HW228930   2.655   3.194  26.323
 5768SOL     OW28931   2.805   4.339   8.183
 5768SOL    HW128932   2.791   4.244   8.188
 5768SOL    HW228933   2.894   4.352   8.217
 5769SOL     OW28934   0.088   0.809  25.126
 5769SOL    HW128935   0.062   0.845  25.041
 5769SOL    HW228936   0.170   0.853  25.146
 5770SOL     OW28937   2.163   1.949   2.221
 5770SOL    HW128938   2.191   1.963   2.130
 5770SOL    HW228939   2.068   1.959   2.218
 5771SOL     OW28940   1.737   1.592   5.667
 5771SOL    HW128941   1.783   1.572   5.749
 5771SOL    HW228942   1.686   1.670   5.688
 5772SOL     OW28943   0.347   0.636   1.100
 5772SOL    HW128944   0.287   0.640   1.174
 5772SOL    HW228945   0.401   0.559   1.117
 5773SOL     OW28946   1.635   3.535  27.343
 5773SOL    HW128947   1.695   3.513  27.415
 5773SOL    HW228948   1.652   3.468  27.276
 5774SOL     OW28949   1.256   2.761   0.929
 5774SOL    HW128950   1.219   2.826   0.869
 5774SOL    HW228951   1.221   2.785   1.015
 5775SOL     OW28952   3.919   3.210   1.996
 5775SOL    HW128953   3.978   3.141   2.025
 5775SOL    HW228954   3.908   3.195   1.902
 5776SOL     OW28955   2.357   3.333   5.736
 5776SOL    HW128956   2.407   3.406   5.698
 5776SOL    HW228957   2.270   3.340   5.695
 5777SOL     OW28958   4.604   2.804  25.095
 5777SOL    HW128959   4.629   2.736  25.157
 5777SOL    HW228960   4.683   2.856  25.081
 5778SOL     OW28961   3.192   1.196   1.277
 5778SOL    HW128962   3.246   1.158   1.207
 5778SOL    HW228963   3.162   1.279   1.241
 5779SOL     OW28964   1.654   1.783   3.011
 5779SOL    HW128965   1.582   1.735   2.971
 5779SOL    HW228966   1.708   1.811   2.937
 5780SOL     OW28967   2.441   3.933  22.143
 5780SOL    HW128968   2.497   3.958  22.217
 5780SOL    HW228969   2.475   3.984  22.069
 5781SOL     OW28970   3.280   4.657   6.984
 5781SOL    HW128971   3.218   4.676   6.915
 5781SOL    HW228972   3.356   4.711   6.965
 5782SOL     OW28973   1.016   2.704  28.246
 5782SOL    HW128974   0.930   2.703  28.289
 5782SOL    HW228975   1.064   2.633  28.287
 5783SOL     OW28976   0.904   1.922   7.761
 5783SOL    HW128977   0.815   1.911   7.729
 5783SOL    HW228978   0.908   1.870   7.841
 5784SOL     OW28979   0.704   2.053   4.460
 5784SOL    HW128980   0.622   2.012   4.435
 5784SOL    HW228981   0.708   2.134   4.409
 5785SOL     OW28982   1.063   1.935  28.096
 5785SOL    HW128983   1.060   1.856  28.042
 5785SOL    HW228984   1.147   1.931  28.141
 5786SOL     OW28985   0.137   2.482  27.599
 5786SOL    HW128986   0.086   2.454  27.675
 5786SOL    HW228987   0.184   2.403  27.572
 5787SOL     OW28988   1.026   2.358   5.643
 5787SOL    HW128989   1.110   2.364   5.597
 5787SOL    HW228990   0.971   2.304   5.586
 5788SOL     OW28991   2.161   2.162  19.483
 5788SOL    HW128992   2.073   2.201  19.479
 5788SOL    HW228993   2.203   2.191  19.402
 5789SOL     OW28994   3.107   2.580   5.680
 5789SOL    HW128995   3.052   2.563   5.603
 5789SOL    HW228996   3.196   2.581   5.646
 5790SOL     OW28997   2.760   2.085  17.538
 5790SOL    HW128998   2.686   2.088  17.598
 5790SOL    HW228999   2.797   1.997  17.549
 5791SOL     OW29000   3.130   0.941   0.408
 5791SOL    HW129001   3.088   1.027   0.416
 5791SOL    HW229002   3.089   0.903   0.330
 5792SOL     OW29003   4.322   1.422  26.144
 5792SOL    HW129004   4.300   1.496  26.088
 5792SOL    HW229005   4.265   1.351  26.115
 5793SOL     OW29006   3.404   3.111  25.381
 5793SOL    HW129007   3.479   3.108  25.322
 5793SOL    HW229008   3.372   3.021  25.384
 5794SOL     OW29009   2.760   2.961  24.598
 5794SOL    HW129010   2.690   3.006  24.552
 5794SOL    HW229011   2.723   2.943  24.685
 5795SOL     OW29012   1.298   0.568  17.970
 5795SOL    HW129013   1.344   0.651  17.962
 5795SOL    HW229014   1.229   0.573  17.904
 5796SOL     OW29015   3.829   1.656  11.576
 5796SOL    HW129016   3.923   1.656  11.596
 5796SOL    HW229017   3.810   1.565  11.553
 5797SOL     OW29018   3.228   4.530   1.934
 5797SOL    HW129019   3.235   4.439   1.906
 5797SOL    HW229020   3.191   4.576   1.859
 5798SOL     OW29021   3.207   3.359   6.551
 5798SOL    HW129022   3.202   3.264   6.563
 5798SOL    HW229023   3.189   3.394   6.638
 5799SOL     OW29024   2.827   3.071  22.036
 5799SOL    HW129025   2.810   2.984  21.998
 5799SOL    HW229026   2.902   3.057  22.094
 5800SOL     OW29027   2.838   0.438  20.674
 5800SOL    HW129028   2.889   0.441  20.592
 5800SOL    HW229029   2.786   0.358  20.666
 5801SOL     OW29030   2.575   4.091  22.876
 5801SOL    HW129031   2.586   4.171  22.926
 5801SOL    HW229032   2.627   4.104  22.797
 5802SOL     OW29033   2.567   3.856   7.020
 5802SOL    HW129034   2.504   3.890   6.956
 5802SOL    HW229035   2.554   3.910   7.098
 5803SOL     OW29036   0.025   1.208  18.522
 5803SOL    HW129037   4.782   1.267  18.451
 5803SOL    HW229038   0.113   1.236  18.547
 5804SOL     OW29039   0.903   1.298   5.573
 5804SOL    HW129040   0.873   1.215   5.537
 5804SOL    HW229041   0.991   1.309   5.537
 5805SOL     OW29042   0.191   1.114  23.856
 5805SOL    HW129043   0.278   1.147  23.881
 5805SOL    HW229044   0.135   1.191  23.859
 5806SOL     OW29045   0.090   0.575   3.362
 5806SOL    HW129046   0.086   0.495   3.414
 5806SOL    HW229047   0.028   0.635   3.403
 5807SOL     OW29048   3.215   0.977  27.139
 5807SOL    HW129049   3.206   1.030  27.218
 5807SOL    HW229050   3.301   0.999  27.105
 5808SOL     OW29051   3.020   1.957   6.233
 5808SOL    HW129052   3.045   1.965   6.325
 5808SOL    HW229053   3.099   1.922   6.191
 5809SOL     OW29054   4.064   1.542   0.944
 5809SOL    HW129055   4.094   1.629   0.971
 5809SOL    HW229056   4.124   1.518   0.873
 5810SOL     OW29057   3.798   1.048  23.763
 5810SOL    HW129058   3.762   1.009  23.684
 5810SOL    HW229059   3.893   1.035  23.756
 5811SOL     OW29060   2.852   3.636   3.726
 5811SOL    HW129061   2.837   3.706   3.790
 5811SOL    HW229062   2.948   3.632   3.717
 5812SOL     OW29063   2.766   2.768  22.421
 5812SOL    HW129064   2.761   2.857  22.386
 5812SOL    HW229065   2.679   2.731  22.404
 5813SOL     OW29066   3.013   2.883   6.546
 5813SOL    HW129067   2.939   2.911   6.599
 5813SOL    HW229068   2.994   2.792   6.524
 5814SOL     OW29069   3.542   2.468   2.699
 5814SOL    HW129070   3.455   2.429   2.696
 5814SOL    HW229071   3.595   2.413   2.641
 5815SOL     OW29072   1.458   2.510   5.914
 5815SOL    HW129073   1.504   2.429   5.934
 5815SOL    HW229074   1.393   2.485   5.848
 5816SOL     OW29075   3.005   3.348  19.830
 5816SOL    HW129076   3.033   3.281  19.767
 5816SOL    HW229077   3.062   3.335  19.905
 5817SOL     OW29078   2.707   4.447  21.403
 5817SOL    HW129079   2.786   4.396  21.385
 5817SOL    HW229080   2.665   4.401  21.476
 5818SOL     OW29081   2.771   1.205   5.157
 5818SOL    HW129082   2.698   1.249   5.114
 5818SOL    HW229083   2.778   1.120   5.114
 5819SOL     OW29084   3.747   3.700   5.593
 5819SOL    HW129085   3.771   3.622   5.543
 5819SOL    HW229086   3.655   3.689   5.613
 5820SOL     OW29087   1.275   2.842  20.708
 5820SOL    HW129088   1.274   2.888  20.792
 5820SOL    HW229089   1.356   2.870  20.665
 5821SOL     OW29090   2.504   4.279   8.869
 5821SOL    HW129091   2.585   4.257   8.823
 5821SOL    HW229092   2.448   4.318   8.802
 5822SOL     OW29093   3.114   1.009  19.459
 5822SOL    HW129094   3.202   0.973  19.474
 5822SOL    HW229095   3.127   1.103  19.459
 5823SOL     OW29096   0.339   1.487   2.074
 5823SOL    HW129097   0.354   1.568   2.027
 5823SOL    HW229098   0.419   1.436   2.061
 5824SOL     OW29099   0.854   0.468  23.994
 5824SOL    HW129100   0.854   0.557  23.958
 5824SOL    HW229101   0.768   0.433  23.970
 5825SOL     OW29102   4.635   3.964   3.588
 5825SOL    HW129103   4.674   3.879   3.609
 5825SOL    HW229104   4.571   3.978   3.657
 5826SOL     OW29105   1.745   0.101  10.016
 5826SOL    HW129106   1.748   0.005  10.011
 5826SOL    HW229107   1.797   0.122  10.094
 5827SOL     OW29108   0.311   4.034  28.512
 5827SOL    HW129109   0.359   4.117  28.515
 5827SOL    HW229110   0.223   4.056   0.011
 5828SOL     OW29111   3.080   1.643  27.902
 5828SOL    HW129112   3.054   1.570  27.846
 5828SOL    HW229113   3.009   1.706  27.895
 5829SOL     OW29114   4.226   0.073   2.852
 5829SOL    HW129115   4.250   0.095   2.941
 5829SOL    HW229116   4.245   0.151   2.801
 5830SOL     OW29117   1.357   1.905  19.343
 5830SOL    HW129118   1.440   1.868  19.372
 5830SOL    HW229119   1.382   1.983  19.292
 5831SOL     OW29120   1.687   3.269   0.262
 5831SOL    HW129121   1.673   3.214   0.185
 5831SOL    HW229122   1.777   3.252   0.288
 5832SOL     OW29123   4.662   4.161   0.158
 5832SOL    HW129124   4.646   4.252   0.184
 5832SOL    HW229125   4.589   4.139   0.100
 5833SOL     OW29126   2.813   2.673   8.730
 5833SOL    HW129127   2.740   2.681   8.669
 5833SOL    HW229128   2.890   2.661   8.674
 5834SOL     OW29129   0.804   4.094  10.063
 5834SOL    HW129130   0.896   4.100  10.037
 5834SOL    HW229131   0.802   4.126  10.153
 5835SOL     OW29132   3.999   4.205  21.676
 5835SOL    HW129133   3.972   4.237  21.590
 5835SOL    HW229134   4.002   4.110  21.666
 5836SOL     OW29135   2.358   2.071  19.688
 5836SOL    HW129136   2.303   2.148  19.677
 5836SOL    HW229137   2.418   2.093  19.759
 5837SOL     OW29138   4.299   2.836  24.018
 5837SOL    HW129139   4.298   2.817  23.924
 5837SOL    HW229140   4.223   2.791  24.053
 5838SOL     OW29141   2.503   0.930   2.306
 5838SOL    HW129142   2.586   0.900   2.268
 5838SOL    HW229143   2.488   0.872   2.381
 5839SOL     OW29144   4.199   1.018  27.986
 5839SOL    HW129145   4.165   1.068  28.060
 5839SOL    HW229146   4.218   1.085  27.919
 5840SOL     OW29147   2.720   2.010  26.428
 5840SOL    HW129148   2.691   1.978  26.513
 5840SOL    HW229149   2.745   2.101  26.444
 5841SOL     OW29150   3.677   0.088   2.758
 5841SOL    HW129151   3.593   0.090   2.712
 5841SOL    HW229152   3.723   0.166   2.727
 5842SOL     OW29153   4.717   1.064  24.669
 5842SOL    HW129154   4.773   1.003  24.620
 5842SOL    HW229155   4.649   1.089  24.607
 5843SOL     OW29156   3.498   1.786  24.916
 5843SOL    HW129157   3.449   1.805  24.836
 5843SOL    HW229158   3.590   1.797  24.891
 5844SOL     OW29159   0.132   2.794  26.106
 5844SOL    HW129160   0.204   2.737  26.077
 5844SOL    HW229161   0.072   2.797  26.032
 5845SOL     OW29162   4.455   2.223   6.128
 5845SOL    HW129163   4.387   2.260   6.185
 5845SOL    HW229164   4.533   2.275   6.148
 5846SOL     OW29165   2.095   1.205   3.654
 5846SOL    HW129166   2.048   1.218   3.737
 5846SOL    HW229167   2.089   1.290   3.610
 5847SOL     OW29168   0.314   3.556   2.715
 5847SOL    HW129169   0.256   3.537   2.789
 5847SOL    HW229170   0.390   3.499   2.729
 5848SOL     OW29171   2.751   1.328  18.402
 5848SOL    HW129172   2.684   1.260  18.409
 5848SOL    HW229173   2.777   1.327  18.310
 5849SOL     OW29174   0.359   2.768   0.683
 5849SOL    HW129175   0.295   2.724   0.739
 5849SOL    HW229176   0.443   2.750   0.725
 5850SOL     OW29177   2.648   1.421   8.435
 5850SOL    HW129178   2.579   1.355   8.424
 5850SOL    HW229179   2.728   1.376   8.409
 5851SOL     OW29180   4.175   2.416  17.637
 5851SOL    HW129181   4.180   2.334  17.686
 5851SOL    HW229182   4.091   2.454  17.662
 5852SOL     OW29183   4.048   0.063   1.892
 5852SOL    HW129184   3.963   0.020   1.893
 5852SOL    HW229185   4.110   4.775   1.873
 5853SOL     OW29186   0.679   2.061  23.905
 5853SOL    HW129187   0.773   2.052  23.890
 5853SOL    HW229188   0.638   2.009  23.835
 5854SOL     OW29189   1.294   2.282   0.739
 5854SOL    HW129190   1.270   2.365   0.780
 5854SOL    HW229191   1.318   2.307   0.649
 5855SOL     OW29192   0.595   2.459  25.156
 5855SOL    HW129193   0.598   2.512  25.077
 5855SOL    HW229194   0.686   2.438  25.176
 5856SOL     OW29195   1.256   4.723  21.030
 5856SOL    HW129196   1.237   4.693  20.942
 5856SOL    HW229197   1.184   4.691  21.083
 5857SOL     OW29198   0.499   0.836   2.466
 5857SOL    HW129199   0.468   0.910   2.518
 5857SOL    HW229200   0.532   0.773   2.531
 5858SOL     OW29201   2.100   4.480  25.803
 5858SOL    HW129202   2.103   4.412  25.736
 5858SOL    HW229203   2.081   4.560  25.756
 5859SOL     OW29204   0.534   3.270   8.961
 5859SOL    HW129205   0.524   3.254   9.054
 5859SOL    HW229206   0.530   3.365   8.953
 5860SOL     OW29207   3.500   0.680   4.364
 5860SOL    HW129208   3.457   0.752   4.319
 5860SOL    HW229209   3.453   0.672   4.448
 5861SOL     OW29210   2.923   1.687   3.536
 5861SOL    HW129211   2.889   1.624   3.473
 5861SOL    HW229212   3.018   1.688   3.520
 5862SOL     OW29213   3.570   0.192  21.592
 5862SOL    HW129214   3.543   0.157  21.508
 5862SOL    HW229215   3.489   0.195  21.644
 5863SOL     OW29216   3.299   2.685   1.339
 5863SOL    HW129217   3.359   2.705   1.410
 5863SOL    HW229218   3.243   2.615   1.374
 5864SOL     OW29219   3.361   2.449  17.800
 5864SOL    HW129220   3.358   2.392  17.723
 5864SOL    HW229221   3.404   2.529  17.768
 5865SOL     OW29222   1.810   2.211   5.888
 5865SOL    HW129223   1.837   2.302   5.890
 5865SOL    HW229224   1.723   2.211   5.929
 5866SOL     OW29225   1.911   1.629   5.858
 5866SOL    HW129226   1.994   1.650   5.814
 5866SOL    HW229227   1.936   1.614   5.950
 5867SOL     OW29228   1.401   2.190  20.992
 5867SOL    HW129229   1.444   2.151  20.916
 5867SOL    HW229230   1.422   2.283  20.987
 5868SOL     OW29231   0.193   4.146   3.437
 5868SOL    HW129232   0.273   4.179   3.478
 5868SOL    HW229233   0.189   4.054   3.465
 5869SOL     OW29234   2.036   2.726  27.086
 5869SOL    HW129235   2.107   2.760  27.140
 5869SOL    HW229236   2.026   2.790  27.015
 5870SOL     OW29237   1.401   1.634   1.996
 5870SOL    HW129238   1.432   1.694   2.065
 5870SOL    HW229239   1.438   1.669   1.915
 5871SOL     OW29240   0.658   1.909   1.212
 5871SOL    HW129241   0.725   1.871   1.269
 5871SOL    HW229242   0.635   1.838   1.151
 5872SOL     OW29243   1.822   3.634   1.386
 5872SOL    HW129244   1.809   3.549   1.344
 5872SOL    HW229245   1.802   3.698   1.318
 5873SOL     OW29246   1.884   2.948   1.956
 5873SOL    HW129247   1.829   2.909   2.024
 5873SOL    HW229248   1.835   3.024   1.926
 5874SOL     OW29249   1.550   3.259  18.375
 5874SOL    HW129250   1.492   3.215  18.438
 5874SOL    HW229251   1.561   3.195  18.304
 5875SOL     OW29252   3.069   3.620   7.931
 5875SOL    HW129253   3.159   3.634   7.961
 5875SOL    HW229254   3.076   3.549   7.868
 5876SOL     OW29255   1.119   2.687  25.438
 5876SOL    HW129256   1.154   2.658  25.354
 5876SOL    HW229257   1.052   2.752  25.416
 5877SOL     OW29258   0.718   4.352   7.518
 5877SOL    HW129259   0.711   4.445   7.500
 5877SOL    HW229260   0.639   4.331   7.568
 5878SOL     OW29261   2.982   1.847   5.283
 5878SOL    HW129262   2.902   1.796   5.271
 5878SOL    HW229263   3.000   1.885   5.196
 5879SOL     OW29264   1.239   1.603   1.547
 5879SOL    HW129265   1.179   1.642   1.484
 5879SOL    HW229266   1.223   1.509   1.541
 5880SOL     OW29267   1.530   3.863   6.335
 5880SOL    HW129268   1.525   3.883   6.429
 5880SOL    HW229269   1.540   3.948   6.293
 5881SOL     OW29270   0.044   2.576   8.978
 5881SOL    HW129271   0.073   2.652   9.028
 5881SOL    HW229272   0.004   2.519   9.043
 5882SOL     OW29273   2.816   1.395  18.686
 5882SOL    HW129274   2.822   1.335  18.612
 5882SOL    HW229275   2.744   1.454  18.663
 5883SOL     OW29276   0.955   0.220  28.267
 5883SOL    HW129277   0.928   0.138  28.308
 5883SOL    HW229278   0.880   0.278  28.277
 5884SOL     OW29279   1.395   1.046  22.539
 5884SOL    HW129280   1.375   0.998  22.459
 5884SOL    HW229281   1.316   1.035  22.593
 5885SOL     OW29282   1.354   1.147   1.833
 5885SOL    HW129283   1.403   1.087   1.890
 5885SOL    HW229284   1.343   1.226   1.886
 5886SOL     OW29285   0.035   1.195  11.967
 5886SOL    HW129286   0.027   1.289  11.949
 5886SOL    HW229287   0.110   1.188  12.025
 5887SOL     OW29288   1.393   1.745  22.022
 5887SOL    HW129289   1.420   1.654  22.029
 5887SOL    HW229290   1.473   1.795  22.035
 5888SOL     OW29291   1.223   4.502   7.022
 5888SOL    HW129292   1.179   4.548   6.950
 5888SOL    HW229293   1.159   4.437   7.052
 5889SOL     OW29294   3.696   0.208  21.261
 5889SOL    HW129295   3.684   0.138  21.197
 5889SOL    HW229296   3.740   0.167  21.335
 5890SOL     OW29297   2.400   3.395  23.684
 5890SOL    HW129298   2.470   3.369  23.624
 5890SOL    HW229299   2.409   3.338  23.760
 5891SOL     OW29300   3.886   2.339  27.809
 5891SOL    HW129301   3.904   2.352  27.902
 5891SOL    HW229302   3.973   2.327  27.769
 5892SOL     OW29303   0.967   2.173  21.283
 5892SOL    HW129304   1.037   2.172  21.218
 5892SOL    HW229305   0.947   2.266  21.294
 5893SOL     OW29306   1.203   4.475  19.416
 5893SOL    HW129307   1.185   4.392  19.373
 5893SOL    HW229308   1.130   4.488  19.477
 5894SOL     OW29309   4.620   0.746   1.044
 5894SOL    HW129310   4.686   0.676   1.051
 5894SOL    HW229311   4.564   0.734   1.121
 5895SOL     OW29312   1.060   1.331  23.495
 5895SOL    HW129313   1.127   1.263  23.488
 5895SOL    HW229314   1.038   1.352  23.404
 5896SOL     OW29315   2.720   2.695  21.328
 5896SOL    HW129316   2.661   2.627  21.360
 5896SOL    HW229317   2.786   2.647  21.278
 5897SOL     OW29318   2.474   1.574  27.454
 5897SOL    HW129319   2.512   1.533  27.376
 5897SOL    HW229320   2.446   1.661  27.424
 5898SOL     OW29321   2.147   1.837  25.684
 5898SOL    HW129322   2.123   1.801  25.598
 5898SOL    HW229323   2.208   1.772  25.720
 5899SOL     OW29324   4.532   1.711  24.733
 5899SOL    HW129325   4.590   1.636  24.751
 5899SOL    HW229326   4.578   1.761  24.666
 5900SOL     OW29327   3.169   4.282  25.142
 5900SOL    HW129328   3.207   4.207  25.096
 5900SOL    HW229329   3.198   4.358  25.092
 5901SOL     OW29330   3.456   0.580   1.006
 5901SOL    HW129331   3.401   0.518   1.054
 5901SOL    HW229332   3.514   0.617   1.073
 5902SOL     OW29333   2.312   0.617  26.884
 5902SOL    HW129334   2.305   0.565  26.804
 5902SOL    HW229335   2.370   0.566  26.940
 5903SOL     OW29336   3.678   1.771  18.580
 5903SOL    HW129337   3.723   1.751  18.663
 5903SOL    HW229338   3.707   1.860  18.559
 5904SOL     OW29339   3.375   1.587   7.758
 5904SOL    HW129340   3.307   1.601   7.825
 5904SOL    HW229341   3.326   1.564   7.679
 5905SOL     OW29342   0.438   4.146   1.089
 5905SOL    HW129343   0.468   4.055   1.088
 5905SOL    HW229344   0.343   4.140   1.079
 5906SOL     OW29345   0.083   0.023   2.849
 5906SOL    HW129346   0.086   0.050   2.940
 5906SOL    HW229347   0.157   4.744   2.840
 5907SOL     OW29348   3.585   3.597  24.501
 5907SOL    HW129349   3.500   3.602  24.457
 5907SOL    HW229350   3.647   3.581  24.430
 5908SOL     OW29351   3.429   3.277   4.288
 5908SOL    HW129352   3.455   3.268   4.197
 5908SOL    HW229353   3.399   3.189   4.313
 5909SOL     OW29354   0.638   1.095   6.859
 5909SOL    HW129355   0.627   1.129   6.770
 5909SOL    HW229356   0.607   1.166   6.915
 5910SOL     OW29357   4.339   3.541  27.591
 5910SOL    HW129358   4.263   3.522  27.536
 5910SOL    HW229359   4.302   3.578  27.671
 5911SOL     OW29360   3.644   0.547  19.054
 5911SOL    HW129361   3.653   0.642  19.061
 5911SOL    HW229362   3.572   0.534  18.993
 5912SOL     OW29363   3.881   1.193   7.986
 5912SOL    HW129364   3.820   1.212   7.915
 5912SOL    HW229365   3.964   1.174   7.942
 5913SOL     OW29366   1.247   1.136  26.447
 5913SOL    HW129367   1.161   1.158  26.412
 5913SOL    HW229368   1.300   1.116  26.371
 5914SOL     OW29369   3.367   4.401  21.675
 5914SOL    HW129370   3.408   4.483  21.702
 5914SOL    HW229371   3.437   4.336  21.678
 5915SOL     OW29372   1.324   4.096  20.025
 5915SOL    HW129373   1.235   4.095  19.990
 5915SOL    HW229374   1.338   4.187  20.052
 5916SOL     OW29375   2.056   3.388   0.490
 5916SOL    HW129376   2.101   3.452   0.545
 5916SOL    HW229377   2.126   3.341   0.445
 5917SOL     OW29378   2.297   3.067  24.604
 5917SOL    HW129379   2.295   3.163  24.609
 5917SOL    HW229380   2.221   3.040  24.656
 5918SOL     OW29381   3.175   4.327  22.463
 5918SOL    HW129382   3.211   4.316  22.375
 5918SOL    HW229383   3.117   4.252  22.474
 5919SOL     OW29384   0.446   4.469  22.999
 5919SOL    HW129385   0.375   4.426  23.046
 5919SOL    HW229386   0.482   4.531  23.062
 5920SOL     OW29387   2.675   0.332  28.050
 5920SOL    HW129388   2.617   0.404  28.025
 5920SOL    HW229389   2.682   0.338  28.145
 5921SOL     OW29390   3.048   3.620   8.501
 5921SOL    HW129391   3.013   3.553   8.559
 5921SOL    HW229392   3.060   3.576   8.417
 5922SOL     OW29393   3.362   1.189   0.446
 5922SOL    HW129394   3.392   1.173   0.536
 5922SOL    HW229395   3.442   1.191   0.394
 5923SOL     OW29396   2.766   3.769  18.377
 5923SOL    HW129397   2.786   3.691  18.429
 5923SOL    HW229398   2.810   3.841  18.424
 5924SOL     OW29399   3.220   3.233  23.050
 5924SOL    HW129400   3.179   3.159  23.005
 5924SOL    HW229401   3.185   3.310  23.005
 5925SOL     OW29402   3.389   0.116  28.256
 5925SOL    HW129403   3.447   0.189  28.278
 5925SOL    HW229404   3.414   0.046  28.316
 5926SOL     OW29405   2.023   2.690  25.561
 5926SOL    HW129406   2.113   2.661  25.544
 5926SOL    HW229407   2.023   2.783  25.539
 5927SOL     OW29408   1.817   3.333  22.677
 5927SOL    HW129409   1.895   3.279  22.672
 5927SOL    HW229410   1.744   3.272  22.664
 5928SOL     OW29411   4.369   2.529   2.420
 5928SOL    HW129412   4.389   2.580   2.498
 5928SOL    HW229413   4.328   2.591   2.360
 5929SOL     OW29414   3.519   3.276  25.826
 5929SOL    HW129415   3.426   3.270  25.849
 5929SOL    HW229416   3.552   3.348  25.879
 5930SOL     OW29417   3.675   1.103  27.271
 5930SOL    HW129418   3.730   1.054  27.209
 5930SOL    HW229419   3.598   1.127  27.220
 5931SOL     OW29420   1.227   2.887  25.826
 5931SOL    HW129421   1.314   2.896  25.864
 5931SOL    HW229422   1.200   2.977  25.807
 5932SOL     OW29423   1.872   2.090   1.248
 5932SOL    HW129424   1.904   2.075   1.159
 5932SOL    HW229425   1.777   2.095   1.238
 5933SOL     OW29426   3.340   2.834   6.994
 5933SOL    HW129427   3.271   2.883   7.040
 5933SOL    HW229428   3.377   2.776   7.061
 5934SOL     OW29429   0.532   1.477   8.554
 5934SOL    HW129430   0.441   1.506   8.556
 5934SOL    HW229431   0.533   1.396   8.605
 5935SOL     OW29432   4.527   4.372   1.690
 5935SOL    HW129433   4.589   4.351   1.760
 5935SOL    HW229434   4.443   4.385   1.734
 5936SOL     OW29435   3.959   0.797  10.229
 5936SOL    HW129436   3.923   0.770  10.144
 5936SOL    HW229437   4.030   0.735  10.245
 5937SOL     OW29438   2.467   1.632   2.888
 5937SOL    HW129439   2.430   1.544   2.897
 5937SOL    HW229440   2.498   1.635   2.797
 5938SOL     OW29441   3.945   3.098   7.277
 5938SOL    HW129442   3.999   3.139   7.344
 5938SOL    HW229443   3.864   3.075   7.322
 5939SOL     OW29444   3.688   3.355   3.265
 5939SOL    HW129445   3.649   3.277   3.225
 5939SOL    HW229446   3.688   3.421   3.196
 5940SOL     OW29447   3.256   0.483  20.828
 5940SOL    HW129448   3.218   0.563  20.866
 5940SOL    HW229449   3.305   0.444  20.900
 5941SOL     OW29450   0.398   0.430   5.369
 5941SOL    HW129451   0.348   0.353   5.396
 5941SOL    HW229452   0.379   0.441   5.276
 5942SOL     OW29453   0.111   2.017  24.146
 5942SOL    HW129454   0.194   1.981  24.179
 5942SOL    HW229455   0.074   2.062  24.222
 5943SOL     OW29456   2.385   0.387  19.524
 5943SOL    HW129457   2.462   0.338  19.552
 5943SOL    HW229458   2.360   0.347  19.441
 5944SOL     OW29459   1.908   0.736   2.125
 5944SOL    HW129460   1.991   0.745   2.171
 5944SOL    HW229461   1.865   0.821   2.139
 5945SOL     OW29462   3.213   2.707  24.677
 5945SOL    HW129463   3.135   2.741  24.633
 5945SOL    HW229464   3.204   2.736  24.768
 5946SOL     OW29465   2.695   3.949  20.532
 5946SOL    HW129466   2.674   3.999  20.611
 5946SOL    HW229467   2.653   3.998  20.461
 5947SOL     OW29468   2.361   1.538  20.594
 5947SOL    HW129469   2.329   1.591  20.667
 5947SOL    HW229470   2.456   1.552  20.595
 5948SOL     OW29471   4.431   1.181   2.392
 5948SOL    HW129472   4.419   1.173   2.297
 5948SOL    HW229473   4.357   1.134   2.430
 5949SOL     OW29474   1.051   2.477   7.132
 5949SOL    HW129475   1.085   2.565   7.116
 5949SOL    HW229476   1.074   2.428   7.053
 5950SOL     OW29477   1.936   3.000  21.467
 5950SOL    HW129478   1.902   3.076  21.420
 5950SOL    HW229479   1.993   3.038  21.534
 5951SOL     OW29480   0.624   0.840  24.979
 5951SOL    HW129481   0.702   0.789  25.002
 5951SOL    HW229482   0.656   0.905  24.917
 5952SOL     OW29483   2.183   3.829  17.146
 5952SOL    HW129484   2.163   3.773  17.072
 5952SOL    HW229485   2.271   3.862  17.128
 5953SOL     OW29486   0.512   3.605  27.406
 5953SOL    HW129487   0.460   3.611  27.326
 5953SOL    HW229488   0.496   3.688  27.451
 5954SOL     OW29489   2.494   2.585   8.182
 5954SOL    HW129490   2.457   2.522   8.244
 5954SOL    HW229491   2.461   2.558   8.097
 5955SOL     OW29492   3.270   2.956   4.000
 5955SOL    HW129493   3.335   3.016   3.962
 5955SOL    HW229494   3.257   2.890   3.932
 5956SOL     OW29495   2.072   0.970   8.106
 5956SOL    HW129496   2.073   0.912   8.030
 5956SOL    HW229497   2.085   0.912   8.180
 5957SOL     OW29498   2.565   3.112  23.404
 5957SOL    HW129499   2.523   3.101  23.318
 5957SOL    HW229500   2.653   3.075  23.393
 5958SOL     OW29501   4.338   0.348   5.056
 5958SOL    HW129502   4.321   0.443   5.061
 5958SOL    HW229503   4.344   0.330   4.962
 5959SOL     OW29504   0.553   1.323  21.754
 5959SOL    HW129505   0.495   1.255  21.720
 5959SOL    HW229506   0.630   1.276  21.785
 5960SOL     OW29507   2.116   2.148   3.611
 5960SOL    HW129508   2.112   2.241   3.633
 5960SOL    HW229509   2.189   2.141   3.549
 5961SOL     OW29510   0.583   3.560  21.775
 5961SOL    HW129511   0.579   3.603  21.690
 5961SOL    HW229512   0.567   3.467  21.755
 5962SOL     OW29513   1.342   3.293   3.803
 5962SOL    HW129514   1.267   3.247   3.841
 5962SOL    HW229515   1.379   3.343   3.876
 5963SOL     OW29516   2.453   3.863   7.315
 5963SOL    HW129517   2.499   3.931   7.364
 5963SOL    HW229518   2.497   3.781   7.341
 5964SOL     OW29519   4.270   4.569   1.235
 5964SOL    HW129520   4.201   4.541   1.175
 5964SOL    HW229521   4.303   4.487   1.272
 5965SOL     OW29522   0.568   1.074  28.391
 5965SOL    HW129523   0.632   1.049  28.458
 5965SOL    HW229524   0.608   1.148  28.346
 5966SOL     OW29525   4.399   0.048  20.440
 5966SOL    HW129526   4.470   4.766  20.433
 5966SOL    HW229527   4.421   0.114  20.374
 5967SOL     OW29528   2.896   1.074  27.821
 5967SOL    HW129529   2.991   1.080  27.823
 5967SOL    HW229530   2.876   0.992  27.865
 5968SOL     OW29531   2.888   4.075   9.593
 5968SOL    HW129532   2.956   4.043   9.535
 5968SOL    HW229533   2.931   4.140   9.648
 5969SOL     OW29534   0.590   4.095  22.551
 5969SOL    HW129535   0.563   4.044  22.628
 5969SOL    HW229536   0.646   4.164  22.587
 5970SOL     OW29537   1.767   3.217   5.701
 5970SOL    HW129538   1.836   3.158   5.673
 5970SOL    HW229539   1.813   3.298   5.724
 5971SOL     OW29540   1.982   1.848  28.203
 5971SOL    HW129541   1.950   1.883  28.120
 5971SOL    HW229542   1.903   1.824  28.251
 5972SOL     OW29543   0.423   1.611  10.553
 5972SOL    HW129544   0.453   1.658  10.475
 5972SOL    HW229545   0.456   1.522  10.542
 5973SOL     OW29546   3.577   4.782   3.981
 5973SOL    HW129547   3.508   4.752   4.040
 5973SOL    HW229548   3.596   0.089   4.011
 5974SOL     OW29549   2.513   0.332  22.932
 5974SOL    HW129550   2.484   0.321  23.022
 5974SOL    HW229551   2.442   0.379  22.889
 5975SOL     OW29552   3.206   3.103   2.742
 5975SOL    HW129553   3.226   3.182   2.793
 5975SOL    HW229554   3.163   3.136   2.663
 5976SOL     OW29555   4.244   0.325   1.988
 5976SOL    HW129556   4.270   0.325   2.080
 5976SOL    HW229557   4.301   0.390   1.947
 5977SOL     OW29558   2.253   0.713  22.828
 5977SOL    HW129559   2.203   0.790  22.798
 5977SOL    HW229560   2.250   0.719  22.924
 5978SOL     OW29561   2.118   0.325  25.920
 5978SOL    HW129562   2.085   0.294  25.835
 5978SOL    HW229563   2.213   0.330  25.908
 5979SOL     OW29564   1.738   0.203  25.383
 5979SOL    HW129565   1.672   0.139  25.411
 5979SOL    HW229566   1.732   0.273  25.449
 5980SOL     OW29567   0.357   0.787   3.935
 5980SOL    HW129568   0.440   0.786   3.982
 5980SOL    HW229569   0.379   0.812   3.846
 5981SOL     OW29570   1.636   4.346   8.299
 5981SOL    HW129571   1.554   4.386   8.329
 5981SOL    HW229572   1.659   4.284   8.368
 5982SOL     OW29573   4.301   0.047   4.700
 5982SOL    HW129574   4.287   4.736   4.719
 5982SOL    HW229575   4.220   0.074   4.656
 5983SOL     OW29576   4.050   3.935   1.347
 5983SOL    HW129577   4.056   3.842   1.369
 5983SOL    HW229578   4.008   3.975   1.424
 5984SOL     OW29579   4.382   1.630  27.885
 5984SOL    HW129580   4.302   1.668  27.922
 5984SOL    HW229581   4.450   1.648  27.951
 5985SOL     OW29582   0.486   0.550   4.394
 5985SOL    HW129583   0.505   0.574   4.303
 5985SOL    HW229584   0.391   0.548   4.399
 5986SOL     OW29585   1.219   2.020  23.533
 5986SOL    HW129586   1.307   2.038  23.501
 5986SOL    HW229587   1.223   1.929  23.563
 5987SOL     OW29588   3.080   4.065  19.940
 5987SOL    HW129589   2.997   4.022  19.957
 5987SOL    HW229590   3.084   4.074  19.845
 5988SOL     OW29591   0.014   4.382  26.084
 5988SOL    HW129592   4.740   4.316  26.125
 5988SOL    HW229593   0.064   4.333  26.019
 5989SOL     OW29594   3.983   3.815   1.084
 5989SOL    HW129595   4.010   3.863   1.162
 5989SOL    HW229596   3.952   3.883   1.024
 5990SOL     OW29597   3.704   0.405   2.192
 5990SOL    HW129598   3.785   0.369   2.228
 5990SOL    HW229599   3.722   0.498   2.178
 5991SOL     OW29600   2.698   4.080  24.084
 5991SOL    HW129601   2.736   4.145  24.025
 5991SOL    HW229602   2.771   4.022  24.106
 5992SOL     OW29603   0.614   0.271  24.324
 5992SOL    HW129604   0.526   0.309  24.330
 5992SOL    HW229605   0.655   0.296  24.407
 5993SOL     OW29606   3.175   0.988  24.689
 5993SOL    HW129607   3.171   0.895  24.711
 5993SOL    HW229608   3.162   1.033  24.772
 5994SOL     OW29609   1.647   3.367  19.825
 5994SOL    HW129610   1.592   3.445  19.816
 5994SOL    HW229611   1.685   3.355  19.738
 5995SOL     OW29612   1.973   3.552  19.080
 5995SOL    HW129613   1.944   3.633  19.039
 5995SOL    HW229614   2.005   3.579  19.166
 5996SOL     OW29615   0.099   0.311  25.521
 5996SOL    HW129616   0.046   0.237  25.493
 5996SOL    HW229617   0.092   0.310  25.616
 5997SOL     OW29618   2.055   1.624  28.058
 5997SOL    HW129619   2.062   1.717  28.080
 5997SOL    HW229620   2.107   1.580  28.125
 5998SOL     OW29621   2.391   4.335   9.093
 5998SOL    HW129622   2.448   4.308   9.022
 5998SOL    HW229623   2.432   4.414   9.128
 5999SOL     OW29624   0.069   2.133   4.160
 5999SOL    HW129625   0.014   2.055   4.163
 5999SOL    HW229626   0.014   2.200   4.119
 6000SOL     OW29627   0.470   2.784   2.483
 6000SOL    HW129628   0.393   2.740   2.448
 6000SOL    HW229629   0.436   2.862   2.526
 6001SOL     OW29630   0.759   4.199  28.056
 6001SOL    HW129631   0.665   4.207  28.036
 6001SOL    HW229632   0.763   4.130  28.122
 6002SOL     OW29633   0.819   3.151  25.354
 6002SOL    HW129634   0.741   3.125  25.305
 6002SOL    HW229635   0.791   3.149  25.446
 6003SOL     OW29636   3.954   1.522   6.955
 6003SOL    HW129637   3.928   1.539   6.864
 6003SOL    HW229638   3.890   1.569   7.007
 6004SOL     OW29639   2.832   2.784  21.577
 6004SOL    HW129640   2.916   2.751  21.543
 6004SOL    HW229641   2.775   2.784  21.500
 6005SOL     OW29642   4.559   3.338   3.920
 6005SOL    HW129643   4.580   3.352   3.828
 6005SOL    HW229644   4.483   3.395   3.936
 6006SOL     OW29645   1.950   1.275   2.582
 6006SOL    HW129646   1.871   1.325   2.560
 6006SOL    HW229647   1.920   1.213   2.649
 6007SOL     OW29648   3.468   1.547  19.637
 6007SOL    HW129649   3.554   1.585  19.616
 6007SOL    HW229650   3.488   1.474  19.696
 6008SOL     OW29651   3.479   1.933  28.251
 6008SOL    HW129652   3.410   1.868  28.267
 6008SOL    HW229653   3.461   1.967  28.164
 6009SOL     OW29654   3.273   0.650   5.149
 6009SOL    HW129655   3.362   0.663   5.182
 6009SOL    HW229656   3.232   0.592   5.213
 6010SOL     OW29657   1.976   2.527   2.906
 6010SOL    HW129658   1.921   2.578   2.846
 6010SOL    HW229659   1.932   2.442   2.913
 6011SOL     OW29660   2.401   2.330   2.144
 6011SOL    HW129661   2.386   2.399   2.209
 6011SOL    HW229662   2.412   2.250   2.195
 6012SOL     OW29663   4.465   1.545  25.685
 6012SOL    HW129664   4.450   1.623  25.738
 6012SOL    HW229665   4.412   1.477  25.727
 6013SOL     OW29666   3.412   2.272   7.323
 6013SOL    HW129667   3.391   2.207   7.256
 6013SOL    HW229668   3.473   2.227   7.382
 6014SOL     OW29669   4.321   2.629  27.259
 6014SOL    HW129670   4.323   2.579  27.178
 6014SOL    HW229671   4.406   2.614  27.300
 6015SOL     OW29672   1.885   0.850   8.733
 6015SOL    HW129673   1.828   0.853   8.657
 6015SOL    HW229674   1.842   0.907   8.798
 6016SOL     OW29675   4.003   3.003   2.970
 6016SOL    HW129676   3.922   2.992   3.020
 6016SOL    HW229677   3.979   2.985   2.879
 6017SOL     OW29678   1.103   2.353  26.108
 6017SOL    HW129679   1.076   2.444  26.124
 6017SOL    HW229680   1.023   2.309  26.079
 6018SOL     OW29681   3.514   1.514  23.165
 6018SOL    HW129682   3.590   1.474  23.208
 6018SOL    HW229683   3.460   1.546  23.238
 6019SOL     OW29684   3.888   2.347   3.105
 6019SOL    HW129685   3.924   2.276   3.159
 6019SOL    HW229686   3.823   2.304   3.050
 6020SOL     OW29687   3.929   0.657   9.992
 6020SOL    HW129688   3.887   0.597   9.931
 6020SOL    HW229689   4.002   0.607  10.029
 6021SOL     OW29690   1.939   2.427   2.575
 6021SOL    HW129691   1.953   2.414   2.481
 6021SOL    HW229692   1.855   2.474   2.579
 6022SOL     OW29693   1.441   4.259  23.743
 6022SOL    HW129694   1.510   4.322  23.762
 6022SOL    HW229695   1.359   4.306  23.761
 6023SOL     OW29696   4.206   2.766  22.763
 6023SOL    HW129697   4.230   2.676  22.785
 6023SOL    HW229698   4.148   2.758  22.688
 6024SOL     OW29699   1.271   1.290   4.197
 6024SOL    HW129700   1.258   1.332   4.112
 6024SOL    HW229701   1.362   1.261   4.196
 6025SOL     OW29702   0.945   3.317  23.080
 6025SOL    HW129703   0.936   3.345  23.171
 6025SOL    HW229704   0.869   3.354  23.036
 6026SOL     OW29705   1.690   2.905  22.322
 6026SOL    HW129706   1.778   2.937  22.344
 6026SOL    HW229707   1.697   2.810  22.329
 6027SOL     OW29708   4.258   4.083  10.954
 6027SOL    HW129709   4.275   3.992  10.930
 6027SOL    HW229710   4.162   4.089  10.956
 6028SOL     OW29711   2.860   0.335   3.556
 6028SOL    HW129712   2.769   0.312   3.575
 6028SOL    HW229713   2.878   0.293   3.472
 6029SOL     OW29714   2.824   1.871  17.683
 6029SOL    HW129715   2.800   1.887  17.775
 6029SOL    HW229716   2.821   1.776  17.673
 6030SOL     OW29717   4.170   1.680  25.746
 6030SOL    HW129718   4.165   1.613  25.814
 6030SOL    HW229719   4.083   1.680  25.706
 6031SOL     OW29720   2.482   3.861  18.532
 6031SOL    HW129721   2.499   3.804  18.457
 6031SOL    HW229722   2.504   3.949  18.502
 6032SOL     OW29723   0.219   2.314  23.471
 6032SOL    HW129724   0.225   2.313  23.567
 6032SOL    HW229725   0.310   2.315  23.441
 6033SOL     OW29726   4.479   3.048  23.945
 6033SOL    HW129727   4.481   2.998  23.864
 6033SOL    HW229728   4.428   2.993  24.005
 6034SOL     OW29729   1.475   4.607  20.616
 6034SOL    HW129730   1.446   4.578  20.530
 6034SOL    HW229731   1.399   4.651  20.654
 6035SOL     OW29732   0.198   4.375  23.351
 6035SOL    HW129733   0.249   4.442  23.397
 6035SOL    HW229734   0.197   4.300  23.410
 6036SOL     OW29735   1.435   3.852  27.045
 6036SOL    HW129736   1.494   3.928  27.051
 6036SOL    HW229737   1.460   3.809  26.963
 6037SOL     OW29738   0.922   1.043   8.043
 6037SOL    HW129739   0.977   0.978   8.088
 6037SOL    HW229740   0.843   0.995   8.019
 6038SOL     OW29741   4.575   1.689  25.463
 6038SOL    HW129742   4.520   1.638  25.523
 6038SOL    HW229743   4.645   1.628  25.438
 6039SOL     OW29744   2.298   0.095   7.600
 6039SOL    HW129745   2.352   0.054   7.533
 6039SOL    HW229746   2.302   0.035   7.675
 6040SOL     OW29747   0.123   2.966   5.397
 6040SOL    HW129748   0.197   2.945   5.341
 6040SOL    HW229749   0.157   3.031   5.459
 6041SOL     OW29750   0.982   1.338   4.048
 6041SOL    HW129751   0.930   1.382   3.981
 6041SOL    HW229752   0.979   1.398   4.123
 6042SOL     OW29753   1.036   1.820   4.865
 6042SOL    HW129754   0.957   1.769   4.878
 6042SOL    HW229755   1.069   1.836   4.954
 6043SOL     OW29756   3.654   2.628   5.256
 6043SOL    HW129757   3.695   2.623   5.170
 6043SOL    HW229758   3.636   2.537   5.280
 6044SOL     OW29759   0.899   1.330  24.490
 6044SOL    HW129760   0.885   1.271  24.415
 6044SOL    HW229761   0.993   1.342  24.493
 6045SOL     OW29762   3.723   0.904   8.511
 6045SOL    HW129763   3.793   0.927   8.572
 6045SOL    HW229764   3.663   0.850   8.562
 6046SOL     OW29765   0.618   0.047  26.782
 6046SOL    HW129766   0.578   4.744  26.767
 6046SOL    HW229767   0.661   0.068  26.699
 6047SOL     OW29768   0.729   4.770  20.412
 6047SOL    HW129769   0.781   0.058  20.450
 6047SOL    HW229770   0.775   4.745  20.332
 6048SOL     OW29771   4.093   2.358   6.158
 6048SOL    HW129772   4.172   2.386   6.204
 6048SOL    HW229773   4.087   2.416   6.082
 6049SOL     OW29774   0.847   2.373  24.519
 6049SOL    HW129775   0.914   2.418  24.468
 6049SOL    HW229776   0.853   2.282  24.491
 6050SOL     OW29777   3.751   1.595   2.081
 6050SOL    HW129778   3.745   1.518   2.137
 6050SOL    HW229779   3.674   1.591   2.025
 6051SOL     OW29780   4.037   0.996  28.303
 6051SOL    HW129781   4.072   0.920  28.349
 6051SOL    HW229782   3.942   0.987  28.310
 6052SOL     OW29783   2.396   2.367   8.363
 6052SOL    HW129784   2.411   2.406   8.449
 6052SOL    HW229785   2.435   2.280   8.369
 6053SOL     OW29786   4.367   1.473   0.490
 6053SOL    HW129787   4.409   1.525   0.422
 6053SOL    HW229788   4.291   1.434   0.448
 6054SOL     OW29789   3.795   2.059  22.699
 6054SOL    HW129790   3.758   2.052  22.787
 6054SOL    HW229791   3.739   2.124  22.656
 6055SOL     OW29792   1.320   3.624  21.111
 6055SOL    HW129793   1.308   3.555  21.046
 6055SOL    HW229794   1.275   3.700  21.074
 6056SOL     OW29795   0.027   2.313   4.716
 6056SOL    HW129796   0.025   2.281   4.626
 6056SOL    HW229797   4.717   2.329   4.737
 6057SOL     OW29798   3.751   2.191  20.563
 6057SOL    HW129799   3.805   2.262  20.530
 6057SOL    HW229800   3.790   2.167  20.647
 6058SOL     OW29801   2.188   3.815  23.715
 6058SOL    HW129802   2.267   3.762  23.710
 6058SOL    HW229803   2.182   3.857  23.628
 6059SOL     OW29804   2.809   2.943   4.392
 6059SOL    HW129805   2.869   2.970   4.461
 6059SOL    HW229806   2.821   3.009   4.323
 6060SOL     OW29807   1.559   2.590  27.678
 6060SOL    HW129808   1.540   2.498  27.698
 6060SOL    HW229809   1.604   2.587  27.594
 6061SOL     OW29810   3.360   3.382  11.176
 6061SOL    HW129811   3.386   3.292  11.193
 6061SOL    HW229812   3.264   3.382  11.187
 6062SOL     OW29813   3.257   3.216  22.371
 6062SOL    HW129814   3.173   3.224  22.326
 6062SOL    HW229815   3.233   3.194  22.461
 6063SOL     OW29816   3.279   1.022  23.888
 6063SOL    HW129817   3.342   0.955  23.862
 6063SOL    HW229818   3.332   1.094  23.922
 6064SOL     OW29819   4.433   3.288   5.214
 6064SOL    HW129820   4.452   3.211   5.161
 6064SOL    HW229821   4.494   3.355   5.184
 6065SOL     OW29822   4.754   3.130  23.391
 6065SOL    HW129823   4.714   3.216  23.400
 6065SOL    HW229824   4.756   3.114  23.297
 6066SOL     OW29825   0.909   2.825  27.583
 6066SOL    HW129826   0.886   2.918  27.575
 6066SOL    HW229827   1.003   2.825  27.596
 6067SOL     OW29828   0.088   1.908  23.033
 6067SOL    HW129829   0.181   1.889  23.018
 6067SOL    HW229830   0.066   1.972  22.965
 6068SOL     OW29831   0.731   0.607   1.829
 6068SOL    HW129832   0.650   0.599   1.779
 6068SOL    HW229833   0.727   0.695   1.867
 6069SOL     OW29834   3.385   2.268  17.560
 6069SOL    HW129835   3.290   2.270  17.554
 6069SOL    HW229836   3.410   2.182  17.525
 6070SOL     OW29837   0.468   1.073   0.632
 6070SOL    HW129838   0.555   1.043   0.607
 6070SOL    HW229839   0.474   1.088   0.727
 6071SOL     OW29840   2.919   1.058   9.360
 6071SOL    HW129841   2.898   1.130   9.419
 6071SOL    HW229842   2.923   0.980   9.416
 6072SOL     OW29843   0.283   0.286   7.179
 6072SOL    HW129844   0.375   0.299   7.159
 6072SOL    HW229845   0.248   0.242   7.102
 6073SOL     OW29846   3.140   0.468   3.173
 6073SOL    HW129847   3.189   0.506   3.099
 6073SOL    HW229848   3.119   0.542   3.229
 6074SOL     OW29849   0.490   2.220   7.927
 6074SOL    HW129850   0.485   2.172   8.010
 6074SOL    HW229851   0.400   2.222   7.896
 6075SOL     OW29852   4.573   2.225   8.722
 6075SOL    HW129853   4.479   2.242   8.729
 6075SOL    HW229854   4.613   2.312   8.714
 6076SOL     OW29855   1.022   3.638   1.490
 6076SOL    HW129856   0.946   3.581   1.499
 6076SOL    HW229857   1.009   3.683   1.407
 6077SOL     OW29858   4.717   4.540  23.333
 6077SOL    HW129859   4.685   4.540  23.423
 6077SOL    HW229860   0.024   4.505  23.339
 6078SOL     OW29861   0.802   4.420  23.175
 6078SOL    HW129862   0.726   4.410  23.232
 6078SOL    HW229863   0.872   4.451  23.233
 6079SOL     OW29864   2.900   0.913  25.808
 6079SOL    HW129865   2.905   0.824  25.773
 6079SOL    HW229866   2.960   0.963  25.752
 6080SOL     OW29867   2.924   0.034   6.220
 6080SOL    HW129868   2.986   4.763   6.270
 6080SOL    HW229869   2.933   0.122   6.257
 6081SOL     OW29870   0.895   2.551  21.695
 6081SOL    HW129871   0.948   2.493  21.640
 6081SOL    HW229872   0.806   2.543  21.660
 6082SOL     OW29873   4.031   2.038   8.145
 6082SOL    HW129874   4.056   1.958   8.098
 6082SOL    HW229875   4.007   2.007   8.233
 6083SOL     OW29876   2.093   3.544  20.534
 6083SOL    HW129877   2.161   3.497  20.582
 6083SOL    HW229878   2.011   3.522  20.580
 6084SOL     OW29879   1.596   1.550  21.359
 6084SOL    HW129880   1.629   1.570  21.271
 6084SOL    HW229881   1.581   1.456  21.358
 6085SOL     OW29882   2.135   1.366   1.295
 6085SOL    HW129883   2.179   1.364   1.210
 6085SOL    HW229884   2.179   1.300   1.347
 6086SOL     OW29885   2.856   4.745  26.938
 6086SOL    HW129886   2.928   4.737  27.001
 6086SOL    HW229887   2.781   4.774  26.991
 6087SOL     OW29888   3.943   2.710   7.650
 6087SOL    HW129889   3.887   2.633   7.648
 6087SOL    HW229890   3.894   2.775   7.700
 6088SOL     OW29891   4.431   0.180  26.877
 6088SOL    HW129892   4.455   0.101  26.925
 6088SOL    HW229893   4.506   0.195  26.818
 6089SOL     OW29894   3.285   0.874   4.485
 6089SOL    HW129895   3.223   0.873   4.558
 6089SOL    HW229896   3.319   0.963   4.483
 6090SOL     OW29897   2.622   2.855  27.993
 6090SOL    HW129898   2.659   2.780  27.946
 6090SOL    HW229899   2.530   2.857  27.966
 6091SOL     OW29900   0.782   4.236   8.697
 6091SOL    HW129901   0.869   4.268   8.720
 6091SOL    HW229902   0.741   4.309   8.651
 6092SOL     OW29903   0.589   3.176  27.590
 6092SOL    HW129904   0.578   3.271  27.589
 6092SOL    HW229905   0.509   3.142  27.551
 6093SOL     OW29906   2.092   1.307  24.239
 6093SOL    HW129907   2.152   1.238  24.268
 6093SOL    HW229908   2.150   1.373  24.200
 6094SOL     OW29909   4.126   2.177  22.646
 6094SOL    HW129910   4.214   2.202  22.619
 6094SOL    HW229911   4.095   2.119  22.577
 6095SOL     OW29912   0.693   2.690   7.928
 6095SOL    HW129913   0.645   2.607   7.936
 6095SOL    HW229914   0.711   2.715   8.018
 6096SOL     OW29915   4.278   0.493  23.719
 6096SOL    HW129916   4.267   0.446  23.637
 6096SOL    HW229917   4.368   0.527  23.715
 6097SOL     OW29918   4.229   1.559  21.661
 6097SOL    HW129919   4.301   1.496  21.659
 6097SOL    HW229920   4.165   1.524  21.599
 6098SOL     OW29921   2.804   1.776  25.861
 6098SOL    HW129922   2.725   1.744  25.905
 6098SOL    HW229923   2.771   1.824  25.785
 6099SOL     OW29924   4.599   3.481   5.099
 6099SOL    HW129925   4.693   3.483   5.083
 6099SOL    HW229926   4.563   3.548   5.041
 6100SOL     OW29927   1.064   4.726   5.944
 6100SOL    HW129928   0.987   4.669   5.948
 6100SOL    HW229929   1.079   4.753   6.034
 6101SOL     OW29930   2.248   4.010   8.497
 6101SOL    HW129931   2.274   3.969   8.580
 6101SOL    HW229932   2.203   4.091   8.523
 6102SOL     OW29933   2.136   3.292   1.806
 6102SOL    HW129934   2.043   3.294   1.782
 6102SOL    HW229935   2.169   3.379   1.781
 6103SOL     OW29936   1.562   2.138   2.259
 6103SOL    HW129937   1.619   2.169   2.189
 6103SOL    HW229938   1.482   2.191   2.250
 6104SOL     OW29939   1.752   3.425   6.244
 6104SOL    HW129940   1.663   3.402   6.274
 6104SOL    HW229941   1.785   3.484   6.312
 6105SOL     OW29942   1.540   3.626   2.843
 6105SOL    HW129943   1.592   3.630   2.923
 6105SOL    HW229944   1.468   3.567   2.864
 6106SOL     OW29945   4.154   2.111  20.306
 6106SOL    HW129946   4.216   2.042  20.282
 6106SOL    HW229947   4.091   2.112  20.235
 6107SOL     OW29948   3.582   3.528   5.743
 6107SOL    HW129949   3.673   3.518   5.772
 6107SOL    HW229950   3.531   3.476   5.805
 6108SOL     OW29951   1.023   0.114   2.591
 6108SOL    HW129952   1.096   0.060   2.561
 6108SOL    HW229953   0.966   0.122   2.515
 6109SOL     OW29954   2.650   3.336   7.651
 6109SOL    HW129955   2.631   3.315   7.742
 6109SOL    HW229956   2.744   3.321   7.642
 6110SOL     OW29957   4.099   3.327  22.525
 6110SOL    HW129958   4.022   3.275  22.504
 6110SOL    HW229959   4.167   3.263  22.545
 6111SOL     OW29960   1.200   0.484  26.479
 6111SOL    HW129961   1.197   0.391  26.498
 6111SOL    HW229962   1.145   0.495  26.401
 6112SOL     OW29963   0.170   0.535  25.337
 6112SOL    HW129964   0.264   0.521  25.328
 6112SOL    HW229965   0.142   0.470  25.402
 6113SOL     OW29966   4.164   3.974  21.534
 6113SOL    HW129967   4.239   3.952  21.478
 6113SOL    HW229968   4.100   3.904  21.516
 6114SOL     OW29969   1.627   1.617   3.234
 6114SOL    HW129970   1.716   1.599   3.266
 6114SOL    HW229971   1.640   1.679   3.162
 6115SOL     OW29972   0.151   2.045  11.054
 6115SOL    HW129973   0.181   2.135  11.061
 6115SOL    HW229974   0.093   2.032  11.128
 6116SOL     OW29975   0.833   0.944  25.692
 6116SOL    HW129976   0.872   0.891  25.761
 6116SOL    HW229977   0.782   1.010  25.738
 6117SOL     OW29978   1.157   2.661   4.421
 6117SOL    HW129979   1.193   2.669   4.332
 6117SOL    HW229980   1.077   2.712   4.419
 6118SOL     OW29981   0.086   2.229   0.339
 6118SOL    HW129982   0.019   2.173   0.299
 6118SOL    HW229983   0.038   2.282   0.403
 6119SOL     OW29984   2.792   3.889   2.783
 6119SOL    HW129985   2.838   3.915   2.863
 6119SOL    HW229986   2.841   3.931   2.713
 6120SOL     OW29987   3.861   3.622  22.999
 6120SOL    HW129988   3.785   3.607  22.943
 6120SOL    HW229989   3.857   3.552  23.064
 6121SOL     OW29990   3.371   1.210   0.110
 6121SOL    HW129991   3.369   1.293   0.063
 6121SOL    HW229992   3.457   1.208   0.151
 6122SOL     OW29993   3.758   1.110   6.905
 6122SOL    HW129994   3.716   1.024   6.896
 6122SOL    HW229995   3.711   1.151   6.978
 6123SOL     OW29996   0.718   4.436   8.515
 6123SOL    HW129997   0.639   4.423   8.462
 6123SOL    HW229998   0.791   4.419   8.455
 6124SOL     OW29999   0.612   2.493  26.031
 6124SOL    HW130000   0.522   2.502  25.997
 6124SOL    HW230001   0.648   2.418  25.982
 6125SOL     OW30002   3.148   1.924  17.584
 6125SOL    HW130003   3.061   1.946  17.616
 6125SOL    HW230004   3.151   1.961  17.496
 6126SOL     OW30005   1.636   3.702   3.548
 6126SOL    HW130006   1.577   3.776   3.565
 6126SOL    HW230007   1.716   3.743   3.515
 6127SOL     OW30008   4.440   0.788   7.529
 6127SOL    HW130009   4.451   0.694   7.548
 6127SOL    HW230010   4.350   0.795   7.497
 6128SOL     OW30011   2.313   3.071   2.143
 6128SOL    HW130012   2.377   3.019   2.095
 6128SOL    HW230013   2.362   3.145   2.177
 6129SOL     OW30014   2.229   3.920   3.773
 6129SOL    HW130015   2.253   3.846   3.717
 6129SOL    HW230016   2.135   3.931   3.760
 6130SOL     OW30017   0.418   4.218  21.029
 6130SOL    HW130018   0.476   4.252  21.098
 6130SOL    HW230019   0.340   4.274  21.034
 6131SOL     OW30020   4.406   0.893  26.373
 6131SOL    HW130021   4.313   0.895  26.348
 6131SOL    HW230022   4.425   0.983  26.400
 6132SOL     OW30023   2.682   0.245   9.151
 6132SOL    HW130024   2.756   0.295   9.188
 6132SOL    HW230025   2.722   0.165   9.117
 6133SOL     OW30026   2.062   1.182  23.376
 6133SOL    HW130027   1.968   1.178  23.364
 6133SOL    HW230028   2.078   1.136  23.458
 6134SOL     OW30029   3.394   3.783  23.117
 6134SOL    HW130030   3.486   3.778  23.088
 6134SOL    HW230031   3.390   3.861  23.172
 6135SOL     OW30032   0.015   0.621   6.940
 6135SOL    HW130033   0.034   0.572   6.860
 6135SOL    HW230034   0.093   0.675   6.954
 6136SOL     OW30035   0.189   3.594  24.898
 6136SOL    HW130036   0.144   3.668  24.940
 6136SOL    HW230037   0.145   3.583  24.814
 6137SOL     OW30038   2.014   3.162  22.610
 6137SOL    HW130039   2.029   3.072  22.579
 6137SOL    HW230040   2.093   3.185  22.658
 6138SOL     OW30041   3.851   2.725  26.178
 6138SOL    HW130042   3.782   2.663  26.203
 6138SOL    HW230043   3.926   2.669  26.156
 6139SOL     OW30044   0.412   3.006   7.800
 6139SOL    HW130045   0.442   3.002   7.891
 6139SOL    HW230046   0.439   2.922   7.763
 6140SOL     OW30047   3.188   3.419   7.190
 6140SOL    HW130048   3.123   3.471   7.143
 6140SOL    HW230049   3.272   3.455   7.161
 6141SOL     OW30050   2.576   0.581   5.465
 6141SOL    HW130051   2.566   0.524   5.540
 6141SOL    HW230052   2.638   0.648   5.494
 6142SOL     OW30053   4.198   3.112   4.537
 6142SOL    HW130054   4.210   3.085   4.628
 6142SOL    HW230055   4.154   3.037   4.496
 6143SOL     OW30056   4.663   0.966   1.550
 6143SOL    HW130057   4.644   1.009   1.467
 6143SOL    HW230058   4.594   0.900   1.560
 6144SOL     OW30059   2.711   1.770  24.859
 6144SOL    HW130060   2.749   1.739  24.941
 6144SOL    HW230061   2.784   1.809  24.811
 6145SOL     OW30062   2.682   2.030   1.738
 6145SOL    HW130063   2.620   2.042   1.810
 6145SOL    HW230064   2.759   2.080   1.764
 6146SOL     OW30065   0.895   1.796  18.600
 6146SOL    HW130066   0.931   1.865  18.544
 6146SOL    HW230067   0.930   1.714  18.563
 6147SOL     OW30068   1.727   1.423  25.591
 6147SOL    HW130069   1.686   1.459  25.513
 6147SOL    HW230070   1.662   1.436  25.661
 6148SOL     OW30071   0.308   2.693   8.622
 6148SOL    HW130072   0.280   2.756   8.688
 6148SOL    HW230073   0.314   2.744   8.541
 6149SOL     OW30074   2.656   3.552  10.045
 6149SOL    HW130075   2.676   3.625   9.986
 6149SOL    HW230076   2.623   3.594  10.125
 6150SOL     OW30077   2.968   2.638   1.082
 6150SOL    HW130078   3.033   2.704   1.105
 6150SOL    HW230079   2.909   2.636   1.158
 6151SOL     OW30080   4.746   1.581   4.829
 6151SOL    HW130081   0.010   1.500   4.810
 6151SOL    HW230082   4.710   1.569   4.917
 6152SOL     OW30083   4.115   1.946  19.027
 6152SOL    HW130084   4.023   1.969  19.013
 6152SOL    HW230085   4.164   2.021  18.992
 6153SOL     OW30086   1.406   0.867  24.034
 6153SOL    HW130087   1.418   0.898  24.124
 6153SOL    HW230088   1.376   0.777  24.044
 6154SOL     OW30089   1.677   3.778  22.894
 6154SOL    HW130090   1.659   3.858  22.845
 6154SOL    HW230091   1.677   3.709  22.827
 6155SOL     OW30092   3.787   4.777   1.737
 6155SOL    HW130093   3.704   4.758   1.693
 6155SOL    HW230094   3.805   0.086   1.716
 6156SOL     OW30095   4.617   0.327   3.369
 6156SOL    HW130096   4.596   0.411   3.328
 6156SOL    HW230097   4.658   0.351   3.452
 6157SOL     OW30098   0.228   2.011  22.049
 6157SOL    HW130099   0.298   1.966  22.001
 6157SOL    HW230100   0.223   1.965  22.133
 6158SOL     OW30101   4.664   3.387  25.224
 6158SOL    HW130102   4.641   3.454  25.288
 6158SOL    HW230103   4.590   3.385  25.163
 6159SOL     OW30104   4.777   0.837  27.194
 6159SOL    HW130105   4.773   0.930  27.212
 6159SOL    HW230106   0.070   0.806  27.245
 6160SOL     OW30107   4.122   1.562  11.908
 6160SOL    HW130108   4.199   1.560  11.965
 6160SOL    HW230109   4.084   1.475  11.916
 6161SOL     OW30110   2.578   0.922  25.440
 6161SOL    HW130111   2.533   0.928  25.524
 6161SOL    HW230112   2.531   0.983  25.383
 6162SOL     OW30113   3.026   2.783  25.952
 6162SOL    HW130114   3.054   2.738  25.872
 6162SOL    HW230115   2.937   2.812  25.933
 6163SOL     OW30116   0.423   0.073   9.876
 6163SOL    HW130117   0.470   0.149   9.911
 6163SOL    HW230118   0.440   0.003   9.938
 6164SOL     OW30119   2.180   0.911   3.898
 6164SOL    HW130120   2.104   0.858   3.875
 6164SOL    HW230121   2.157   0.953   3.981
 6165SOL     OW30122   3.635   0.405  24.327
 6165SOL    HW130123   3.579   0.386  24.252
 6165SOL    HW230124   3.582   0.383  24.403
 6166SOL     OW30125   3.151   3.707  23.321
 6166SOL    HW130126   3.065   3.707  23.363
 6166SOL    HW230127   3.169   3.799  23.303
 6167SOL     OW30128   4.159   1.148  26.124
 6167SOL    HW130129   4.191   1.061  26.147
 6167SOL    HW230130   4.149   1.193  26.208
 6168SOL     OW30131   3.979   1.197  20.196
 6168SOL    HW130132   4.035   1.258  20.243
 6168SOL    HW230133   3.901   1.248  20.174
 6169SOL     OW30134   1.784   1.132  21.207
 6169SOL    HW130135   1.711   1.185  21.239
 6169SOL    HW230136   1.837   1.194  21.157
 6170SOL     OW30137   4.178   1.364   8.672
 6170SOL    HW130138   4.152   1.330   8.758
 6170SOL    HW230139   4.199   1.456   8.688
 6171SOL     OW30140   1.175   4.026   5.986
 6171SOL    HW130141   1.251   3.986   6.027
 6171SOL    HW230142   1.207   4.110   5.952
 6172SOL     OW30143   3.411   2.263  21.433
 6172SOL    HW130144   3.450   2.322  21.498
 6172SOL    HW230145   3.373   2.192  21.485
 6173SOL     OW30146   3.863   3.562  19.969
 6173SOL    HW130147   3.858   3.655  19.946
 6173SOL    HW230148   3.908   3.561  20.054
 6174SOL     OW30149   3.751   1.794   8.443
 6174SOL    HW130150   3.814   1.747   8.496
 6174SOL    HW230151   3.775   1.772   8.353
 6175SOL     OW30152   0.697   2.824  20.527
 6175SOL    HW130153   0.684   2.891  20.460
 6175SOL    HW230154   0.786   2.839  20.559
 6176SOL     OW30155   0.347   0.095   8.178
 6176SOL    HW130156   0.298   0.013   8.188
 6176SOL    HW230157   0.372   0.097   8.086
 6177SOL     OW30158   2.521   0.942  24.884
 6177SOL    HW130159   2.576   0.865  24.868
 6177SOL    HW230160   2.446   0.908  24.933
 6178SOL     OW30161   0.893   4.398   4.608
 6178SOL    HW130162   0.800   4.383   4.588
 6178SOL    HW230163   0.931   4.310   4.612
 6179SOL     OW30164   0.670   3.702   7.357
 6179SOL    HW130165   0.699   3.792   7.371
 6179SOL    HW230166   0.748   3.649   7.375
 6180SOL     OW30167   2.931   1.736   6.046
 6180SOL    HW130168   2.977   1.710   6.126
 6180SOL    HW230169   2.895   1.823   6.066
 6181SOL     OW30170   4.404   1.483  20.839
 6181SOL    HW130171   4.490   1.476  20.798
 6181SOL    HW230172   4.411   1.430  20.919
 6182SOL     OW30173   2.906   1.821   1.630
 6182SOL    HW130174   2.868   1.846   1.714
 6182SOL    HW230175   2.902   1.725   1.629
 6183SOL     OW30176   2.806   0.421  11.951
 6183SOL    HW130177   2.715   0.403  11.972
 6183SOL    HW230178   2.802   0.493  11.887
 6184SOL     OW30179   4.695   1.445   2.651
 6184SOL    HW130180   4.684   1.486   2.737
 6184SOL    HW230181   4.675   1.514   2.589
 6185SOL     OW30182   4.265   1.099   1.925
 6185SOL    HW130183   4.329   1.126   1.859
 6185SOL    HW230184   4.180   1.122   1.888
 6186SOL     OW30185   3.783   2.953  24.224
 6186SOL    HW130186   3.739   2.983  24.303
 6186SOL    HW230187   3.855   3.014  24.211
 6187SOL     OW30188   0.545   4.496   2.614
 6187SOL    HW130189   0.634   4.488   2.580
 6187SOL    HW230190   0.556   4.532   2.702
 6188SOL     OW30191   1.246   2.452  21.812
 6188SOL    HW130192   1.193   2.474  21.736
 6188SOL    HW230193   1.220   2.514  21.879
 6189SOL     OW30194   3.649   3.943   1.093
 6189SOL    HW130195   3.662   3.929   1.000
 6189SOL    HW230196   3.556   3.928   1.107
 6190SOL     OW30197   4.300   1.515   5.093
 6190SOL    HW130198   4.313   1.458   5.017
 6190SOL    HW230199   4.233   1.578   5.065
 6191SOL     OW30200   3.205   3.514   3.383
 6191SOL    HW130201   3.124   3.520   3.331
 6191SOL    HW230202   3.268   3.567   3.335
 6192SOL     OW30203   3.758   0.255   1.449
 6192SOL    HW130204   3.708   0.202   1.386
 6192SOL    HW230205   3.842   0.211   1.456
 6193SOL     OW30206   0.015   0.214  19.673
 6193SOL    HW130207   4.752   0.297  19.688
 6193SOL    HW230208   0.106   0.233  19.692
 6194SOL     OW30209   4.156   1.916  24.782
 6194SOL    HW130210   4.230   1.857  24.794
 6194SOL    HW230211   4.101   1.901  24.859
 6195SOL     OW30212   3.069   4.261   5.537
 6195SOL    HW130213   3.011   4.338   5.532
 6195SOL    HW230214   3.156   4.295   5.517
 6196SOL     OW30215   3.091   0.300   5.629
 6196SOL    HW130216   3.103   0.205   5.622
 6196SOL    HW230217   3.000   0.315   5.605
 6197SOL     OW30218   0.433   3.561  25.808
 6197SOL    HW130219   0.436   3.490  25.743
 6197SOL    HW230220   0.407   3.638  25.757
 6198SOL     OW30221   2.415   3.612  20.502
 6198SOL    HW130222   2.356   3.668  20.452
 6198SOL    HW230223   2.498   3.616  20.454
 6199SOL     OW30224   4.374   1.992  27.938
 6199SOL    HW130225   4.310   1.951  27.996
 6199SOL    HW230226   4.453   1.940  27.947
 6200SOL     OW30227   3.315   0.055  18.806
 6200SOL    HW130228   3.312   0.111  18.884
 6200SOL    HW230229   3.352   0.110  18.738
 6201SOL     OW30230   0.816   0.398   5.094
 6201SOL    HW130231   0.844   0.386   5.185
 6201SOL    HW230232   0.756   0.472   5.097
 6202SOL     OW30233   1.203   1.330  27.425
 6202SOL    HW130234   1.182   1.399  27.363
 6202SOL    HW230235   1.229   1.256  27.371
 6203SOL     OW30236   0.432   0.140   3.993
 6203SOL    HW130237   0.394   0.053   3.982
 6203SOL    HW230238   0.380   0.180   4.063
 6204SOL     OW30239   4.639   3.709  18.974
 6204SOL    HW130240   4.712   3.754  18.933
 6204SOL    HW230241   4.565   3.723  18.915
 6205SOL     OW30242   2.919   2.599   2.499
 6205SOL    HW130243   2.867   2.587   2.420
 6205SOL    HW230244   2.862   2.647   2.558
 6206SOL     OW30245   4.130   0.845   9.600
 6206SOL    HW130246   4.157   0.900   9.674
 6206SOL    HW230247   4.137   0.756   9.633
 6207SOL     OW30248   4.299   4.686   6.525
 6207SOL    HW130249   4.352   4.753   6.567
 6207SOL    HW230250   4.226   4.733   6.486
 6208SOL     OW30251   4.479   0.101   6.633
 6208SOL    HW130252   4.497   0.081   6.725
 6208SOL    HW230253   4.397   0.149   6.634
 6209SOL     OW30254   0.785   2.193   2.015
 6209SOL    HW130255   0.743   2.200   2.101
 6209SOL    HW230256   0.720   2.229   1.954
 6210SOL     OW30257   4.640   0.594   4.364
 6210SOL    HW130258   4.614   0.678   4.402
 6210SOL    HW230259   4.637   0.532   4.437
 6211SOL     OW30260   4.539   4.643   6.274
 6211SOL    HW130261   4.444   4.656   6.266
 6211SOL    HW230262   4.576   4.708   6.214
 6212SOL     OW30263   2.785   2.993   5.483
 6212SOL    HW130264   2.722   2.975   5.414
 6212SOL    HW230265   2.752   2.944   5.559
 6213SOL     OW30266   3.110   2.246  21.339
 6213SOL    HW130267   3.158   2.192  21.402
 6213SOL    HW230268   3.056   2.183  21.291
 6214SOL     OW30269   4.651   1.194   6.559
 6214SOL    HW130270   4.662   1.238   6.475
 6214SOL    HW230271   4.629   1.264   6.620
 6215SOL     OW30272   4.700   1.855   7.747
 6215SOL    HW130273   4.699   1.857   7.843
 6215SOL    HW230274   4.609   1.866   7.721
 6216SOL     OW30275   0.110   4.444   4.881
 6216SOL    HW130276   0.024   4.421   4.916
 6216SOL    HW230277   0.171   4.384   4.925
 6217SOL     OW30278   3.254   4.423   3.391
 6217SOL    HW130279   3.212   4.384   3.468
 6217SOL    HW230280   3.300   4.499   3.426
 6218SOL     OW30281   4.406   2.664  20.831
 6218SOL    HW130282   4.376   2.748  20.798
 6218SOL    HW230283   4.416   2.609  20.753
 6219SOL     OW30284   4.250   4.664   7.150
 6219SOL    HW130285   4.291   4.740   7.190
 6219SOL    HW230286   4.156   4.675   7.167
 6220SOL     OW30287   1.274   4.019  23.193
 6220SOL    HW130288   1.323   3.944  23.161
 6220SOL    HW230289   1.193   4.020  23.142
 6221SOL     OW30290   1.252   3.511   7.404
 6221SOL    HW130291   1.299   3.440   7.447
 6221SOL    HW230292   1.299   3.524   7.322
 6222SOL     OW30293   4.596   3.721   7.855
 6222SOL    HW130294   4.637   3.760   7.778
 6222SOL    HW230295   4.515   3.771   7.867
 6223SOL     OW30296   0.765   1.820   0.722
 6223SOL    HW130297   0.737   1.824   0.631
 6223SOL    HW230298   0.809   1.903   0.739
 6224SOL     OW30299   3.970   2.869  27.870
 6224SOL    HW130300   4.030   2.930  27.828
 6224SOL    HW230301   4.016   2.840  27.949
 6225SOL     OW30302   0.640   3.207  24.351
 6225SOL    HW130303   0.712   3.169  24.302
 6225SOL    HW230304   0.562   3.187  24.299
 6226SOL     OW30305   2.593   0.469   3.237
 6226SOL    HW130306   2.600   0.494   3.329
 6226SOL    HW230307   2.658   0.523   3.192
 6227SOL     OW30308   1.886   2.156   2.611
 6227SOL    HW130309   1.826   2.176   2.683
 6227SOL    HW230310   1.934   2.238   2.596
 6228SOL     OW30311   3.959   3.474  21.141
 6228SOL    HW130312   4.007   3.556  21.128
 6228SOL    HW230313   3.978   3.423  21.062
 6229SOL     OW30314   0.990   4.742  12.527
 6229SOL    HW130315   0.981   4.647  12.521
 6229SOL    HW230316   1.059   4.755  12.592
 6230SOL     OW30317   2.685   3.044   6.270
 6230SOL    HW130318   2.756   3.108   6.263
 6230SOL    HW230319   2.605   3.096   6.273
 6231SOL     OW30320   2.240   2.182  27.835
 6231SOL    HW130321   2.249   2.277  27.839
 6231SOL    HW230322   2.181   2.160  27.907
 6232SOL     OW30323   4.460   4.526  20.083
 6232SOL    HW130324   4.410   4.607  20.092
 6232SOL    HW230325   4.408   4.460  20.130
 6233SOL     OW30326   3.889   2.607  11.233
 6233SOL    HW130327   3.839   2.531  11.263
 6233SOL    HW230328   3.900   2.660  11.311
 6234SOL     OW30329   3.899   1.659   4.224
 6234SOL    HW130330   3.988   1.676   4.192
 6234SOL    HW230331   3.845   1.722   4.178
 6235SOL     OW30332   4.505   0.585   4.118
 6235SOL    HW130333   4.534   0.603   4.208
 6235SOL    HW230334   4.551   0.651   4.065
 6236SOL     OW30335   4.056   4.412  20.783
 6236SOL    HW130336   4.074   4.335  20.729
 6236SOL    HW230337   4.140   4.458  20.787
 6237SOL     OW30338   3.268   1.999   3.275
 6237SOL    HW130339   3.271   2.093   3.256
 6237SOL    HW230340   3.284   1.956   3.191
 6238SOL     OW30341   4.574   3.454  20.644
 6238SOL    HW130342   4.491   3.447  20.691
 6238SOL    HW230343   4.551   3.438  20.552
 6239SOL     OW30344   3.951   3.197  23.051
 6239SOL    HW130345   3.979   3.170  23.138
 6239SOL    HW230346   3.996   3.280  23.036
 6240SOL     OW30347   0.849   2.563   9.116
 6240SOL    HW130348   0.897   2.483   9.096
 6240SOL    HW230349   0.774   2.561   9.057
 6241SOL     OW30350   3.048   3.803  24.737
 6241SOL    HW130351   3.131   3.760  24.756
 6241SOL    HW230352   3.046   3.811  24.641
 6242SOL     OW30353   0.824   3.716   2.311
 6242SOL    HW130354   0.800   3.680   2.397
 6242SOL    HW230355   0.754   3.778   2.292
 6243SOL     OW30356   1.832   3.515   4.837
 6243SOL    HW130357   1.880   3.433   4.849
 6243SOL    HW230358   1.898   3.576   4.804
 6244SOL     OW30359   0.695   4.227  24.678
 6244SOL    HW130360   0.627   4.278  24.634
 6244SOL    HW230361   0.706   4.149  24.623
 6245SOL     OW30362   2.391   3.225   6.790
 6245SOL    HW130363   2.458   3.222   6.722
 6245SOL    HW230364   2.433   3.186   6.867
 6246SOL     OW30365   4.001   4.532   2.853
 6246SOL    HW130366   4.083   4.532   2.804
 6246SOL    HW230367   3.947   4.599   2.813
 6247SOL     OW30368   0.443   3.546   1.930
 6247SOL    HW130369   0.427   3.477   1.995
 6247SOL    HW230370   0.520   3.592   1.962
 6248SOL     OW30371   0.698   3.021   7.584
 6248SOL    HW130372   0.675   2.936   7.547
 6248SOL    HW230373   0.687   3.011   7.678
 6249SOL     OW30374   3.722   1.963   1.685
 6249SOL    HW130375   3.669   1.916   1.621
 6249SOL    HW230376   3.671   2.041   1.707
 6250SOL     OW30377   3.508   2.707   7.507
 6250SOL    HW130378   3.573   2.697   7.577
 6250SOL    HW230379   3.427   2.674   7.547
 6251SOL     OW30380   2.201   3.847   4.097
 6251SOL    HW130381   2.222   3.902   4.022
 6251SOL    HW230382   2.218   3.758   4.066
 6252SOL     OW30383   0.164   1.376  19.636
 6252SOL    HW130384   0.243   1.430  19.644
 6252SOL    HW230385   0.195   1.298  19.589
 6253SOL     OW30386   0.473   3.302   0.640
 6253SOL    HW130387   0.411   3.237   0.609
 6253SOL    HW230388   0.559   3.263   0.625
 6254SOL     OW30389   1.544   4.588  27.910
 6254SOL    HW130390   1.467   4.554  27.954
 6254SOL    HW230391   1.585   4.510  27.871
 6255SOL     OW30392   0.663   0.080   7.348
 6255SOL    HW130393   0.582   0.028   7.346
 6255SOL    HW230394   0.638   0.162   7.390
 6256SOL     OW30395   2.349   3.686   1.237
 6256SOL    HW130396   2.281   3.620   1.252
 6256SOL    HW230397   2.312   3.767   1.273
 6257SOL     OW30398   0.408   1.892   4.063
 6257SOL    HW130399   0.355   1.959   4.106
 6257SOL    HW230400   0.482   1.877   4.122
 6258SOL     OW30401   2.673   1.237   5.843
 6258SOL    HW130402   2.658   1.269   5.754
 6258SOL    HW230403   2.699   1.146   5.831
 6259SOL     OW30404   2.461   0.875  10.600
 6259SOL    HW130405   2.461   0.868  10.695
 6259SOL    HW230406   2.413   0.956  10.582
 6260SOL     OW30407   1.069   0.139  16.675
 6260SOL    HW130408   1.147   0.163  16.625
 6260SOL    HW230409   1.081   0.047  16.696
 6261SOL     OW30410   2.566   0.398   3.749
 6261SOL    HW130411   2.489   0.438   3.707
 6261SOL    HW230412   2.618   0.473   3.778
 6262SOL     OW30413   4.007   2.078   8.673
 6262SOL    HW130414   4.081   2.075   8.734
 6262SOL    HW230415   3.962   2.160   8.694
 6263SOL     OW30416   4.405   4.554  21.288
 6263SOL    HW130417   4.317   4.524  21.266
 6263SOL    HW230418   4.438   4.489  21.350
 6264SOL     OW30419   1.825   2.153   7.884
 6264SOL    HW130420   1.864   2.208   7.952
 6264SOL    HW230421   1.862   2.185   7.802
 6265SOL     OW30422   1.090   3.971  18.836
 6265SOL    HW130423   1.144   3.894  18.817
 6265SOL    HW230424   1.086   4.019  18.753
 6266SOL     OW30425   4.403   2.437   7.476
 6266SOL    HW130426   4.411   2.532   7.483
 6266SOL    HW230427   4.468   2.412   7.410
 6267SOL     OW30428   3.094   1.267   3.488
 6267SOL    HW130429   2.999   1.278   3.494
 6267SOL    HW230430   3.129   1.314   3.564
 6268SOL     OW30431   2.906   1.288   9.499
 6268SOL    HW130432   2.848   1.331   9.561
 6268SOL    HW230433   2.981   1.259   9.551
 6269SOL     OW30434   2.836   1.400   7.794
 6269SOL    HW130435   2.771   1.375   7.729
 6269SOL    HW230436   2.873   1.483   7.762
 6270SOL     OW30437   2.369   3.578  25.562
 6270SOL    HW130438   2.390   3.485  25.570
 6270SOL    HW230439   2.280   3.581  25.528
 6271SOL     OW30440   0.034   3.391  26.919
 6271SOL    HW130441   0.105   3.326  26.926
 6271SOL    HW230442   4.776   3.373  26.835
 6272SOL     OW30443   2.000   0.921  21.299
 6272SOL    HW130444   1.987   0.983  21.228
 6272SOL    HW230445   1.960   0.840  21.268
 6273SOL     OW30446   0.038   1.455  23.066
 6273SOL    HW130447   0.096   1.390  23.026
 6273SOL    HW230448   4.757   1.476  22.997
 6274SOL     OW30449   2.123   1.320  23.688
 6274SOL    HW130450   2.118   1.371  23.607
 6274SOL    HW230451   2.033   1.298  23.708
 6275SOL     OW30452   3.211   3.731   7.289
 6275SOL    HW130453   3.219   3.649   7.241
 6275SOL    HW230454   3.290   3.736   7.343
 6276SOL     OW30455   0.765   2.999   5.746
 6276SOL    HW130456   0.694   3.055   5.713
 6276SOL    HW230457   0.844   3.035   5.706
 6277SOL     OW30458   0.014   1.914   0.595
 6277SOL    HW130459   4.746   1.833   0.592
 6277SOL    HW230460   4.730   1.983   0.589
 6278SOL     OW30461   0.148   3.550  28.137
 6278SOL    HW130462   0.210   3.478  28.132
 6278SOL    HW230463   0.114   3.547  28.227
 6279SOL     OW30464   3.280   1.814  20.271
 6279SOL    HW130465   3.221   1.864  20.214
 6279SOL    HW230466   3.222   1.761  20.326
 6280SOL     OW30467   2.524   1.176   6.549
 6280SOL    HW130468   2.522   1.095   6.498
 6280SOL    HW230469   2.552   1.243   6.488
 6281SOL     OW30470   2.917   2.332  24.832
 6281SOL    HW130471   2.903   2.252  24.781
 6281SOL    HW230472   2.841   2.336  24.891
 6282SOL     OW30473   1.093   3.648   9.049
 6282SOL    HW130474   1.174   3.598   9.059
 6282SOL    HW230475   1.037   3.617   9.119
 6283SOL     OW30476   1.952   3.514   6.080
 6283SOL    HW130477   1.893   3.447   6.115
 6283SOL    HW230478   1.938   3.590   6.136
 6284SOL     OW30479   2.921   0.458  20.396
 6284SOL    HW130480   2.837   0.436  20.358
 6284SOL    HW230481   2.984   0.403  20.349
 6285SOL     OW30482   4.239   2.956  22.252
 6285SOL    HW130483   4.270   2.903  22.179
 6285SOL    HW230484   4.292   2.927  22.327
 6286SOL     OW30485   2.100   0.908  24.648
 6286SOL    HW130486   2.038   0.938  24.582
 6286SOL    HW230487   2.156   0.846  24.601
 6287SOL     OW30488   2.624   1.263  22.232
 6287SOL    HW130489   2.649   1.314  22.310
 6287SOL    HW230490   2.690   1.287  22.167
 6288SOL     OW30491   3.921   3.857  24.649
 6288SOL    HW130492   3.929   3.774  24.694
 6288SOL    HW230493   3.945   3.923  24.714
 6289SOL     OW30494   4.106   2.144   0.958
 6289SOL    HW130495   4.073   2.224   0.916
 6289SOL    HW230496   4.029   2.105   0.999
 6290SOL     OW30497   2.319   4.266  27.499
 6290SOL    HW130498   2.257   4.329  27.463
 6290SOL    HW230499   2.394   4.319  27.527
 6291SOL     OW30500   2.648   1.883  22.419
 6291SOL    HW130501   2.636   1.843  22.505
 6291SOL    HW230502   2.634   1.977  22.434
 6292SOL     OW30503   3.893   0.573   5.081
 6292SOL    HW130504   3.809   0.608   5.051
 6292SOL    HW230505   3.956   0.600   5.014
 6293SOL     OW30506   0.840   3.432   5.212
 6293SOL    HW130507   0.898   3.380   5.267
 6293SOL    HW230508   0.896   3.461   5.139
 6294SOL     OW30509   2.506   3.763  27.345
 6294SOL    HW130510   2.438   3.781  27.281
 6294SOL    HW230511   2.588   3.764  27.295
 6295SOL     OW30512   1.810   4.121  21.470
 6295SOL    HW130513   1.842   4.091  21.385
 6295SOL    HW230514   1.715   4.105  21.467
 6296SOL     OW30515   2.066   0.063   4.893
 6296SOL    HW130516   2.010   0.075   4.970
 6296SOL    HW230517   2.021   4.779   4.842
 6297SOL     OW30518   2.556   1.903  21.722
 6297SOL    HW130519   2.582   1.950  21.801
 6297SOL    HW230520   2.592   1.815  21.733
 6298SOL     OW30521   1.061   2.508  11.360
 6298SOL    HW130522   0.976   2.504  11.404
 6298SOL    HW230523   1.044   2.481  11.270
 6299SOL     OW30524   1.374   3.174   2.959
 6299SOL    HW130525   1.437   3.218   3.016
 6299SOL    HW230526   1.299   3.233   2.956
 6300SOL     OW30527   1.721   4.147   8.439
 6300SOL    HW130528   1.732   4.111   8.527
 6300SOL    HW230529   1.804   4.191   8.421
 6301SOL     OW30530   0.802   0.370   8.683
 6301SOL    HW130531   0.707   0.362   8.675
 6301SOL    HW230532   0.816   0.393   8.775
 6302SOL     OW30533   1.690   0.644  23.830
 6302SOL    HW130534   1.735   0.560  23.821
 6302SOL    HW230535   1.603   0.630  23.793
 6303SOL     OW30536   1.005   3.085  24.308
 6303SOL    HW130537   1.040   3.025  24.242
 6303SOL    HW230538   0.958   3.151  24.258
 6304SOL     OW30539   4.653   2.188   1.752
 6304SOL    HW130540   4.626   2.156   1.666
 6304SOL    HW230541   4.594   2.145   1.813
 6305SOL     OW30542   0.526   1.850   2.196
 6305SOL    HW130543   0.459   1.852   2.264
 6305SOL    HW230544   0.494   1.785   2.133
 6306SOL     OW30545   1.054   0.601   2.021
 6306SOL    HW130546   1.048   0.626   2.113
 6306SOL    HW230547   0.975   0.549   2.005
 6307SOL     OW30548   4.337   0.734  12.372
 6307SOL    HW130549   4.350   0.713  12.464
 6307SOL    HW230550   4.255   0.784  12.370
 6308SOL     OW30551   3.820   4.302   4.341
 6308SOL    HW130552   3.753   4.289   4.409
 6308SOL    HW230553   3.891   4.348   4.387
 6309SOL     OW30554   3.304   1.096   6.551
 6309SOL    HW130555   3.273   1.186   6.547
 6309SOL    HW230556   3.370   1.096   6.621
 6310SOL     OW30557   1.365   4.455  12.084
 6310SOL    HW130558   1.320   4.538  12.067
 6310SOL    HW230559   1.415   4.471  12.164
 6311SOL     OW30560   0.883   0.848  26.212
 6311SOL    HW130561   0.790   0.870  26.204
 6311SOL    HW230562   0.884   0.766  26.262
 6312SOL     OW30563   1.287   2.710  11.364
 6312SOL    HW130564   1.207   2.664  11.341
 6312SOL    HW230565   1.355   2.643  11.361
 6313SOL     OW30566   2.274   1.240   4.636
 6313SOL    HW130567   2.181   1.232   4.658
 6313SOL    HW230568   2.303   1.318   4.682
 6314SOL     OW30569   2.981   2.346   1.125
 6314SOL    HW130570   3.051   2.313   1.068
 6314SOL    HW230571   2.996   2.441   1.129
 6315SOL     OW30572   4.195   3.945  25.904
 6315SOL    HW130573   4.229   3.961  25.815
 6315SOL    HW230574   4.129   3.877  25.892
 6316SOL     OW30575   4.388   3.353  26.286
 6316SOL    HW130576   4.311   3.314  26.245
 6316SOL    HW230577   4.360   3.441  26.311
 6317SOL     OW30578   4.665   2.044   3.701
 6317SOL    HW130579   4.664   2.138   3.686
 6317SOL    HW230580   4.690   2.035   3.794
 6318SOL     OW30581   1.238   2.953  10.648
 6318SOL    HW130582   1.183   2.992  10.717
 6318SOL    HW230583   1.247   3.023  10.583
 6319SOL     OW30584   0.152   1.983  11.454
 6319SOL    HW130585   0.239   2.015  11.430
 6319SOL    HW230586   0.142   2.006  11.546
 6320SOL     OW30587   0.317   0.535  20.758
 6320SOL    HW130588   0.308   0.498  20.846
 6320SOL    HW230589   0.377   0.609  20.769
 6321SOL     OW30590   2.602   0.606  22.204
 6321SOL    HW130591   2.511   0.616  22.175
 6321SOL    HW230592   2.622   0.513  22.189
 6322SOL     OW30593   1.959   3.995   7.610
 6322SOL    HW130594   1.875   4.019   7.572
 6322SOL    HW230595   1.939   3.963   7.698
 6323SOL     OW30596   1.168   1.202   5.988
 6323SOL    HW130597   1.184   1.155   6.070
 6323SOL    HW230598   1.236   1.170   5.928
 6324SOL     OW30599   4.237   2.532  25.373
 6324SOL    HW130600   4.291   2.592  25.321
 6324SOL    HW230601   4.225   2.455  25.318
 6325SOL     OW30602   3.562   1.480  25.163
 6325SOL    HW130603   3.516   1.556  25.198
 6325SOL    HW230604   3.509   1.452  25.088
 6326SOL     OW30605   1.281   1.277  23.783
 6326SOL    HW130606   1.249   1.361  23.750
 6326SOL    HW230607   1.366   1.297  23.823
 6327SOL     OW30608   2.848   3.768   0.989
 6327SOL    HW130609   2.898   3.849   0.987
 6327SOL    HW230610   2.913   3.700   0.970
 6328SOL     OW30611   3.237   0.742  24.383
 6328SOL    HW130612   3.169   0.676  24.398
 6328SOL    HW230613   3.317   0.691  24.373
 6329SOL     OW30614   3.255   4.770  24.784
 6329SOL    HW130615   3.219   4.732  24.704
 6329SOL    HW230616   3.187   4.756  24.850
 6330SOL     OW30617   1.728   0.241   8.952
 6330SOL    HW130618   1.646   0.264   8.995
 6330SOL    HW230619   1.703   0.180   8.882
 6331SOL     OW30620   0.051   4.138  19.754
 6331SOL    HW130621   4.761   4.188  19.715
 6331SOL    HW230622   0.009   4.062  19.794
 6332SOL     OW30623   4.290   1.645  21.982
 6332SOL    HW130624   4.271   1.683  21.896
 6332SOL    HW230625   4.383   1.621  21.978
 6333SOL     OW30626   0.898   4.006  23.137
 6333SOL    HW130627   0.845   4.037  23.210
 6333SOL    HW230628   0.944   4.084  23.106
 6334SOL     OW30629   1.795   4.514  27.504
 6334SOL    HW130630   1.752   4.535  27.421
 6334SOL    HW230631   1.804   4.419  27.503
 6335SOL     OW30632   1.318   3.820  18.795
 6335SOL    HW130633   1.391   3.789  18.741
 6335SOL    HW230634   1.352   3.895  18.843
 6336SOL     OW30635   3.162   3.095   4.851
 6336SOL    HW130636   3.127   3.122   4.936
 6336SOL    HW230637   3.108   3.141   4.787
 6337SOL     OW30638   1.202   1.400  25.328
 6337SOL    HW130639   1.250   1.330  25.373
 6337SOL    HW230640   1.266   1.471  25.320
 6338SOL     OW30641   2.682   3.565   3.534
 6338SOL    HW130642   2.748   3.587   3.600
 6338SOL    HW230643   2.627   3.643   3.528
 6339SOL     OW30644   1.856   1.453  26.056
 6339SOL    HW130645   1.882   1.388  26.122
 6339SOL    HW230646   1.936   1.505  26.042
 6340SOL     OW30647   1.442   1.105   4.003
 6340SOL    HW130648   1.358   1.060   4.009
 6340SOL    HW230649   1.502   1.050   4.053
 6341SOL     OW30650   2.787   1.665  18.901
 6341SOL    HW130651   2.792   1.760  18.891
 6341SOL    HW230652   2.832   1.629  18.825
 6342SOL     OW30653   0.454   2.496   1.591
 6342SOL    HW130654   0.440   2.403   1.578
 6342SOL    HW230655   0.542   2.512   1.555
 6343SOL     OW30656   1.465   3.801   0.296
 6343SOL    HW130657   1.510   3.792   0.212
 6343SOL    HW230658   1.431   3.713   0.314
 6344SOL     OW30659   1.465   4.080  27.579
 6344SOL    HW130660   1.381   4.079  27.626
 6344SOL    HW230661   1.503   3.994  27.596
 6345SOL     OW30662   1.782   4.493  20.453
 6345SOL    HW130663   1.836   4.549  20.509
 6345SOL    HW230664   1.719   4.452  20.512
 6346SOL     OW30665   1.083   2.473   3.184
 6346SOL    HW130666   1.123   2.478   3.097
 6346SOL    HW230667   1.015   2.540   3.183
 6347SOL     OW30668   4.374   4.008  26.335
 6347SOL    HW130669   4.435   3.945  26.299
 6347SOL    HW230670   4.384   4.086  26.280
 6348SOL     OW30671   2.239   3.428  23.420
 6348SOL    HW130672   2.333   3.415  23.412
 6348SOL    HW230673   2.221   3.419  23.513
 6349SOL     OW30674   1.639   2.088  23.852
 6349SOL    HW130675   1.604   2.074  23.764
 6349SOL    HW230676   1.678   2.175  23.849
 6350SOL     OW30677   1.218   3.424  22.332
 6350SOL    HW130678   1.170   3.381  22.261
 6350SOL    HW230679   1.310   3.415  22.308
 6351SOL     OW30680   3.139   4.050   4.707
 6351SOL    HW130681   3.075   4.106   4.661
 6351SOL    HW230682   3.090   3.971   4.729
 6352SOL     OW30683   4.378   4.487  26.352
 6352SOL    HW130684   4.337   4.419  26.405
 6352SOL    HW230685   4.347   4.569  26.389
 6353SOL     OW30686   2.202   1.711  23.250
 6353SOL    HW130687   2.284   1.741  23.289
 6353SOL    HW230688   2.208   1.738  23.159
 6354SOL     OW30689   1.986   4.302  20.331
 6354SOL    HW130690   1.921   4.363  20.365
 6354SOL    HW230691   2.027   4.264  20.409
 6355SOL     OW30692   0.576   0.808  18.566
 6355SOL    HW130693   0.534   0.845  18.643
 6355SOL    HW230694   0.504   0.775  18.512
 6356SOL     OW30695   3.776   1.752  18.830
 6356SOL    HW130696   3.777   1.846  18.847
 6356SOL    HW230697   3.728   1.714  18.904
 6357SOL     OW30698   3.090   1.954  19.843
 6357SOL    HW130699   3.120   1.889  19.781
 6357SOL    HW230700   2.999   1.972  19.817
 6358SOL     OW30701   2.606   1.634  24.148
 6358SOL    HW130702   2.528   1.645  24.203
 6358SOL    HW230703   2.655   1.715  24.160
 6359SOL     OW30704   0.482   1.232  24.476
 6359SOL    HW130705   0.478   1.142  24.509
 6359SOL    HW230706   0.539   1.227  24.399
 6360SOL     OW30707   1.579   2.049  26.244
 6360SOL    HW130708   1.565   2.084  26.332
 6360SOL    HW230709   1.497   2.065  26.198
 6361SOL     OW30710   3.040   3.158   2.534
 6361SOL    HW130711   3.043   3.250   2.510
 6361SOL    HW230712   3.077   3.112   2.459
 6362SOL     OW30713   3.745   3.180   3.530
 6362SOL    HW130714   3.691   3.104   3.554
 6362SOL    HW230715   3.728   3.193   3.437
 6363SOL     OW30716   3.298   4.210  26.487
 6363SOL    HW130717   3.255   4.284  26.444
 6363SOL    HW230718   3.228   4.166  26.536
 6364SOL     OW30719   2.627   2.184   5.521
 6364SOL    HW130720   2.639   2.231   5.604
 6364SOL    HW230721   2.686   2.109   5.528
 6365SOL     OW30722   0.977   3.127  25.841
 6365SOL    HW130723   0.981   3.032  25.856
 6365SOL    HW230724   1.053   3.146  25.786
 6366SOL     OW30725   4.391   0.927   6.270
 6366SOL    HW130726   4.398   0.879   6.187
 6366SOL    HW230727   4.439   0.873   6.333
 6367SOL     OW30728   2.422   0.218  22.029
 6367SOL    HW130729   2.456   0.227  21.940
 6367SOL    HW230730   2.356   0.149  22.022
 6368SOL     OW30731   2.987   0.509  17.978
 6368SOL    HW130732   3.036   0.591  17.969
 6368SOL    HW230733   2.920   0.528  18.043
 6369SOL     OW30734   4.026   2.353  19.070
 6369SOL    HW130735   4.086   2.335  19.142
 6369SOL    HW230736   4.030   2.448  19.059
 6370SOL     OW30737   0.040   3.508   9.119
 6370SOL    HW130738   0.060   3.425   9.075
 6370SOL    HW230739   0.123   3.534   9.160
 6371SOL     OW30740   3.651   4.492  23.201
 6371SOL    HW130741   3.600   4.536  23.269
 6371SOL    HW230742   3.590   4.430  23.162
 6372SOL     OW30743   0.830   3.980  19.178
 6372SOL    HW130744   0.746   3.948  19.211
 6372SOL    HW230745   0.862   4.038  19.248
 6373SOL     OW30746   1.400   1.399  23.302
 6373SOL    HW130747   1.370   1.480  23.261
 6373SOL    HW230748   1.417   1.422  23.393
 6374SOL     OW30749   0.487   1.216  23.514
 6374SOL    HW130750   0.472   1.144  23.575
 6374SOL    HW230751   0.401   1.257  23.504
 6375SOL     OW30752   3.525   3.384  21.007
 6375SOL    HW130753   3.541   3.423  21.094
 6375SOL    HW230754   3.611   3.377  20.968
 6376SOL     OW30755   3.478   2.438   0.562
 6376SOL    HW130756   3.437   2.522   0.540
 6376SOL    HW230757   3.561   2.438   0.514
 6377SOL     OW30758   2.320   3.264   9.022
 6377SOL    HW130759   2.305   3.249   8.928
 6377SOL    HW230760   2.415   3.253   9.033
 6378SOL     OW30761   3.418   3.309   0.831
 6378SOL    HW130762   3.443   3.270   0.747
 6378SOL    HW230763   3.444   3.401   0.823
 6379SOL     OW30764   0.882   4.386   5.691
 6379SOL    HW130765   0.957   4.331   5.669
 6379SOL    HW230766   0.822   4.376   5.618
 6380SOL     OW30767   0.673   0.363   5.920
 6380SOL    HW130768   0.673   0.271   5.895
 6380SOL    HW230769   0.709   0.409   5.844
 6381SOL     OW30770   4.397   4.491   3.611
 6381SOL    HW130771   4.311   4.512   3.648
 6381SOL    HW230772   4.402   4.540   3.529
 6382SOL     OW30773   0.775   1.106   3.097
 6382SOL    HW130774   0.787   1.059   3.015
 6382SOL    HW230775   0.724   1.184   3.073
 6383SOL     OW30776   2.585   1.988  23.163
 6383SOL    HW130777   2.576   2.027  23.250
 6383SOL    HW230778   2.497   1.991  23.126
 6384SOL     OW30779   1.744   4.369   3.868
 6384SOL    HW130780   1.722   4.283   3.833
 6384SOL    HW230781   1.679   4.385   3.936
 6385SOL     OW30782   4.740   3.478   9.695
 6385SOL    HW130783   4.653   3.499   9.729
 6385SOL    HW230784   4.731   3.490   9.600
 6386SOL     OW30785   2.639   4.335  11.811
 6386SOL    HW130786   2.621   4.242  11.824
 6386SOL    HW230787   2.568   4.365  11.755
 6387SOL     OW30788   2.570   0.216  11.113
 6387SOL    HW130789   2.559   0.217  11.208
 6387SOL    HW230790   2.552   0.307  11.087
 6388SOL     OW30791   4.211   1.841   0.274
 6388SOL    HW130792   4.277   1.838   0.343
 6388SOL    HW230793   4.221   1.927   0.234
 6389SOL     OW30794   0.047   1.405  18.328
 6389SOL    HW130795   0.007   1.485  18.292
 6389SOL    HW230796   0.133   1.433  18.358
 6390SOL     OW30797   3.940   0.830  28.003
 6390SOL    HW130798   3.933   0.842  27.908
 6390SOL    HW230799   3.927   0.918  28.039
 6391SOL     OW30800   2.241   0.153   0.465
 6391SOL    HW130801   2.284   0.088   0.410
 6391SOL    HW230802   2.149   0.128   0.464
 6392SOL     OW30803   0.112   1.649  24.830
 6392SOL    HW130804   0.134   1.651  24.924
 6392SOL    HW230805   0.022   1.617  24.827
 6393SOL     OW30806   0.024   2.787  27.162
 6393SOL    HW130807   4.759   2.771  27.243
 6393SOL    HW230808   4.740   2.782  27.093
 6394SOL     OW30809   4.477   3.947   5.581
 6394SOL    HW130810   4.410   3.915   5.521
 6394SOL    HW230811   4.553   3.964   5.525
 6395SOL     OW30812   0.832   3.644   8.035
 6395SOL    HW130813   0.800   3.673   7.949
 6395SOL    HW230814   0.798   3.556   8.045
 6396SOL     OW30815   2.905   3.620   7.416
 6396SOL    HW130816   2.997   3.643   7.401
 6396SOL    HW230817   2.889   3.644   7.507
 6397SOL     OW30818   0.151   3.339  19.121
 6397SOL    HW130819   0.067   3.366  19.085
 6397SOL    HW230820   0.210   3.412  19.101
 6398SOL     OW30821   2.168   1.476  25.643
 6398SOL    HW130822   2.228   1.401  25.646
 6398SOL    HW230823   2.222   1.550  25.672
 6399SOL     OW30824   1.304   4.744  22.985
 6399SOL    HW130825   1.314   4.677  22.917
 6399SOL    HW230826   1.246   0.027  22.945
 6400SOL     OW30827   1.617   1.000  26.510
 6400SOL    HW130828   1.649   0.925  26.461
 6400SOL    HW230829   1.609   1.070  26.444
 6401SOL     OW30830   0.890   1.542  12.606
 6401SOL    HW130831   0.952   1.600  12.651
 6401SOL    HW230832   0.805   1.583  12.618
 6402SOL     OW30833   2.446   2.589   7.871
 6402SOL    HW130834   2.453   2.680   7.842
 6402SOL    HW230835   2.535   2.554   7.865
 6403SOL     OW30836   4.103   0.648  20.169
 6403SOL    HW130837   4.127   0.655  20.261
 6403SOL    HW230838   4.080   0.737  20.142
 6404SOL     OW30839   3.187   0.271  26.768
 6404SOL    HW130840   3.226   0.248  26.852
 6404SOL    HW230841   3.097   0.297  26.790
 6405SOL     OW30842   4.292   4.329   1.822
 6405SOL    HW130843   4.336   4.312   1.905
 6405SOL    HW230844   4.253   4.245   1.798
 6406SOL     OW30845   2.648   1.633  21.746
 6406SOL    HW130846   2.714   1.618  21.813
 6406SOL    HW230847   2.693   1.617  21.663
 6407SOL     OW30848   1.930   1.607  20.168
 6407SOL    HW130849   1.936   1.698  20.139
 6407SOL    HW230850   1.836   1.591  20.179
 6408SOL     OW30851   0.853   4.410  24.826
 6408SOL    HW130852   0.830   4.468  24.753
 6408SOL    HW230853   0.810   4.327  24.805
 6409SOL     OW30854   3.862   4.664  25.398
 6409SOL    HW130855   3.923   4.677  25.325
 6409SOL    HW230856   3.887   4.731  25.462
 6410SOL     OW30857   3.542   4.170   5.932
 6410SOL    HW130858   3.524   4.094   5.987
 6410SOL    HW230859   3.495   4.242   5.975
 6411SOL     OW30860   1.318   3.901   2.228
 6411SOL    HW130861   1.230   3.878   2.199
 6411SOL    HW230862   1.359   3.817   2.248
 6412SOL     OW30863   0.494   4.375  24.565
 6412SOL    HW130864   0.458   4.440  24.505
 6412SOL    HW230865   0.419   4.345  24.616
 6413SOL     OW30866   3.235   2.045  11.253
 6413SOL    HW130867   3.319   2.065  11.211
 6413SOL    HW230868   3.177   2.022  11.181
 6414SOL     OW30869   3.914   2.513   2.566
 6414SOL    HW130870   3.973   2.488   2.495
 6414SOL    HW230871   3.867   2.433   2.588
 6415SOL     OW30872   1.163   4.678   7.398
 6415SOL    HW130873   1.134   4.601   7.447
 6415SOL    HW230874   1.082   4.717   7.365
 6416SOL     OW30875   0.275   3.498  23.615
 6416SOL    HW130876   0.311   3.431  23.557
 6416SOL    HW230877   0.261   3.574  23.558
 6417SOL     OW30878   0.717   0.640  23.121
 6417SOL    HW130879   0.649   0.634  23.054
 6417SOL    HW230880   0.797   0.615  23.076
 6418SOL     OW30881   3.031   3.973  10.364
 6418SOL    HW130882   2.984   3.939  10.440
 6418SOL    HW230883   3.067   3.895  10.322
 6419SOL     OW30884   3.161   2.520   6.342
 6419SOL    HW130885   3.176   2.505   6.435
 6419SOL    HW230886   3.235   2.478   6.299
 6420SOL     OW30887   3.058   3.636  20.296
 6420SOL    HW130888   3.104   3.687  20.362
 6420SOL    HW230889   3.104   3.656  20.214
 6421SOL     OW30890   3.166   0.301   8.876
 6421SOL    HW130891   3.071   0.290   8.877
 6421SOL    HW230892   3.185   0.349   8.957
 6422SOL     OW30893   1.310   2.727   6.034
 6422SOL    HW130894   1.380   2.772   6.080
 6422SOL    HW230895   1.336   2.635   6.035
 6423SOL     OW30896   0.816   3.382  26.103
 6423SOL    HW130897   0.790   3.291  26.088
 6423SOL    HW230898   0.768   3.432  26.037
 6424SOL     OW30899   0.286   1.033  25.146
 6424SOL    HW130900   0.246   1.117  25.123
 6424SOL    HW230901   0.372   1.056  25.183
 6425SOL     OW30902   1.652   1.217  25.032
 6425SOL    HW130903   1.707   1.294  25.019
 6425SOL    HW230904   1.713   1.143  25.033
 6426SOL     OW30905   2.566   2.685  23.892
 6426SOL    HW130906   2.494   2.642  23.938
 6426SOL    HW230907   2.628   2.614  23.874
 6427SOL     OW30908   4.437   3.824   5.819
 6427SOL    HW130909   4.522   3.792   5.849
 6427SOL    HW230910   4.454   3.861   5.732
 6428SOL     OW30911   4.437   3.833   0.642
 6428SOL    HW130912   4.525   3.800   0.622
 6428SOL    HW230913   4.388   3.755   0.669
 6429SOL     OW30914   1.987   1.693  10.545
 6429SOL    HW130915   1.912   1.643  10.511
 6429SOL    HW230916   1.953   1.735  10.624
 6430SOL     OW30917   2.208   3.577   8.229
 6430SOL    HW130918   2.141   3.620   8.282
 6430SOL    HW230919   2.180   3.591   8.139
 6431SOL     OW30920   2.142   3.327  20.868
 6431SOL    HW130921   2.201   3.403  20.873
 6431SOL    HW230922   2.194   3.258  20.829
 6432SOL     OW30923   3.225   4.144  22.057
 6432SOL    HW130924   3.269   4.195  22.125
 6432SOL    HW230925   3.294   4.127  21.992
 6433SOL     OW30926   1.073   3.002   1.505
 6433SOL    HW130927   1.077   2.996   1.409
 6433SOL    HW230928   1.012   3.075   1.521
 6434SOL     OW30929   3.774   2.496  10.322
 6434SOL    HW130930   3.717   2.555  10.370
 6434SOL    HW230931   3.813   2.440  10.389
 6435SOL     OW30932   0.449   0.188   5.099
 6435SOL    HW130933   0.400   0.119   5.054
 6435SOL    HW230934   0.404   0.269   5.075
 6436SOL     OW30935   1.715   4.555   2.415
 6436SOL    HW130936   1.703   4.493   2.343
 6436SOL    HW230937   1.810   4.559   2.427
 6437SOL     OW30938   3.884   0.816   2.361
 6437SOL    HW130939   3.880   0.735   2.310
 6437SOL    HW230940   3.864   0.885   2.298
 6438SOL     OW30941   1.670   4.705  22.119
 6438SOL    HW130942   1.720   0.004  22.123
 6438SOL    HW230943   1.606   4.712  22.190
 6439SOL     OW30944   4.377   4.030  20.735
 6439SOL    HW130945   4.402   3.943  20.768
 6439SOL    HW230946   4.436   4.090  20.780
 6440SOL     OW30947   3.721   4.109  22.811
 6440SOL    HW130948   3.798   4.134  22.761
 6440SOL    HW230949   3.661   4.072  22.746
 6441SOL     OW30950   4.182   3.783   6.619
 6441SOL    HW130951   4.252   3.832   6.576
 6441SOL    HW230952   4.171   3.705   6.564
 6442SOL     OW30953   0.468   4.276  20.005
 6442SOL    HW130954   0.511   4.253  20.088
 6442SOL    HW230955   0.484   4.201  19.948
 6443SOL     OW30956   0.646   3.580  21.165
 6443SOL    HW130957   0.688   3.659  21.130
 6443SOL    HW230958   0.618   3.532  21.087
 6444SOL     OW30959   2.734   1.733  23.118
 6444SOL    HW130960   2.660   1.791  23.101
 6444SOL    HW230961   2.805   1.791  23.142
 6445SOL     OW30962   3.340   1.747   9.305
 6445SOL    HW130963   3.284   1.737   9.382
 6445SOL    HW230964   3.301   1.688   9.240
 6446SOL     OW30965   1.039   3.126   4.285
 6446SOL    HW130966   0.992   3.177   4.220
 6446SOL    HW230967   0.972   3.071   4.325
 6447SOL     OW30968   4.685   2.109   5.067
 6447SOL    HW130969   4.766   2.149   5.036
 6447SOL    HW230970   4.698   2.015   5.057
 6448SOL     OW30971   0.814   3.321   4.153
 6448SOL    HW130972   0.763   3.243   4.173
 6448SOL    HW230973   0.814   3.371   4.235
 6449SOL     OW30974   3.343   1.176   8.432
 6449SOL    HW130975   3.267   1.136   8.390
 6449SOL    HW230976   3.388   1.103   8.475
 6450SOL     OW30977   2.065   2.304  24.593
 6450SOL    HW130978   2.038   2.395  24.604
 6450SOL    HW230979   2.135   2.292  24.657
 6451SOL     OW30980   4.716   0.935   7.543
 6451SOL    HW130981   4.641   0.876   7.554
 6451SOL    HW230982   4.757   0.905   7.461
 6452SOL     OW30983   2.218   2.247  24.037
 6452SOL    HW130984   2.194   2.298  24.114
 6452SOL    HW230985   2.135   2.208  24.008
 6453SOL     OW30986   4.677   4.368   5.036
 6453SOL    HW130987   4.594   4.410   5.013
 6453SOL    HW230988   4.652   4.291   5.086
 6454SOL     OW30989   3.231   2.347  17.288
 6454SOL    HW130990   3.162   2.391  17.238
 6454SOL    HW230991   3.312   2.387  17.257
 6455SOL     OW30992   3.054   3.640  26.889
 6455SOL    HW130993   3.075   3.653  26.796
 6455SOL    HW230994   3.001   3.717  26.913
 6456SOL     OW30995   4.119   3.677   7.025
 6456SOL    HW130996   4.145   3.733   7.098
 6456SOL    HW230997   4.080   3.600   7.066
 6457SOL     OW30998   3.509   0.404   4.259
 6457SOL    HW130999   3.423   0.364   4.253
 6457SOL    HW231000   3.493   0.498   4.254
 6458SOL     OW31001   2.969   3.726  28.093
 6458SOL    HW131002   3.054   3.761  28.117
 6458SOL    HW231003   2.988   3.648  28.041
 6459SOL     OW31004   0.183   2.917  26.338
 6459SOL    HW131005   0.153   2.869  26.261
 6459SOL    HW231006   0.214   3.001  26.304
 6460SOL     OW31007   1.191   3.681  26.463
 6460SOL    HW131008   1.131   3.618  26.422
 6460SOL    HW231009   1.268   3.629  26.485
 6461SOL     OW31010   2.270   4.313   8.185
 6461SOL    HW131011   2.317   4.373   8.128
 6461SOL    HW231012   2.178   4.335   8.173
 6462SOL     OW31013   2.932   3.966   2.247
 6462SOL    HW131014   3.003   3.987   2.307
 6462SOL    HW231015   2.855   4.006   2.286
 6463SOL     OW31016   2.028   0.492   8.257
 6463SOL    HW131017   1.975   0.416   8.280
 6463SOL    HW231018   2.051   0.533   8.340
 6464SOL     OW31019   4.319   3.173  22.571
 6464SOL    HW131020   4.321   3.163  22.666
 6464SOL    HW231021   4.321   3.083  22.537
 6465SOL     OW31022   4.516   1.927   4.705
 6465SOL    HW131023   4.514   1.853   4.766
 6465SOL    HW231024   4.433   1.973   4.719
 6466SOL     OW31025   3.604   1.599  25.664
 6466SOL    HW131026   3.646   1.628  25.583
 6466SOL    HW231027   3.512   1.619  25.652
 6467SOL     OW31028   3.374   0.879   8.277
 6467SOL    HW131029   3.464   0.910   8.264
 6467SOL    HW231030   3.321   0.958   8.267
 6468SOL     OW31031   0.576   2.451   8.356
 6468SOL    HW131032   0.488   2.414   8.363
 6468SOL    HW231033   0.581   2.515   8.427
 6469SOL     OW31034   2.854   2.209   6.900
 6469SOL    HW131035   2.891   2.235   6.816
 6469SOL    HW231036   2.836   2.115   6.890
 6470SOL     OW31037   4.306   4.498  27.743
 6470SOL    HW131038   4.231   4.556  27.750
 6470SOL    HW231039   4.331   4.480  27.834
 6471SOL     OW31040   2.200   2.244  23.155
 6471SOL    HW131041   2.220   2.262  23.246
 6471SOL    HW231042   2.270   2.286  23.106
 6472SOL     OW31043   4.259   0.844   4.304
 6472SOL    HW131044   4.211   0.823   4.385
 6472SOL    HW231045   4.233   0.776   4.242
 6473SOL     OW31046   2.171   2.091   9.217
 6473SOL    HW131047   2.120   2.092   9.299
 6473SOL    HW231048   2.206   2.002   9.212
 6474SOL     OW31049   1.636   1.958   7.617
 6474SOL    HW131050   1.562   1.897   7.612
 6474SOL    HW231051   1.701   1.913   7.671
 6475SOL     OW31052   3.620   3.266  24.893
 6475SOL    HW131053   3.656   3.216  24.967
 6475SOL    HW231054   3.697   3.304  24.850
 6476SOL     OW31055   1.296   3.397   3.575
 6476SOL    HW131056   1.209   3.432   3.591
 6476SOL    HW231057   1.323   3.358   3.658
 6477SOL     OW31058   3.328   4.043   1.621
 6477SOL    HW131059   3.261   4.031   1.687
 6477SOL    HW231060   3.288   4.013   1.539
 6478SOL     OW31061   1.917   1.583  23.678
 6478SOL    HW131062   1.901   1.509  23.738
 6478SOL    HW231063   1.979   1.548  23.614
 6479SOL     OW31064   2.450   3.328   1.558
 6479SOL    HW131065   2.491   3.412   1.579
 6479SOL    HW231066   2.413   3.297   1.641
 6480SOL     OW31067   2.835   1.147  24.483
 6480SOL    HW131068   2.841   1.243  24.485
 6480SOL    HW231069   2.855   1.124  24.392
 6481SOL     OW31070   0.046   4.354   9.334
 6481SOL    HW131071   0.077   4.289   9.397
 6481SOL    HW231072   4.740   4.325   9.311
 6482SOL     OW31073   2.747   2.340  19.716
 6482SOL    HW131074   2.711   2.269  19.663
 6482SOL    HW231075   2.764   2.300  19.801
 6483SOL     OW31076   2.511   2.095   7.184
 6483SOL    HW131077   2.587   2.073   7.238
 6483SOL    HW231078   2.446   2.029   7.206
 6484SOL     OW31079   2.760   4.153   8.803
 6484SOL    HW131080   2.798   4.075   8.761
 6484SOL    HW231081   2.824   4.178   8.870
 6485SOL     OW31082   2.418   1.081   4.119
 6485SOL    HW131083   2.442   1.169   4.091
 6485SOL    HW231084   2.494   1.027   4.096
 6486SOL     OW31085   0.894   1.424  22.403
 6486SOL    HW131086   0.902   1.328  22.402
 6486SOL    HW231087   0.933   1.452  22.320
 6487SOL     OW31088   0.298   1.885  24.864
 6487SOL    HW131089   0.235   1.943  24.906
 6487SOL    HW231090   0.247   1.833  24.802
 6488SOL     OW31091   4.311   0.960   9.787
 6488SOL    HW131092   4.294   0.895   9.856
 6488SOL    HW231093   4.288   1.044   9.827
 6489SOL     OW31094   2.789   3.438   7.002
 6489SOL    HW131095   2.787   3.397   7.088
 6489SOL    HW231096   2.780   3.365   6.941
 6490SOL     OW31097   3.403   0.948  27.684
 6490SOL    HW131098   3.420   0.920  27.774
 6490SOL    HW231099   3.330   0.893  27.655
 6491SOL     OW31100   0.745   1.535  25.162
 6491SOL    HW131101   0.724   1.539  25.069
 6491SOL    HW231102   0.801   1.457  25.170
 6492SOL     OW31103   4.466   1.486  19.410
 6492SOL    HW131104   4.543   1.504  19.464
 6492SOL    HW231105   4.424   1.411  19.452
 6493SOL     OW31106   1.909   4.332   1.775
 6493SOL    HW131107   1.848   4.405   1.785
 6493SOL    HW231108   1.861   4.267   1.724
 6494SOL     OW31109   4.465   2.818   6.992
 6494SOL    HW131110   4.383   2.777   6.963
 6494SOL    HW231111   4.439   2.907   7.018
 6495SOL     OW31112   4.310   4.504  28.074
 6495SOL    HW131113   4.220   4.536  28.083
 6495SOL    HW231114   4.314   4.427  28.130
 6496SOL     OW31115   3.143   3.322  10.841
 6496SOL    HW131116   3.154   3.395  10.902
 6496SOL    HW231117   3.182   3.247  10.887
 6497SOL     OW31118   2.646   1.701  10.271
 6497SOL    HW131119   2.660   1.636  10.340
 6497SOL    HW231120   2.555   1.730  10.283
 6498SOL     OW31121   4.273   1.460   4.486
 6498SOL    HW131122   4.270   1.374   4.529
 6498SOL    HW231123   4.354   1.500   4.518
 6499SOL     OW31124   0.966   1.112  27.900
 6499SOL    HW131125   1.058   1.116  27.876
 6499SOL    HW231126   0.920   1.149  27.824
 6500SOL     OW31127   3.975   3.319  10.519
 6500SOL    HW131128   3.945   3.259  10.586
 6500SOL    HW231129   3.899   3.332  10.462
 6501SOL     OW31130   4.686   4.601  24.613
 6501SOL    HW131131   4.702   4.519  24.659
 6501SOL    HW231132   4.591   4.601  24.596
 6502SOL     OW31133   3.688   0.773  26.053
 6502SOL    HW131134   3.600   0.756  26.086
 6502SOL    HW231135   3.684   0.863  26.018
 6503SOL     OW31136   0.363   1.709   1.938
 6503SOL    HW131137   0.439   1.697   1.880
 6503SOL    HW231138   0.312   1.778   1.896
 6504SOL     OW31139   1.992   0.282   1.500
 6504SOL    HW131140   1.949   0.199   1.522
 6504SOL    HW231141   1.931   0.349   1.529
 6505SOL     OW31142   2.461   3.559  27.693
 6505SOL    HW131143   2.548   3.523  27.712
 6505SOL    HW231144   2.477   3.650  27.669
 6506SOL     OW31145   2.028   1.564  16.893
 6506SOL    HW131146   1.960   1.497  16.890
 6506SOL    HW231147   2.021   1.608  16.808
 6507SOL     OW31148   0.590   0.251  25.249
 6507SOL    HW131149   0.633   0.237  25.334
 6507SOL    HW231150   0.518   0.311  25.268
 6508SOL     OW31151   3.564   0.717  26.790
 6508SOL    HW131152   3.566   0.793  26.848
 6508SOL    HW231153   3.499   0.738  26.724
 6509SOL     OW31154   3.991   3.725  24.909
 6509SOL    HW131155   3.904   3.704  24.942
 6509SOL    HW231156   4.035   3.766  24.983
 6510SOL     OW31157   2.677   0.317  21.783
 6510SOL    HW131158   2.731   0.278  21.714
 6510SOL    HW231159   2.687   0.260  21.858
 6511SOL     OW31160   1.416   3.554  27.575
 6511SOL    HW131161   1.437   3.519  27.488
 6511SOL    HW231162   1.350   3.493  27.609
 6512SOL     OW31163   0.287   4.274  19.717
 6512SOL    HW131164   0.198   4.249  19.744
 6512SOL    HW231165   0.292   4.368  19.735
 6513SOL     OW31166   0.763   2.582  24.152
 6513SOL    HW131167   0.703   2.538  24.091
 6513SOL    HW231168   0.705   2.636  24.207
 6514SOL     OW31169   4.742   4.099  28.409
 6514SOL    HW131170   4.754   4.008  28.383
 6514SOL    HW231171   4.679   4.096  28.481
 6515SOL     OW31172   1.449   1.599  18.846
 6515SOL    HW131173   1.406   1.650  18.915
 6515SOL    HW231174   1.474   1.664  18.781
 6516SOL     OW31175   3.963   1.340   4.756
 6516SOL    HW131176   3.950   1.330   4.662
 6516SOL    HW231177   4.019   1.418   4.764
 6517SOL     OW31178   4.147   0.205   8.641
 6517SOL    HW131179   4.166   0.291   8.604
 6517SOL    HW231180   4.060   0.213   8.680
 6518SOL     OW31181   0.958   1.767   3.933
 6518SOL    HW131182   0.943   1.753   4.027
 6518SOL    HW231183   0.870   1.778   3.897
 6519SOL     OW31184   2.585   1.978  21.461
 6519SOL    HW131185   2.565   1.909  21.397
 6519SOL    HW231186   2.545   1.947  21.542
 6520SOL     OW31187   4.773   1.856  20.126
 6520SOL    HW131188   4.720   1.778  20.113
 6520SOL    HW231189   0.042   1.864  20.045
 6521SOL     OW31190   2.441   4.277  10.797
 6521SOL    HW131191   2.452   4.267  10.702
 6521SOL    HW231192   2.405   4.193  10.826
 6522SOL     OW31193   1.054   4.003  25.642
 6522SOL    HW131194   0.986   3.938  25.659
 6522SOL    HW231195   1.021   4.083  25.684
 6523SOL     OW31196   3.278   4.076   4.194
 6523SOL    HW131197   3.296   4.045   4.105
 6523SOL    HW231198   3.200   4.131   4.185
 6524SOL     OW31199   0.997   2.535  27.785
 6524SOL    HW131200   1.001   2.461  27.846
 6524SOL    HW231201   1.001   2.612  27.841
 6525SOL     OW31202   4.044   1.357  28.525
 6525SOL    HW131203   4.089   1.348  28.441
 6525SOL    HW231204   3.954   1.332  28.507
 6526SOL     OW31205   0.204   1.349   7.424
 6526SOL    HW131206   0.210   1.393   7.509
 6526SOL    HW231207   0.122   1.300   7.428
 6527SOL     OW31208   1.941   4.626  23.298
 6527SOL    HW131209   1.934   4.686  23.223
 6527SOL    HW231210   2.001   4.558  23.269
 6528SOL     OW31211   4.734   4.636   4.809
 6528SOL    HW131212   0.021   4.571   4.821
 6528SOL    HW231213   4.712   4.630   4.716
 6529SOL     OW31214   1.416   4.543   8.982
 6529SOL    HW131215   1.448   4.467   8.935
 6529SOL    HW231216   1.363   4.507   9.054
 6530SOL     OW31217   0.285   0.411   5.085
 6530SOL    HW131218   0.294   0.502   5.058
 6530SOL    HW231219   0.210   0.378   5.036
 6531SOL     OW31220   2.249   3.667  12.249
 6531SOL    HW131221   2.167   3.657  12.201
 6531SOL    HW231222   2.243   3.604  12.321
 6532SOL     OW31223   3.597   1.504  26.060
 6532SOL    HW131224   3.596   1.527  26.152
 6532SOL    HW231225   3.517   1.543  26.024
 6533SOL     OW31226   3.014   1.658  19.997
 6533SOL    HW131227   2.930   1.624  19.966
 6533SOL    HW231228   3.074   1.639  19.924
 6534SOL     OW31229   3.273   1.862  27.626
 6534SOL    HW131230   3.244   1.852  27.716
 6534SOL    HW231231   3.352   1.915  27.632
 6535SOL     OW31232   4.353   0.062  11.960
 6535SOL    HW131233   4.347   0.064  12.055
 6535SOL    HW231234   4.279   0.114  11.929
 6536SOL     OW31235   2.331   2.031  25.813
 6536SOL    HW131236   2.362   1.954  25.860
 6536SOL    HW231237   2.280   1.996  25.741
 6537SOL     OW31238   2.954   3.969   0.577
 6537SOL    HW131239   2.905   4.047   0.551
 6537SOL    HW231240   2.944   3.964   0.672
 6538SOL     OW31241   2.837   0.855   9.540
 6538SOL    HW131242   2.791   0.794   9.598
 6538SOL    HW231243   2.914   0.806   9.511
 6539SOL     OW31244   2.312   0.437  28.182
 6539SOL    HW131245   2.245   0.373  28.208
 6539SOL    HW231246   2.267   0.522  28.189
 6540SOL     OW31247   3.184   1.990  10.813
 6540SOL    HW131248   3.252   2.055  10.828
 6540SOL    HW231249   3.161   1.959  10.900
 6541SOL     OW31250   3.010   3.895  26.384
 6541SOL    HW131251   2.967   3.894  26.469
 6541SOL    HW231252   3.005   3.986  26.355
 6542SOL     OW31253   4.557   3.397  24.684
 6542SOL    HW131254   4.468   3.390  24.718
 6542SOL    HW231255   4.558   3.482  24.639
 6543SOL     OW31256   2.227   3.563   9.225
 6543SOL    HW131257   2.195   3.597   9.309
 6543SOL    HW231258   2.251   3.472   9.244
 6544SOL     OW31259   4.122   1.524  26.315
 6544SOL    HW131260   4.048   1.524  26.255
 6544SOL    HW231261   4.193   1.482  26.267
 6545SOL     OW31262   1.040   1.462  27.745
 6545SOL    HW131263   1.058   1.513  27.666
 6545SOL    HW231264   1.038   1.371  27.715
 6546SOL     OW31265   4.360   4.486   5.368
 6546SOL    HW131266   4.307   4.544   5.314
 6546SOL    HW231267   4.417   4.545   5.417
 6547SOL     OW31268   4.394   0.549   2.552
 6547SOL    HW131269   4.371   0.642   2.545
 6547SOL    HW231270   4.349   0.508   2.478
 6548SOL     OW31271   1.265   2.267  10.775
 6548SOL    HW131272   1.170   2.260  10.769
 6548SOL    HW231273   1.291   2.320  10.700
 6549SOL     OW31274   3.233   1.111  12.094
 6549SOL    HW131275   3.305   1.059  12.131
 6549SOL    HW231276   3.155   1.059  12.110
 6550SOL     OW31277   1.787   1.580  22.522
 6550SOL    HW131278   1.863   1.524  22.507
 6550SOL    HW231279   1.715   1.519  22.537
 6551SOL     OW31280   1.765   1.271   4.913
 6551SOL    HW131281   1.835   1.312   4.965
 6551SOL    HW231282   1.780   1.177   4.923
 6552SOL     OW31283   2.407   3.321   3.142
 6552SOL    HW131284   2.447   3.362   3.218
 6552SOL    HW231285   2.481   3.280   3.096
 6553SOL     OW31286   3.746   4.263   7.120
 6553SOL    HW131287   3.654   4.281   7.140
 6553SOL    HW231288   3.794   4.299   7.195
 6554SOL     OW31289   0.424   3.118  21.039
 6554SOL    HW131290   0.357   3.051  21.028
 6554SOL    HW231291   0.387   3.196  20.997
 6555SOL     OW31292   3.546   1.315   1.852
 6555SOL    HW131293   3.548   1.411   1.851
 6555SOL    HW231294   3.470   1.292   1.798
 6556SOL     OW31295   0.538   4.143   9.625
 6556SOL    HW131296   0.633   4.137   9.636
 6556SOL    HW231297   0.511   4.054   9.603
 6557SOL     OW31298   1.600   4.363   4.473
 6557SOL    HW131299   1.582   4.274   4.504
 6557SOL    HW231300   1.693   4.377   4.490
 6558SOL     OW31301   0.172   1.361  15.215
 6558SOL    HW131302   0.089   1.375  15.169
 6558SOL    HW231303   0.234   1.339  15.146
 6559SOL     OW31304   3.062   2.811  11.040
 6559SOL    HW131305   3.139   2.826  11.095
 6559SOL    HW231306   3.079   2.725  11.000
 6560SOL     OW31307   3.230   4.592  10.219
 6560SOL    HW131308   3.274   4.507  10.227
 6560SOL    HW231309   3.245   4.634  10.304
 6561SOL     OW31310   2.412   2.418  28.401
 6561SOL    HW131311   2.466   2.348  28.438
 6561SOL    HW231312   2.463   2.452  28.328
 6562SOL     OW31313   4.164   1.816  21.037
 6562SOL    HW131314   4.206   1.804  21.122
 6562SOL    HW231315   4.071   1.799  21.053
 6563SOL     OW31316   1.048   3.836   4.823
 6563SOL    HW131317   1.069   3.825   4.730
 6563SOL    HW231318   1.097   3.913   4.850
 6564SOL     OW31319   2.176   2.170  18.800
 6564SOL    HW131320   2.270   2.169  18.783
 6564SOL    HW231321   2.148   2.080  18.782
 6565SOL     OW31322   1.367   4.265   8.925
 6565SOL    HW131323   1.380   4.214   8.845
 6565SOL    HW231324   1.283   4.235   8.960
 6566SOL     OW31325   3.460   3.831  20.390
 6566SOL    HW131326   3.417   3.915  20.375
 6566SOL    HW231327   3.485   3.800  20.303
 6567SOL     OW31328   3.205   1.544   7.543
 6567SOL    HW131329   3.249   1.491   7.476
 6567SOL    HW231330   3.170   1.619   7.495
 6568SOL     OW31331   2.896   0.394   8.643
 6568SOL    HW131332   2.932   0.317   8.600
 6568SOL    HW231333   2.895   0.373   8.736
 6569SOL     OW31334   2.074   0.219   1.910
 6569SOL    HW131335   2.122   0.279   1.852
 6569SOL    HW231336   2.030   0.276   1.972
 6570SOL     OW31337   3.694   0.346  10.209
 6570SOL    HW131338   3.608   0.325  10.246
 6570SOL    HW231339   3.692   0.441  10.196
 6571SOL     OW31340   2.145   3.428  21.293
 6571SOL    HW131341   2.156   3.335  21.308
 6571SOL    HW231342   2.057   3.448  21.324
 6572SOL     OW31343   3.334   1.024  11.441
 6572SOL    HW131344   3.264   0.958  11.445
 6572SOL    HW231345   3.288   1.107  11.452
 6573SOL     OW31346   2.704   2.891  11.751
 6573SOL    HW131347   2.781   2.893  11.693
 6573SOL    HW231348   2.710   2.972  11.802
 6574SOL     OW31349   2.584   1.485   7.215
 6574SOL    HW131350   2.548   1.568   7.183
 6574SOL    HW231351   2.644   1.510   7.285
 6575SOL     OW31352   0.874   0.106   4.345
 6575SOL    HW131353   0.807   0.041   4.326
 6575SOL    HW231354   0.866   0.123   4.438
 6576SOL     OW31355   0.409   2.696   1.767
 6576SOL    HW131356   0.492   2.687   1.814
 6576SOL    HW231357   0.404   2.619   1.712
 6577SOL     OW31358   3.967   1.323   9.109
 6577SOL    HW131359   4.014   1.269   9.173
 6577SOL    HW231360   3.878   1.329   9.143
 6578SOL     OW31361   3.551   4.061   2.076
 6578SOL    HW131362   3.542   4.031   1.985
 6578SOL    HW231363   3.461   4.080   2.104
 6579SOL     OW31364   1.783   0.142  22.356
 6579SOL    HW131365   1.807   0.225  22.398
 6579SOL    HW231366   1.692   0.155  22.330
 6580SOL     OW31367   4.286   0.947  26.760
 6580SOL    HW131368   4.317   0.879  26.820
 6580SOL    HW231369   4.356   1.012  26.759
 6581SOL     OW31370   3.797   4.535  20.745
 6581SOL    HW131371   3.840   4.618  20.765
 6581SOL    HW231372   3.868   4.473  20.732
 6582SOL     OW31373   1.838   0.186   9.371
 6582SOL    HW131374   1.922   0.177   9.416
 6582SOL    HW231375   1.825   0.102   9.327
 6583SOL     OW31376   1.779   2.462  11.957
 6583SOL    HW131377   1.790   2.401  11.885
 6583SOL    HW231378   1.859   2.515  11.955
 6584SOL     OW31379   3.913   2.537  11.939
 6584SOL    HW131380   3.971   2.486  11.996
 6584SOL    HW231381   3.919   2.626  11.974
 6585SOL     OW31382   3.641   1.337  22.943
 6585SOL    HW131383   3.647   1.244  22.965
 6585SOL    HW231384   3.553   1.347  22.907
 6586SOL     OW31385   4.226   3.737   5.685
 6586SOL    HW131386   4.205   3.778   5.602
 6586SOL    HW231387   4.305   3.781   5.715
 6587SOL     OW31388   3.584   3.108  11.393
 6587SOL    HW131389   3.644   3.033  11.394
 6587SOL    HW231390   3.537   3.102  11.476
 6588SOL     OW31391   2.270   1.849  11.342
 6588SOL    HW131392   2.323   1.863  11.421
 6588SOL    HW231393   2.275   1.932  11.295
 6589SOL     OW31394   2.347   2.280  11.822
 6589SOL    HW131395   2.358   2.310  11.912
 6589SOL    HW231396   2.252   2.284  11.807
 6590SOL     OW31397   3.258   1.821  12.635
 6590SOL    HW131398   3.166   1.806  12.657
 6590SOL    HW231399   3.297   1.855  12.716
 6591SOL     OW31400   2.445   2.781  11.635
 6591SOL    HW131401   2.476   2.789  11.545
 6591SOL    HW231402   2.360   2.739  11.627
 6592SOL     OW31403   3.532   3.921  12.253
 6592SOL    HW131404   3.552   3.991  12.316
 6592SOL    HW231405   3.494   3.851  12.306
 6593SOL     OW31406   2.236   3.806  21.574
 6593SOL    HW131407   2.281   3.880  21.614
 6593SOL    HW231408   2.166   3.845  21.521
 6594SOL     OW31409   3.617   1.810  12.151
 6594SOL    HW131410   3.695   1.766  12.184
 6594SOL    HW231411   3.585   1.861  12.226
 6595SOL     OW31412   2.120   2.358  11.190
 6595SOL    HW131413   2.084   2.408  11.117
 6595SOL    HW231414   2.043   2.326  11.237
 6596SOL     OW31415   3.256   2.022  13.122
 6596SOL    HW131416   3.172   2.019  13.076
 6596SOL    HW231417   3.235   2.052  13.210
 6597SOL     OW31418   4.063   3.632  26.654
 6597SOL    HW131419   4.045   3.723  26.630
 6597SOL    HW231420   4.034   3.625  26.745
 6598SOL     OW31421   2.483   1.337   4.088
 6598SOL    HW131422   2.520   1.419   4.056
 6598SOL    HW231423   2.428   1.363   4.162
 6599SOL     OW31424   2.303   2.344   3.469
 6599SOL    HW131425   2.295   2.297   3.386
 6599SOL    HW231426   2.342   2.429   3.445
 6600SOL     OW31427   1.138   3.554  12.243
 6600SOL    HW131428   1.088   3.474  12.258
 6600SOL    HW231429   1.095   3.595  12.167
 6601SOL     OW31430   2.571   1.954  11.268
 6601SOL    HW131431   2.598   2.021  11.206
 6601SOL    HW231432   2.621   1.972  11.347
 6602SOL     OW31433   2.255   3.249  13.402
 6602SOL    HW131434   2.253   3.343  13.424
 6602SOL    HW231435   2.167   3.218  13.421
 6603SOL     OW31436   1.758   2.529  11.413
 6603SOL    HW131437   1.724   2.540  11.502
 6603SOL    HW231438   1.796   2.441  11.412
 6604SOL     OW31439   1.358   3.080  20.812
 6604SOL    HW131440   1.418   3.135  20.762
 6604SOL    HW231441   1.393   3.080  20.901
 6605SOL     OW31442   0.008   2.378  12.488
 6605SOL    HW131443   4.696   2.367  12.474
 6605SOL    HW231444   0.016   2.389  12.583
 6606SOL     OW31445   0.724   2.550  22.333
 6606SOL    HW131446   0.640   2.555  22.287
 6606SOL    HW231447   0.749   2.641  22.347
 6607SOL     OW31448   0.869   1.838   7.416
 6607SOL    HW131449   0.924   1.763   7.393
 6607SOL    HW231450   0.930   1.904   7.447
 6608SOL     OW31451   1.450   1.659   2.857
 6608SOL    HW131452   1.373   1.618   2.895
 6608SOL    HW231453   1.424   1.750   2.842
 6609SOL     OW31454   2.791   3.361  14.274
 6609SOL    HW131455   2.734   3.304  14.326
 6609SOL    HW231456   2.860   3.303  14.242
 6610SOL     OW31457   4.080   3.343  12.649
 6610SOL    HW131458   4.142   3.387  12.707
 6610SOL    HW231459   4.061   3.260  12.692
 6611SOL     OW31460   2.392   0.093   5.043
 6611SOL    HW131461   2.439   0.049   5.113
 6611SOL    HW231462   2.414   0.044   4.964
 6612SOL     OW31463   4.360   4.573   5.760
 6612SOL    HW131464   4.312   4.502   5.717
 6612SOL    HW231465   4.437   4.588   5.705
 6613SOL     OW31466   3.375   1.358  11.995
 6613SOL    HW131467   3.380   1.326  12.085
 6613SOL    HW231468   3.312   1.300  11.952
 6614SOL     OW31469   4.148   1.669  12.661
 6614SOL    HW131470   4.124   1.598  12.721
 6614SOL    HW231471   4.113   1.748  12.703
 6615SOL     OW31472   2.193   3.550  12.842
 6615SOL    HW131473   2.173   3.498  12.920
 6615SOL    HW231474   2.257   3.615  12.872
 6616SOL     OW31475   3.268   2.020  12.137
 6616SOL    HW131476   3.277   2.003  12.230
 6616SOL    HW231477   3.211   1.950  12.105
 6617SOL     OW31478   3.077   4.417  26.621
 6617SOL    HW131479   3.158   4.389  26.663
 6617SOL    HW231480   3.034   4.473  26.686
 6618SOL     OW31481   2.159   3.644  12.579
 6618SOL    HW131482   2.176   3.620  12.670
 6618SOL    HW231483   2.240   3.685  12.549
 6619SOL     OW31484   3.183   3.588  14.113
 6619SOL    HW131485   3.218   3.676  14.103
 6619SOL    HW231486   3.194   3.569  14.206
 6620SOL     OW31487   3.105   1.191  12.898
 6620SOL    HW131488   3.168   1.201  12.826
 6620SOL    HW231489   3.124   1.104  12.934
 6621SOL     OW31490   1.091   3.897   3.847
 6621SOL    HW131491   1.141   3.970   3.885
 6621SOL    HW231492   1.121   3.820   3.895
 6622SOL     OW31493   3.711   4.424   3.081
 6622SOL    HW131494   3.687   4.468   2.999
 6622SOL    HW231495   3.772   4.356   3.054
 6623SOL     OW31496   1.328   1.490   3.062
 6623SOL    HW131497   1.290   1.417   3.112
 6623SOL    HW231498   1.366   1.547   3.129
 6624SOL     OW31499   2.231   2.519  12.599
 6624SOL    HW131500   2.304   2.457  12.593
 6624SOL    HW231501   2.250   2.584  12.532
 6625SOL     OW31502   1.974   2.095  12.659
 6625SOL    HW131503   2.010   2.127  12.742
 6625SOL    HW231504   1.990   2.001  12.661
 6626SOL     OW31505   2.289   2.160  12.595
 6626SOL    HW131506   2.240   2.105  12.656
 6626SOL    HW231507   2.341   2.217  12.652
 6627SOL     OW31508   2.464   2.805  11.368
 6627SOL    HW131509   2.551   2.775  11.341
 6627SOL    HW231510   2.468   2.900  11.359
 6628SOL     OW31511   3.397   2.461  13.601
 6628SOL    HW131512   3.474   2.406  13.609
 6628SOL    HW231513   3.325   2.406  13.631
 6629SOL     OW31514   1.030   3.469   4.537
 6629SOL    HW131515   1.120   3.492   4.512
 6629SOL    HW231516   1.029   3.373   4.534
 6630SOL     OW31517   3.533   3.551   0.938
 6630SOL    HW131518   3.472   3.597   0.997
 6630SOL    HW231519   3.620   3.570   0.974
 6631SOL     OW31520   3.653   2.136  12.564
 6631SOL    HW131521   3.656   2.229  12.588
 6631SOL    HW231522   3.595   2.096  12.629
 6632SOL     OW31523   0.424   1.591  12.873
 6632SOL    HW131524   0.362   1.541  12.820
 6632SOL    HW231525   0.369   1.639  12.935
 6633SOL     OW31526   2.518   2.304  23.626
 6633SOL    HW131527   2.428   2.305  23.658
 6633SOL    HW231528   2.540   2.396  23.613
 6634SOL     OW31529   1.965   2.646  11.693
 6634SOL    HW131530   1.878   2.610  11.677
 6634SOL    HW231531   1.963   2.675  11.784
 6635SOL     OW31532   2.835   2.658  15.343
 6635SOL    HW131533   2.853   2.629  15.253
 6635SOL    HW231534   2.916   2.697  15.373
 6636SOL     OW31535   1.961   2.057  14.557
 6636SOL    HW131536   1.991   2.005  14.632
 6636SOL    HW231537   2.004   2.142  14.568
 6637SOL     OW31538   3.339   2.067  13.810
 6637SOL    HW131539   3.413   2.007  13.798
 6637SOL    HW231540   3.306   2.046  13.898
 6638SOL     OW31541   2.435   3.014  14.074
 6638SOL    HW131542   2.425   3.105  14.102
 6638SOL    HW231543   2.427   3.017  13.979
 6639SOL     OW31544   4.712   2.635  13.240
 6639SOL    HW131545   4.761   2.717  13.233
 6639SOL    HW231546   4.674   2.637  13.328
 6640SOL     OW31547   1.819   2.010  13.821
 6640SOL    HW131548   1.778   1.979  13.740
 6640SOL    HW231549   1.746   2.035  13.877
 6641SOL     OW31550   1.752   3.146  13.988
 6641SOL    HW131551   1.737   3.221  13.930
 6641SOL    HW231552   1.816   3.092  13.941
 6642SOL     OW31553   2.255   2.282  13.268
 6642SOL    HW131554   2.265   2.188  13.277
 6642SOL    HW231555   2.342   2.318  13.286
 6643SOL     OW31556   1.880   1.642  14.370
 6643SOL    HW131557   1.923   1.726  14.352
 6643SOL    HW231558   1.897   1.589  14.292
 6644SOL     OW31559   1.699   3.022  13.624
 6644SOL    HW131560   1.784   3.042  13.664
 6644SOL    HW231561   1.641   3.005  13.699
 6645SOL     OW31562   2.313   1.983  13.459
 6645SOL    HW131563   2.314   1.907  13.402
 6645SOL    HW231564   2.406   2.008  13.466
 6646SOL     OW31565   2.401   3.237  13.155
 6646SOL    HW131566   2.367   3.227  13.244
 6646SOL    HW231567   2.486   3.193  13.157
 6647SOL     OW31568   1.764   2.623  14.522
 6647SOL    HW131569   1.827   2.681  14.565
 6647SOL    HW231570   1.699   2.682  14.483
 6648SOL     OW31571   2.176   3.471  14.101
 6648SOL    HW131572   2.127   3.504  14.176
 6648SOL    HW231573   2.108   3.443  14.039
 6649SOL     OW31574   1.605   1.969  14.336
 6649SOL    HW131575   1.627   2.028  14.408
 6649SOL    HW231576   1.532   1.917  14.369
 6650SOL     OW31577   2.688   0.965  14.761
 6650SOL    HW131578   2.705   0.916  14.681
 6650SOL    HW231579   2.607   0.928  14.797
 6651SOL     OW31580   3.132   4.679  12.959
 6651SOL    HW131581   3.148   4.682  13.054
 6651SOL    HW231582   3.091   4.762  12.939
 6652SOL     OW31583   2.887   1.943  14.346
 6652SOL    HW131584   2.811   1.996  14.370
 6652SOL    HW231585   2.871   1.919  14.254
 6653SOL     OW31586   2.425   2.432  15.198
 6653SOL    HW131587   2.513   2.424  15.235
 6653SOL    HW231588   2.426   2.514  15.150
 6654SOL     OW31589   3.005   2.356  14.825
 6654SOL    HW131590   3.063   2.430  14.806
 6654SOL    HW231591   3.055   2.279  14.800
 6655SOL     OW31592   1.988   2.382  15.428
 6655SOL    HW131593   1.980   2.432  15.347
 6655SOL    HW231594   2.082   2.376  15.445
 6656SOL     OW31595   2.001   1.508  14.595
 6656SOL    HW131596   2.043   1.440  14.541
 6656SOL    HW231597   1.966   1.570  14.532
 6657SOL     OW31598   1.736   2.223  12.620
 6657SOL    HW131599   1.827   2.204  12.641
 6657SOL    HW231600   1.706   2.281  12.690
 6658SOL     OW31601   3.659   4.615  13.819
 6658SOL    HW131602   3.634   4.652  13.904
 6658SOL    HW231603   3.623   4.677  13.755
 6659SOL     OW31604   2.335   3.707  13.250
 6659SOL    HW131605   2.407   3.680  13.193
 6659SOL    HW231606   2.284   3.769  13.197
 6660SOL     OW31607   2.403   2.907  14.576
 6660SOL    HW131608   2.427   2.984  14.525
 6660SOL    HW231609   2.486   2.863  14.595
 6661SOL     OW31610   3.227   2.290  13.705
 6661SOL    HW131611   3.135   2.266  13.721
 6661SOL    HW231612   3.277   2.217  13.743
 6662SOL     OW31613   1.647   2.899  15.349
 6662SOL    HW131614   1.720   2.841  15.368
 6662SOL    HW231615   1.661   2.928  15.259
 6663SOL     OW31616   2.088   2.081  15.295
 6663SOL    HW131617   2.090   2.168  15.255
 6663SOL    HW231618   2.138   2.091  15.376
 6664SOL     OW31619   3.605   2.307  13.603
 6664SOL    HW131620   3.602   2.251  13.526
 6664SOL    HW231621   3.650   2.254  13.669
 6665SOL     OW31622   2.694   2.381  15.219
 6665SOL    HW131623   2.748   2.445  15.172
 6665SOL    HW231624   2.713   2.396  15.311
 6666SOL     OW31625   2.264   1.563  14.775
 6666SOL    HW131626   2.273   1.471  14.797
 6666SOL    HW231627   2.293   1.610  14.853
 6667SOL     OW31628   0.341   1.106  15.974
 6667SOL    HW131629   0.423   1.111  16.023
 6667SOL    HW231630   0.337   1.015  15.945
 6668SOL     OW31631   3.009   2.351  15.454
 6668SOL    HW131632   3.025   2.423  15.393
 6668SOL    HW231633   3.096   2.319  15.477
 6669SOL     OW31634   1.707   2.149  14.563
 6669SOL    HW131635   1.785   2.093  14.570
 6669SOL    HW231636   1.708   2.200  14.644
 6670SOL     OW31637   1.019   2.350  14.120
 6670SOL    HW131638   0.965   2.271  14.114
 6670SOL    HW231639   1.045   2.367  14.029
 6671SOL     OW31640   1.790   2.215  15.356
 6671SOL    HW131641   1.850   2.276  15.398
 6671SOL    HW231642   1.846   2.142  15.327
 6672SOL     OW31643   2.073   1.756  14.996
 6672SOL    HW131644   2.037   1.728  15.080
 6672SOL    HW231645   2.160   1.718  14.992
 6673SOL     OW31646   2.275   2.532  14.324
 6673SOL    HW131647   2.339   2.576  14.268
 6673SOL    HW231648   2.301   2.439  14.321
 6674SOL     OW31649   2.879   2.513  15.058
 6674SOL    HW131650   2.932   2.593  15.068
 6674SOL    HW231651   2.935   2.453  15.009
 6675SOL     OW31652   3.059   3.025  15.353
 6675SOL    HW131653   3.086   2.961  15.287
 6675SOL    HW231654   3.113   3.102  15.334
 6676SOL     OW31655   2.256   2.330  15.393
 6676SOL    HW131656   2.216   2.324  15.306
 6676SOL    HW231657   2.345   2.362  15.377
 6677SOL     OW31658   2.399   2.750  15.363
 6677SOL    HW131659   2.457   2.694  15.415
 6677SOL    HW231660   2.382   2.699  15.283
 6678SOL     OW31661   3.435   2.528  17.108
 6678SOL    HW131662   3.473   2.505  17.023
 6678SOL    HW231663   3.511   2.546  17.164
 6679SOL     OW31664   2.369   3.293  14.172
 6679SOL    HW131665   2.448   3.334  14.135
 6679SOL    HW231666   2.300   3.358  14.158
 6680SOL     OW31667   2.988   2.090  16.142
 6680SOL    HW131668   2.935   2.166  16.117
 6680SOL    HW231669   3.019   2.110  16.231
 6681SOL     OW31670   2.102   2.286  14.551
 6681SOL    HW131671   2.179   2.254  14.504
 6681SOL    HW231672   2.086   2.373  14.514
 6682SOL     OW31673   3.110   2.568  15.302
 6682SOL    HW131674   3.075   2.629  15.237
 6682SOL    HW231675   3.201   2.553  15.275
 6683SOL     OW31676   3.544   2.199  15.131
 6683SOL    HW131677   3.523   2.134  15.065
 6683SOL    HW231678   3.470   2.197  15.192
 6684SOL     OW31679   3.271   1.811  15.400
 6684SOL    HW131680   3.301   1.722  15.416
 6684SOL    HW231681   3.177   1.802  15.385
 6685SOL     OW31682   3.500   2.888  15.980
 6685SOL    HW131683   3.494   2.794  15.966
 6685SOL    HW231684   3.433   2.926  15.923
 6686SOL     OW31685   2.607   2.583  15.476
 6686SOL    HW131686   2.686   2.634  15.462
 6686SOL    HW231687   2.638   2.496  15.501
 6687SOL     OW31688   1.855   2.720  15.365
 6687SOL    HW131689   1.941   2.762  15.369
 6687SOL    HW231690   1.861   2.660  15.291
 6688SOL     OW31691   3.672   2.575  16.246
 6688SOL    HW131692   3.590   2.529  16.264
 6688SOL    HW231693   3.732   2.543  16.314
 6689SOL     OW31694   2.136   2.841  15.392
 6689SOL    HW131695   2.163   2.932  15.380
 6689SOL    HW231696   2.215   2.790  15.377
 6690SOL     OW31697   1.416   2.841  15.528
 6690SOL    HW131698   1.451   2.829  15.616
 6690SOL    HW231699   1.493   2.849  15.472
 6691SOL     OW31700   1.428   1.990  21.698
 6691SOL    HW131701   1.442   2.063  21.637
 6691SOL    HW231702   1.333   1.980  21.702
 6692SOL     OW31703   2.703   3.708  17.144
 6692SOL    HW131704   2.701   3.771  17.072
 6692SOL    HW231705   2.613   3.677  17.151
 6693SOL     OW31706   3.559   1.179  26.427
 6693SOL    HW131707   3.584   1.086  26.431
 6693SOL    HW231708   3.616   1.216  26.360
 6694SOL     OW31709   3.857   0.572   8.816
 6694SOL    HW131710   3.796   0.510   8.858
 6694SOL    HW231711   3.913   0.602   8.888
 6695SOL     OW31712   0.956   2.011  17.974
 6695SOL    HW131713   0.935   2.089  17.922
 6695SOL    HW231714   0.935   1.938  17.916
 6696SOL     OW31715   1.967   3.520  16.964
 6696SOL    HW131716   1.963   3.593  16.903
 6696SOL    HW231717   1.895   3.463  16.939
 6697SOL     OW31718   2.441   0.371  16.826
 6697SOL    HW131719   2.499   0.380  16.901
 6697SOL    HW231720   2.500   0.374  16.750
 6698SOL     OW31721   2.414   2.630  16.859
 6698SOL    HW131722   2.320   2.620  16.842
 6698SOL    HW231723   2.427   2.587  16.944
 6699SOL     OW31724   1.877   0.021   5.111
 6699SOL    HW131725   1.828   4.722   5.101
 6699SOL    HW231726   1.951   4.780   5.167
 6700SOL     OW31727   1.700   2.113   0.918
 6700SOL    HW131728   1.605   2.097   0.914
 6700SOL    HW231729   1.725   2.128   0.827
 6701SOL     OW31730   0.565   0.153  16.962
 6701SOL    HW131731   0.537   0.230  16.912
 6701SOL    HW231732   0.649   0.129  16.923
 6702SOL     OW31733   4.360   3.941  16.050
 6702SOL    HW131734   4.335   3.994  16.126
 6702SOL    HW231735   4.422   3.995  16.002
 6703SOL     OW31736   2.313   1.462  18.304
 6703SOL    HW131737   2.259   1.514  18.243
 6703SOL    HW231738   2.252   1.399  18.342
 6704SOL     OW31739   3.062   0.785  18.060
 6704SOL    HW131740   3.012   0.860  18.028
 6704SOL    HW231741   3.041   0.781  18.154
 6705SOL     OW31742   0.168   3.312   0.355
 6705SOL    HW131743   0.194   3.300   0.263
 6705SOL    HW231744   0.073   3.304   0.354
 6706SOL     OW31745   0.859   3.946  17.958
 6706SOL    HW131746   0.777   3.903  17.934
 6706SOL    HW231747   0.923   3.913  17.895
 6707SOL     OW31748   2.486   0.366  18.915
 6707SOL    HW131749   2.449   0.389  19.000
 6707SOL    HW231750   2.412   0.371  18.854
 6708SOL     OW31751   2.883   3.306  16.447
 6708SOL    HW131752   2.881   3.266  16.360
 6708SOL    HW231753   2.976   3.326  16.461
 6709SOL     OW31754   0.214   2.873  17.222
 6709SOL    HW131755   0.249   2.927  17.151
 6709SOL    HW231756   0.285   2.867  17.285
 6710SOL     OW31757   2.230   1.959  16.051
 6710SOL    HW131758   2.166   1.909  16.001
 6710SOL    HW231759   2.311   1.953  16.000
 6711SOL     OW31760   1.651   1.764   1.543
 6711SOL    HW131761   1.617   1.684   1.582
 6711SOL    HW231762   1.597   1.777   1.465
 6712SOL     OW31763   1.267   2.518  20.114
 6712SOL    HW131764   1.264   2.580  20.041
 6712SOL    HW231765   1.194   2.458  20.098
 6713SOL     OW31766   2.788   0.953  17.732
 6713SOL    HW131767   2.775   0.999  17.649
 6713SOL    HW231768   2.715   0.982  17.787
 6714SOL     OW31769   0.784   1.536  28.083
 6714SOL    HW131770   0.863   1.585  28.106
 6714SOL    HW231771   0.809   1.444  28.097
 6715SOL     OW31772   3.962   3.075  17.202
 6715SOL    HW131773   3.978   3.133  17.127
 6715SOL    HW231774   3.870   3.089  17.224
 6716SOL     OW31775   4.768   2.148  26.747
 6716SOL    HW131776   4.699   2.210  26.772
 6716SOL    HW231777   4.721   2.067  26.729
 6717SOL     OW31778   2.114   4.409  18.525
 6717SOL    HW131779   2.177   4.405  18.597
 6717SOL    HW231780   2.030   4.428  18.567
 6718SOL     OW31781   2.463   3.424  17.511
 6718SOL    HW131782   2.557   3.438  17.495
 6718SOL    HW231783   2.420   3.495  17.462
 6719SOL     OW31784   0.835   3.113  27.242
 6719SOL    HW131785   0.790   3.051  27.299
 6719SOL    HW231786   0.771   3.183  27.227
 6720SOL     OW31787   3.907   3.216  16.349
 6720SOL    HW131788   3.978   3.216  16.285
 6720SOL    HW231789   3.952   3.211  16.434
 6721SOL     OW31790   1.876   2.324  18.037
 6721SOL    HW131791   1.925   2.277  17.969
 6721SOL    HW231792   1.904   2.415  18.026
 6722SOL     OW31793   2.071   2.493  17.424
 6722SOL    HW131794   2.046   2.522  17.512
 6722SOL    HW231795   1.987   2.476  17.380
 6723SOL     OW31796   0.480   0.468   7.681
 6723SOL    HW131797   0.514   0.424   7.760
 6723SOL    HW231798   0.428   0.401   7.637
 6724SOL     OW31799   0.907   1.281  25.150
 6724SOL    HW131800   0.996   1.308  25.172
 6724SOL    HW231801   0.914   1.242  25.062
 6725SOL     OW31802   1.891   2.122  17.469
 6725SOL    HW131803   1.920   2.188  17.532
 6725SOL    HW231804   1.844   2.172  17.402
 6726SOL     OW31805   4.532   1.124  16.533
 6726SOL    HW131806   4.441   1.098  16.515
 6726SOL    HW231807   4.553   1.188  16.465
 6727SOL     OW31808   4.641   4.530  26.381
 6727SOL    HW131809   4.549   4.514  26.364
 6727SOL    HW231810   4.665   4.602  26.323
 6728SOL     OW31811   1.174   4.280  17.677
 6728SOL    HW131812   1.227   4.259  17.753
 6728SOL    HW231813   1.222   4.351  17.633
 6729SOL     OW31814   2.537   2.871  16.905
 6729SOL    HW131815   2.480   2.802  16.871
 6729SOL    HW231816   2.618   2.825  16.929
 6730SOL     OW31817   0.264   2.048   8.320
 6730SOL    HW131818   0.269   1.953   8.327
 6730SOL    HW231819   0.170   2.067   8.327
 6731SOL     OW31820   4.716   3.424  18.957
 6731SOL    HW131821   4.708   3.520  18.954
 6731SOL    HW231822   4.772   3.402  18.883
 6732SOL     OW31823   3.702   0.834  15.446
 6732SOL    HW131824   3.615   0.799  15.426
 6732SOL    HW231825   3.761   0.786  15.388
 6733SOL     OW31826   1.777   4.519   5.085
 6733SOL    HW131827   1.691   4.509   5.125
 6733SOL    HW231828   1.759   4.547   4.995
 6734SOL     OW31829   2.775   4.605  11.102
 6734SOL    HW131830   2.828   4.568  11.172
 6734SOL    HW231831   2.693   4.630  11.144
 6735SOL     OW31832   1.514   4.712   8.101
 6735SOL    HW131833   1.457   4.742   8.030
 6735SOL    HW231834   1.570   0.004   8.121
 6736SOL     OW31835   2.614   3.784  16.413
 6736SOL    HW131836   2.541   3.817  16.361
 6736SOL    HW231837   2.660   3.724  16.354
 6737SOL     OW31838   0.209   3.166   4.600
 6737SOL    HW131839   0.158   3.150   4.680
 6737SOL    HW231840   0.183   3.254   4.572
 6738SOL     OW31841   2.874   0.627  17.235
 6738SOL    HW131842   2.791   0.601  17.275
 6738SOL    HW231843   2.858   0.621  17.141
 6739SOL     OW31844   1.447   4.425   8.079
 6739SOL    HW131845   1.514   4.476   8.125
 6739SOL    HW231846   1.496   4.375   8.013
 6740SOL     OW31847   1.491   0.110  19.395
 6740SOL    HW131848   1.416   0.050  19.392
 6740SOL    HW231849   1.459   0.191  19.356
 6741SOL     OW31850   0.859   4.740  17.199
 6741SOL    HW131851   0.792   4.688  17.154
 6741SOL    HW231852   0.843   4.723  17.292
 6742SOL     OW31853   3.891   1.713  26.538
 6742SOL    HW131854   3.985   1.706  26.555
 6742SOL    HW231855   3.885   1.759  26.455
 6743SOL     OW31856   4.531   2.461  25.960
 6743SOL    HW131857   4.471   2.455  26.034
 6743SOL    HW231858   4.614   2.490  25.999
 6744SOL     OW31859   3.263   4.446   2.885
 6744SOL    HW131860   3.305   4.362   2.867
 6744SOL    HW231861   3.265   4.453   2.981
 6745SOL     OW31862   3.375   3.971   5.509
 6745SOL    HW131863   3.310   3.912   5.470
 6745SOL    HW231864   3.417   3.920   5.577
 6746SOL     OW31865   3.856   3.252   2.535
 6746SOL    HW131866   3.862   3.230   2.442
 6746SOL    HW231867   3.769   3.222   2.561
 6747SOL     OW31868   1.302   1.397   1.988
 6747SOL    HW131869   1.355   1.476   1.974
 6747SOL    HW231870   1.299   1.387   2.083
 6748SOL     OW31871   3.567   1.554   6.107
 6748SOL    HW131872   3.575   1.472   6.059
 6748SOL    HW231873   3.479   1.586   6.086
 6749SOL     OW31874   4.534   4.537  18.176
 6749SOL    HW131875   4.582   4.607  18.222
 6749SOL    HW231876   4.491   4.581  18.103
 6750SOL     OW31877   3.936   4.579   2.193
 6750SOL    HW131878   3.882   4.606   2.119
 6750SOL    HW231879   3.984   4.503   2.161
 6751SOL     OW31880   3.727   2.082  22.948
 6751SOL    HW131881   3.677   2.001  22.961
 6751SOL    HW231882   3.660   2.150  22.935
 6752SOL     OW31883   0.879   2.562  22.982
 6752SOL    HW131884   0.951   2.501  22.967
 6752SOL    HW231885   0.801   2.506  22.989
 6753SOL     OW31886   2.060   4.337  22.321
 6753SOL    HW131887   2.142   4.294  22.297
 6753SOL    HW231888   2.077   4.373  22.408
 6754SOL     OW31889   3.077   2.913  24.210
 6754SOL    HW131890   2.988   2.937  24.184
 6754SOL    HW231891   3.134   2.972  24.159
 6755SOL     OW31892   4.552   0.998  23.322
 6755SOL    HW131893   4.551   1.038  23.409
 6755SOL    HW231894   4.495   0.922  23.330
 6756SOL     OW31895   2.152   3.630   7.531
 6756SOL    HW131896   2.079   3.688   7.510
 6756SOL    HW231897   2.214   3.685   7.578
 6757SOL     OW31898   3.974   2.187  17.801
 6757SOL    HW131899   4.052   2.202  17.855
 6757SOL    HW231900   3.931   2.273  17.797
 6758SOL     OW31901   4.641   0.859   2.347
 6758SOL    HW131902   4.555   0.850   2.306
 6758SOL    HW231903   4.641   0.948   2.383
 6759SOL     OW31904   2.003   0.262  21.841
 6759SOL    HW131905   2.008   0.184  21.896
 6759SOL    HW231906   2.077   0.316  21.870
 6760SOL     OW31907   0.335   3.022   4.949
 6760SOL    HW131908   0.403   3.034   5.015
 6760SOL    HW231909   0.330   2.927   4.936
 6761SOL     OW31910   1.630   3.404  25.163
 6761SOL    HW131911   1.670   3.380  25.247
 6761SOL    HW231912   1.603   3.495  25.174
 6762SOL     OW31913   2.620   1.304  24.005
 6762SOL    HW131914   2.714   1.319  24.016
 6762SOL    HW231915   2.594   1.256  24.084
 6763SOL     OW31916   1.977   4.548  11.553
 6763SOL    HW131917   1.911   4.495  11.599
 6763SOL    HW231918   1.983   4.628  11.605
 6764SOL     OW31919   2.076   1.518  19.879
 6764SOL    HW131920   2.101   1.604  19.846
 6764SOL    HW231921   1.984   1.508  19.854
 6765SOL     OW31922   4.229   0.765  24.734
 6765SOL    HW131923   4.166   0.723  24.792
 6765SOL    HW231924   4.179   0.834  24.691
 6766SOL     OW31925   0.214   4.713   1.035
 6766SOL    HW131926   0.159   4.651   0.988
 6766SOL    HW231927   0.278   4.743   0.970
 6767SOL     OW31928   1.619   4.649   0.214
 6767SOL    HW131929   1.641   4.668   0.305
 6767SOL    HW231930   1.599   4.555   0.213
 6768SOL     OW31931   1.821   1.377  17.612
 6768SOL    HW131932   1.780   1.374  17.526
 6768SOL    HW231933   1.829   1.470  17.632
 6769SOL     OW31934   3.384   3.529   2.980
 6769SOL    HW131935   3.358   3.590   3.049
 6769SOL    HW231936   3.472   3.557   2.954
 6770SOL     OW31937   4.019   4.259   1.421
 6770SOL    HW131938   4.106   4.264   1.382
 6770SOL    HW231939   4.014   4.336   1.478
 6771SOL     OW31940   1.189   1.676   4.497
 6771SOL    HW131941   1.271   1.712   4.532
 6771SOL    HW231942   1.121   1.731   4.533
 6772SOL     OW31943   0.677   0.604  22.217
 6772SOL    HW131944   0.731   0.676  22.184
 6772SOL    HW231945   0.737   0.530  22.226
 6773SOL     OW31946   2.433   3.092  25.346
 6773SOL    HW131947   2.506   3.036  25.316
 6773SOL    HW231948   2.355   3.046  25.315
 6774SOL     OW31949   2.104   1.567  23.491
 6774SOL    HW131950   2.097   1.621  23.412
 6774SOL    HW231951   2.189   1.591  23.529
 6775SOL     OW31952   4.373   1.780   9.051
 6775SOL    HW131953   4.399   1.850   9.111
 6775SOL    HW231954   4.291   1.746   9.086
 6776SOL     OW31955   1.671   3.292   6.794
 6776SOL    HW131956   1.721   3.270   6.873
 6776SOL    HW231957   1.652   3.207   6.753
 6777SOL     OW31958   3.113   2.542  11.000
 6777SOL    HW131959   3.198   2.546  10.954
 6777SOL    HW231960   3.094   2.448  11.004
 6778SOL     OW31961   3.761   3.622   6.956
 6778SOL    HW131962   3.698   3.693   6.946
 6778SOL    HW231963   3.836   3.648   6.902
 6779SOL     OW31964   3.725   2.267   6.586
 6779SOL    HW131965   3.805   2.224   6.555
 6779SOL    HW231966   3.703   2.329   6.517
 6780SOL     OW31967   1.213   2.368  21.519
 6780SOL    HW131968   1.259   2.325  21.446
 6780SOL    HW231969   1.188   2.296  21.577
 6781SOL     OW31970   3.438   0.416   2.072
 6781SOL    HW131971   3.528   0.396   2.098
 6781SOL    HW231972   3.384   0.361   2.128
 6782SOL     OW31973   4.629   1.251  23.886
 6782SOL    HW131974   4.540   1.270  23.858
 6782SOL    HW231975   4.681   1.324  23.851
 6783SOL     OW31976   0.198   2.850   1.856
 6783SOL    HW131977   0.218   2.943   1.850
 6783SOL    HW231978   0.263   2.808   1.799
 6784SOL     OW31979   4.074   2.368  21.786
 6784SOL    HW131980   4.072   2.281  21.748
 6784SOL    HW231981   4.007   2.417  21.738
 6785SOL     OW31982   4.243   0.600  20.590
 6785SOL    HW131983   4.255   0.669  20.525
 6785SOL    HW231984   4.290   0.630  20.668
 6786SOL     OW31985   3.898   3.698  16.739
 6786SOL    HW131986   3.904   3.604  16.757
 6786SOL    HW231987   3.974   3.737  16.782
 6787SOL     OW31988   2.932   3.837  25.756
 6787SOL    HW131989   2.923   3.904  25.689
 6787SOL    HW231990   2.935   3.754  25.707
 6788SOL     OW31991   3.033   0.667  20.536
 6788SOL    HW131992   2.981   0.595  20.500
 6788SOL    HW231993   3.001   0.745  20.490
 6789SOL     OW31994   1.402   1.717  24.008
 6789SOL    HW131995   1.480   1.764  23.979
 6789SOL    HW231996   1.378   1.661  23.935
 6790SOL     OW31997   3.412   2.634  23.782
 6790SOL    HW131998   3.475   2.701  23.810
 6790SOL    HW231999   3.464   2.573  23.730
 6791SOL     OW32000   1.019   2.636   1.382
 6791SOL    HW132001   0.997   2.728   1.373
 6791SOL    HW232002   0.951   2.600   1.438
 6792SOL     OW32003   1.089   2.819   5.895
 6792SOL    HW132004   1.152   2.780   5.956
 6792SOL    HW232005   1.101   2.769   5.814
 6793SOL     OW32006   2.286   0.286  20.450
 6793SOL    HW132007   2.265   0.372  20.485
 6793SOL    HW232008   2.264   0.225  20.521
 6794SOL     OW32009   1.077   0.880  18.026
 6794SOL    HW132010   1.089   0.954  17.966
 6794SOL    HW232011   1.101   0.914  18.112
 6795SOL     OW32012   4.383   0.291  24.216
 6795SOL    HW132013   4.325   0.259  24.147
 6795SOL    HW232014   4.342   0.262  24.297
 6796SOL     OW32015   2.701   2.217  23.096
 6796SOL    HW132016   2.681   2.126  23.119
 6796SOL    HW232017   2.649   2.235  23.018
 6797SOL     OW32018   2.240   2.767   7.408
 6797SOL    HW132019   2.251   2.756   7.314
 6797SOL    HW232020   2.163   2.715   7.429
 6798SOL     OW32021   3.327   4.263   5.256
 6798SOL    HW132022   3.420   4.244   5.268
 6798SOL    HW232023   3.326   4.352   5.221
 6799SOL     OW32024   0.815   0.457  12.460
 6799SOL    HW132025   0.787   0.432  12.548
 6799SOL    HW232026   0.902   0.418  12.452
 6800SOL     OW32027   2.700   2.524   7.811
 6800SOL    HW132028   2.701   2.573   7.728
 6800SOL    HW232029   2.769   2.459   7.800
 6801SOL     OW32030   4.161   3.620   5.223
 6801SOL    HW132031   4.221   3.576   5.163
 6801SOL    HW232032   4.219   3.664   5.286
 6802SOL     OW32033   0.399   4.702  21.536
 6802SOL    HW132034   0.477   4.706  21.482
 6802SOL    HW232035   0.404   4.780  21.592
 6803SOL     OW32036   0.236   0.161  23.947
 6803SOL    HW132037   0.228   0.200  23.860
 6803SOL    HW232038   0.145   0.148  23.976
 6804SOL     OW32039   4.023   0.406   1.355
 6804SOL    HW132040   4.056   0.494   1.335
 6804SOL    HW232041   3.957   0.389   1.288
 6805SOL     OW32042   3.050   0.951   2.506
 6805SOL    HW132043   3.085   1.030   2.546
 6805SOL    HW232044   2.957   0.971   2.491
 6806SOL     OW32045   2.274   1.488  22.860
 6806SOL    HW132046   2.202   1.436  22.897
 6806SOL    HW232047   2.345   1.480  22.923
 6807SOL     OW32048   1.653   3.983  18.774
 6807SOL    HW132049   1.719   4.048  18.796
 6807SOL    HW232050   1.587   3.991  18.843
 6808SOL     OW32051   1.465   3.465   9.418
 6808SOL    HW132052   1.434   3.380   9.450
 6808SOL    HW232053   1.560   3.459   9.421
 6809SOL     OW32054   1.112   2.364   1.580
 6809SOL    HW132055   1.137   2.434   1.520
 6809SOL    HW232056   1.188   2.354   1.638
 6810SOL     OW32057   4.178   4.296  22.923
 6810SOL    HW132058   4.226   4.222  22.886
 6810SOL    HW232059   4.235   4.330  22.993
 6811SOL     OW32060   3.738   1.128  21.126
 6811SOL    HW132061   3.663   1.178  21.096
 6811SOL    HW232062   3.764   1.170  21.208
 6812SOL     OW32063   0.827   2.384   2.210
 6812SOL    HW132064   0.905   2.328   2.215
 6812SOL    HW232065   0.754   2.325   2.226
 6813SOL     OW32066   1.051   1.971  27.554
 6813SOL    HW132067   1.134   2.016  27.542
 6813SOL    HW232068   1.006   1.979  27.470
 6814SOL     OW32069   3.534   1.691  22.782
 6814SOL    HW132070   3.480   1.686  22.861
 6814SOL    HW232071   3.622   1.668  22.812
 6815SOL     OW32072   1.009   2.764   4.014
 6815SOL    HW132073   0.929   2.804   3.979
 6815SOL    HW232074   1.078   2.826   3.992
 6816SOL     OW32075   4.681   0.859  10.246
 6816SOL    HW132076   4.694   0.783  10.189
 6816SOL    HW232077   4.686   0.934  10.188
 6817SOL     OW32078   0.651   3.731   1.295
 6817SOL    HW132079   0.683   3.815   1.262
 6817SOL    HW232080   0.560   3.748   1.320
 6818SOL     OW32081   0.093   2.171  10.794
 6818SOL    HW132082   0.034   2.241  10.820
 6818SOL    HW232083   0.134   2.142  10.876
 6819SOL     OW32084   4.556   0.719  28.425
 6819SOL    HW132085   4.474   0.720  28.376
 6819SOL    HW232086   4.624   0.716  28.358
 6820SOL     OW32087   3.531   1.072  24.976
 6820SOL    HW132088   3.616   1.109  24.955
 6820SOL    HW232089   3.550   0.992  25.024
 6821SOL     OW32090   3.229   2.416   2.732
 6821SOL    HW132091   3.151   2.395   2.680
 6821SOL    HW232092   3.195   2.468   2.804
 6822SOL     OW32093   1.541   4.483  17.192
 6822SOL    HW132094   1.613   4.539  17.223
 6822SOL    HW232095   1.584   4.406  17.157
 6823SOL     OW32096   1.054   2.296   4.648
 6823SOL    HW132097   0.964   2.273   4.674
 6823SOL    HW232098   1.083   2.221   4.596
 6824SOL     OW32099   1.273   0.959   3.704
 6824SOL    HW132100   1.242   0.888   3.648
 6824SOL    HW232101   1.264   0.926   3.793
 6825SOL     OW32102   4.526   2.118   8.212
 6825SOL    HW132103   4.488   2.201   8.183
 6825SOL    HW232104   4.450   2.060   8.224
 6826SOL     OW32105   3.875   0.492  18.544
 6826SOL    HW132106   3.911   0.409  18.513
 6826SOL    HW232107   3.852   0.540  18.465
 6827SOL     OW32108   0.430   1.980  21.767
 6827SOL    HW132109   0.525   1.983  21.758
 6827SOL    HW232110   0.414   1.914  21.834
 6828SOL     OW32111   2.206   0.432  17.751
 6828SOL    HW132112   2.159   0.351  17.768
 6828SOL    HW232113   2.137   0.497  17.736
 6829SOL     OW32114   3.778   0.491   7.089
 6829SOL    HW132115   3.716   0.516   7.158
 6829SOL    HW232116   3.856   0.544   7.107
 6830SOL     OW32117   0.426   3.202  18.692
 6830SOL    HW132118   0.443   3.284  18.737
 6830SOL    HW232119   0.503   3.148  18.710
 6831SOL     OW32120   4.223   3.705  24.612
 6831SOL    HW132121   4.174   3.778  24.649
 6831SOL    HW232122   4.191   3.697  24.522
 6832SOL     OW32123   1.481   4.501  19.323
 6832SOL    HW132124   1.477   4.406  19.316
 6832SOL    HW232125   1.390   4.529  19.323
 6833SOL     OW32126   1.686   2.415  24.570
 6833SOL    HW132127   1.616   2.448  24.514
 6833SOL    HW232128   1.728   2.346  24.518
 6834SOL     OW32129   0.808   0.458   6.409
 6834SOL    HW132130   0.820   0.487   6.499
 6834SOL    HW232131   0.814   0.363   6.413
 6835SOL     OW32132   3.773   2.966   7.432
 6835SOL    HW132133   3.693   2.952   7.381
 6835SOL    HW232134   3.744   2.960   7.524
 6836SOL     OW32135   0.418   0.683  19.397
 6836SOL    HW132136   0.423   0.666  19.303
 6836SOL    HW232137   0.465   0.609  19.437
 6837SOL     OW32138   1.491   0.766  27.889
 6837SOL    HW132139   1.486   0.676  27.920
 6837SOL    HW232140   1.478   0.760  27.794
 6838SOL     OW32141   1.271   2.454  19.150
 6838SOL    HW132142   1.240   2.487  19.065
 6838SOL    HW232143   1.285   2.360  19.134
 6839SOL     OW32144   3.424   0.940   8.586
 6839SOL    HW132145   3.484   0.902   8.650
 6839SOL    HW232146   3.438   0.890   8.507
 6840SOL     OW32147   0.144   0.407  27.294
 6840SOL    HW132148   0.067   0.353  27.274
 6840SOL    HW232149   0.194   0.408  27.212
 6841SOL     OW32150   0.313   4.282   7.590
 6841SOL    HW132151   0.325   4.298   7.497
 6841SOL    HW232152   0.236   4.335   7.613
 6842SOL     OW32153   1.948   3.529   1.973
 6842SOL    HW132154   2.013   3.463   1.998
 6842SOL    HW232155   1.871   3.478   1.948
 6843SOL     OW32156   4.598   0.175   4.291
 6843SOL    HW132157   4.608   0.137   4.379
 6843SOL    HW232158   4.638   0.111   4.232
 6844SOL     OW32159   4.465   1.133  26.460
 6844SOL    HW132160   4.444   1.151  26.551
 6844SOL    HW232161   4.537   1.192  26.439
 6845SOL     OW32162   2.708   4.074   2.376
 6845SOL    HW132163   2.738   4.149   2.325
 6845SOL    HW232164   2.634   4.039   2.326
 6846SOL     OW32165   3.481   0.306   3.756
 6846SOL    HW132166   3.497   0.395   3.787
 6846SOL    HW232167   3.394   0.308   3.719
 6847SOL     OW32168   0.556   1.105  18.232
 6847SOL    HW132169   0.633   1.064  18.271
 6847SOL    HW232170   0.488   1.038  18.236
 6848SOL     OW32171   2.459   1.064  25.244
 6848SOL    HW132172   2.496   1.114  25.172
 6848SOL    HW232173   2.370   1.044  25.216
 6849SOL     OW32174   2.814   3.089  27.286
 6849SOL    HW132175   2.787   3.074  27.376
 6849SOL    HW232176   2.897   3.137  27.293
 6850SOL     OW32177   1.550   1.010   2.948
 6850SOL    HW132178   1.517   1.092   2.985
 6850SOL    HW232179   1.624   0.987   3.004
 6851SOL     OW32180   3.911   4.538  22.950
 6851SOL    HW132181   4.000   4.549  22.915
 6851SOL    HW232182   3.907   4.447  22.977
 6852SOL     OW32183   1.685   0.867  21.181
 6852SOL    HW132184   1.724   0.954  21.175
 6852SOL    HW232185   1.671   0.840  21.090
 6853SOL     OW32186   2.981   2.473   7.232
 6853SOL    HW132187   2.887   2.486   7.241
 6853SOL    HW232188   3.007   2.428   7.312
 6854SOL     OW32189   0.882   2.641  25.888
 6854SOL    HW132190   0.834   2.560  25.868
 6854SOL    HW232191   0.962   2.635  25.836
 6855SOL     OW32192   3.242   2.710  22.977
 6855SOL    HW132193   3.153   2.679  22.996
 6855SOL    HW232194   3.272   2.655  22.906
 6856SOL     OW32195   1.722   1.150  11.320
 6856SOL    HW132196   1.779   1.158  11.397
 6856SOL    HW232197   1.776   1.183  11.248
 6857SOL     OW32198   0.742   0.981   2.116
 6857SOL    HW132199   0.751   0.942   2.029
 6857SOL    HW232200   0.822   1.031   2.129
 6858SOL     OW32201   3.391   4.513  23.520
 6858SOL    HW132202   3.485   4.497  23.533
 6858SOL    HW232203   3.387   4.599  23.478
 6859SOL     OW32204   0.668   0.948   0.170
 6859SOL    HW132205   0.580   0.922   0.197
 6859SOL    HW232206   0.675   1.040   0.195
 6860SOL     OW32207   3.870   4.415   2.410
 6860SOL    HW132208   3.850   4.417   2.317
 6860SOL    HW232209   3.910   4.330   2.425
 6861SOL     OW32210   4.056   2.640  26.531
 6861SOL    HW132211   3.969   2.664  26.564
 6861SOL    HW232212   4.042   2.554  26.490
 6862SOL     OW32213   0.276   2.405  20.157
 6862SOL    HW132214   0.287   2.316  20.190
 6862SOL    HW232215   0.182   2.421  20.165
 6863SOL     OW32216   4.689   0.440   4.592
 6863SOL    HW132217   4.687   0.523   4.639
 6863SOL    HW232218   4.667   0.375   4.658
 6864SOL     OW32219   0.052   3.799   5.094
 6864SOL    HW132220   0.116   3.733   5.068
 6864SOL    HW232221   0.020   3.769   5.179
 6865SOL     OW32222   2.839   0.494  27.932
 6865SOL    HW132223   2.833   0.515  27.839
 6865SOL    HW232224   2.759   0.445  27.951
 6866SOL     OW32225   1.554   3.831  27.640
 6866SOL    HW132226   1.498   3.755  27.624
 6866SOL    HW232227   1.577   3.825  27.733
 6867SOL     OW32228   4.555   0.287   9.897
 6867SOL    HW132229   4.509   0.204   9.910
 6867SOL    HW232230   4.632   0.280   9.954
 6868SOL     OW32231   2.651   2.354  26.911
 6868SOL    HW132232   2.563   2.375  26.943
 6868SOL    HW232233   2.638   2.324  26.822
 6869SOL     OW32234   1.744   1.335  20.580
 6869SOL    HW132235   1.708   1.386  20.506
 6869SOL    HW232236   1.713   1.382  20.658
 6870SOL     OW32237   4.698   0.189  20.050
 6870SOL    HW132238   4.699   0.253  19.980
 6870SOL    HW232239   4.759   0.223  20.116
 6871SOL     OW32240   1.894   1.917  24.049
 6871SOL    HW132241   1.987   1.894  24.049
 6871SOL    HW232242   1.856   1.864  24.119
 6872SOL     OW32243   3.336   0.864   7.473
 6872SOL    HW132244   3.248   0.851   7.439
 6872SOL    HW232245   3.365   0.777   7.500
 6873SOL     OW32246   1.705   0.191   1.209
 6873SOL    HW132247   1.723   0.112   1.159
 6873SOL    HW232248   1.697   0.162   1.300
 6874SOL     OW32249   4.456   4.559   4.113
 6874SOL    HW132250   4.468   4.480   4.165
 6874SOL    HW232251   4.368   4.552   4.078
 6875SOL     OW32252   0.207   3.795  26.825
 6875SOL    HW132253   0.230   3.714  26.779
 6875SOL    HW232254   0.130   3.829  26.778
 6876SOL     OW32255   2.718   3.521   5.766
 6876SOL    HW132256   2.731   3.606   5.724
 6876SOL    HW232257   2.750   3.532   5.855
 6877SOL     OW32258   2.022   1.721  24.926
 6877SOL    HW132259   2.015   1.746  24.834
 6877SOL    HW232260   2.026   1.804  24.973
 6878SOL     OW32261   4.472   1.724   6.476
 6878SOL    HW132262   4.470   1.712   6.571
 6878SOL    HW232263   4.547   1.780   6.460
 6879SOL     OW32264   2.915   0.040   2.067
 6879SOL    HW132265   2.939   0.001   1.983
 6879SOL    HW232266   2.857   0.113   2.045
 6880SOL     OW32267   3.241   4.568  27.186
 6880SOL    HW132268   3.252   4.662  27.204
 6880SOL    HW232269   3.302   4.550  27.115
 6881SOL     OW32270   1.416   2.024  22.561
 6881SOL    HW132271   1.394   2.116  22.549
 6881SOL    HW232272   1.477   2.004  22.490
 6882SOL     OW32273   3.966   2.219  23.547
 6882SOL    HW132274   3.924   2.277  23.612
 6882SOL    HW232275   4.018   2.278  23.493
 6883SOL     OW32276   0.926   3.805   0.114
 6883SOL    HW132277   1.008   3.760   0.138
 6883SOL    HW232278   0.860   3.766   0.171
 6884SOL     OW32279   3.644   3.413   6.747
 6884SOL    HW132280   3.722   3.445   6.792
 6884SOL    HW232281   3.668   3.326   6.715
 6885SOL     OW32282   2.048   1.018   4.877
 6885SOL    HW132283   1.957   0.991   4.889
 6885SOL    HW232284   2.088   0.946   4.828
 6886SOL     OW32285   2.629   0.700  23.691
 6886SOL    HW132286   2.615   0.693  23.596
 6886SOL    HW232287   2.584   0.781  23.715
 6887SOL     OW32288   3.349   3.660  22.307
 6887SOL    HW132289   3.355   3.569  22.333
 6887SOL    HW232290   3.434   3.697  22.329
 6888SOL     OW32291   1.569   2.783   6.368
 6888SOL    HW132292   1.559   2.829   6.451
 6888SOL    HW232293   1.649   2.731   6.378
 6889SOL     OW32294   0.540   2.295   6.942
 6889SOL    HW132295   0.636   2.292   6.950
 6889SOL    HW232296   0.508   2.253   7.022
 6890SOL     OW32297   0.719   0.365   9.302
 6890SOL    HW132298   0.768   0.285   9.322
 6890SOL    HW232299   0.641   0.334   9.255
 6891SOL     OW32300   0.330   4.232  24.742
 6891SOL    HW132301   0.335   4.204  24.833
 6891SOL    HW232302   0.237   4.241  24.724
 6892SOL     OW32303   0.290   3.795   5.427
 6892SOL    HW132304   0.372   3.799   5.378
 6892SOL    HW232305   0.294   3.868   5.488
 6893SOL     OW32306   2.911   1.835  20.847
 6893SOL    HW132307   2.880   1.911  20.798
 6893SOL    HW232308   2.977   1.871  20.907
 6894SOL     OW32309   1.608   4.769  19.700
 6894SOL    HW132310   1.632   4.775  19.793
 6894SOL    HW232311   1.578   0.074  19.677
 6895SOL     OW32312   3.094   1.377  21.683
 6895SOL    HW132313   3.058   1.417  21.603
 6895SOL    HW232314   3.076   1.284  21.673
 6896SOL     OW32315   3.484   0.645   7.841
 6896SOL    HW132316   3.455   0.632   7.932
 6896SOL    HW232317   3.577   0.667   7.849
 6897SOL     OW32318   3.861   2.503  18.128
 6897SOL    HW132319   3.829   2.553  18.053
 6897SOL    HW232320   3.953   2.486  18.108
 6898SOL     OW32321   1.967   4.354  17.932
 6898SOL    HW132322   1.930   4.389  18.013
 6898SOL    HW232323   1.955   4.423  17.867
 6899SOL     OW32324   3.284   3.076  27.596
 6899SOL    HW132325   3.314   3.111  27.512
 6899SOL    HW232326   3.189   3.090  27.595
 6900SOL     OW32327   3.592   3.137  23.298
 6900SOL    HW132328   3.656   3.191  23.345
 6900SOL    HW232329   3.522   3.122  23.361
 6901SOL     OW32330   2.248   0.006  22.040
 6901SOL    HW132331   2.158   4.758  22.052
 6901SOL    HW232332   2.300   4.734  22.099
 6902SOL     OW32333   2.363   4.141   6.354
 6902SOL    HW132334   2.432   4.075   6.345
 6902SOL    HW232335   2.285   4.090   6.376
 6903SOL     OW32336   0.696   4.598   2.050
 6903SOL    HW132337   0.711   4.692   2.043
 6903SOL    HW232338   0.748   4.560   1.979
 6904SOL     OW32339   3.223   1.560  28.477
 6904SOL    HW132340   3.137   1.546  28.436
 6904SOL    HW232341   3.206   1.622   0.016
 6905SOL     OW32342   2.617   2.719   0.832
 6905SOL    HW132343   2.647   2.666   0.906
 6905SOL    HW232344   2.522   2.723   0.842
 6906SOL     OW32345   3.958   2.144  11.664
 6906SOL    HW132346   3.962   2.240  11.666
 6906SOL    HW232347   3.897   2.122  11.735
 6907SOL     OW32348   2.819   0.666   0.047
 6907SOL    HW132349   2.759   0.730   0.009
 6907SOL    HW232350   2.884   0.719   0.094
 6908SOL     OW32351   0.903   1.633   9.296
 6908SOL    HW132352   0.832   1.653   9.234
 6908SOL    HW232353   0.953   1.714   9.303
 6909SOL     OW32354   3.840   0.616  24.331
 6909SOL    HW132355   3.775   0.547  24.328
 6909SOL    HW232356   3.910   0.582  24.387
 6910SOL     OW32357   3.274   1.902   7.518
 6910SOL    HW132358   3.322   1.894   7.436
 6910SOL    HW232359   3.190   1.858   7.502
 6911SOL     OW32360   1.959   1.600   4.006
 6911SOL    HW132361   1.996   1.678   4.047
 6911SOL    HW232362   1.947   1.624   3.914
 6912SOL     OW32363   4.155   0.909   7.661
 6912SOL    HW132364   4.115   0.836   7.614
 6912SOL    HW232365   4.205   0.868   7.731
 6913SOL     OW32366   2.448   1.893   8.267
 6913SOL    HW132367   2.379   1.891   8.201
 6913SOL    HW232368   2.488   1.807   8.262
 6914SOL     OW32369   2.872   4.646   6.586
 6914SOL    HW132370   2.917   4.664   6.504
 6914SOL    HW232371   2.941   4.653   6.653
 6915SOL     OW32372   0.782   1.137  25.317
 6915SOL    HW132373   0.856   1.078  25.307
 6915SOL    HW232374   0.801   1.210  25.258
 6916SOL     OW32375   1.270   4.058  25.481
 6916SOL    HW132376   1.211   4.019  25.545
 6916SOL    HW232377   1.216   4.070  25.403
 6917SOL     OW32378   3.177   2.022  22.486
 6917SOL    HW132379   3.225   2.051  22.563
 6917SOL    HW232380   3.162   1.929  22.502
 6918SOL     OW32381   1.008   4.028   4.303
 6918SOL    HW132382   1.049   3.952   4.345
 6918SOL    HW232383   0.940   3.991   4.247
 6919SOL     OW32384   4.459   4.767  25.105
 6919SOL    HW132385   4.413   4.717  25.172
 6919SOL    HW232386   4.548   4.731  25.104
 6920SOL     OW32387   0.562   2.548  20.476
 6920SOL    HW132388   0.517   2.593  20.405
 6920SOL    HW232389   0.606   2.619  20.524
 6921SOL     OW32390   0.947   3.460   2.458
 6921SOL    HW132391   1.021   3.462   2.519
 6921SOL    HW232392   0.909   3.373   2.471
 6922SOL     OW32393   3.697   2.023  24.551
 6922SOL    HW132394   3.659   2.080  24.617
 6922SOL    HW232395   3.627   2.010  24.487
 6923SOL     OW32396   0.758   0.391  28.416
 6923SOL    HW132397   0.693   0.424  28.479
 6923SOL    HW232398   0.801   0.470  28.384
 6924SOL     OW32399   2.137   0.267  18.970
 6924SOL    HW132400   2.090   0.348  18.991
 6924SOL    HW232401   2.202   0.294  18.905
 6925SOL     OW32402   0.369   3.292   1.071
 6925SOL    HW132403   0.409   3.368   1.113
 6925SOL    HW232404   0.443   3.240   1.039
 6926SOL     OW32405   0.724   0.552  20.182
 6926SOL    HW132406   0.690   0.474  20.137
 6926SOL    HW232407   0.749   0.611  20.112
 6927SOL     OW32408   1.558   1.464  27.353
 6927SOL    HW132409   1.546   1.559  27.349
 6927SOL    HW232410   1.553   1.436  27.262
 6928SOL     OW32411   2.798   0.265   0.412
 6928SOL    HW132412   2.735   0.263   0.484
 6928SOL    HW232413   2.767   0.336   0.355
 6929SOL     OW32414   4.400   0.752  16.588
 6929SOL    HW132415   4.458   0.766  16.513
 6929SOL    HW232416   4.387   0.657  16.591
 6930SOL     OW32417   0.659   2.550  26.533
 6930SOL    HW132418   0.724   2.480  26.527
 6930SOL    HW232419   0.668   2.597  26.450
 6931SOL     OW32420   4.265   2.018   3.411
 6931SOL    HW132421   4.281   1.948   3.476
 6931SOL    HW232422   4.346   2.069   3.411
 6932SOL     OW32423   2.626   0.745  18.030
 6932SOL    HW132424   2.674   0.795  18.096
 6932SOL    HW232425   2.535   0.774  18.040
 6933SOL     OW32426   1.771   4.291   7.738
 6933SOL    HW132427   1.841   4.229   7.720
 6933SOL    HW232428   1.814   4.377   7.743
 6934SOL     OW32429   1.156   0.526  21.598
 6934SOL    HW132430   1.223   0.590  21.575
 6934SOL    HW232431   1.119   0.498  21.514
 6935SOL     OW32432   0.485   2.254  21.943
 6935SOL    HW132433   0.545   2.209  22.003
 6935SOL    HW232434   0.399   2.218  21.964
 6936SOL     OW32435   1.706   4.767  28.427
 6936SOL    HW132436   1.665   4.729  28.349
 6936SOL    HW232437   1.707   0.079  28.410
 6937SOL     OW32438   1.794   4.467  27.066
 6937SOL    HW132439   1.724   4.457  27.130
 6937SOL    HW232440   1.768   4.410  26.993
 6938SOL     OW32441   0.178   3.433   8.109
 6938SOL    HW132442   0.213   3.521   8.100
 6938SOL    HW232443   0.253   3.375   8.095
 6939SOL     OW32444   3.534   1.417   2.808
 6939SOL    HW132445   3.618   1.415   2.854
 6939SOL    HW232446   3.534   1.501   2.763
 6940SOL     OW32447   1.212   4.229   2.506
 6940SOL    HW132448   1.294   4.182   2.523
 6940SOL    HW232449   1.175   4.185   2.430
 6941SOL     OW32450   4.556   4.364  23.190
 6941SOL    HW132451   4.607   4.347  23.111
 6941SOL    HW232452   4.609   4.427  23.240
 6942SOL     OW32453   1.362   1.920   2.829
 6942SOL    HW132454   1.363   1.993   2.891
 6942SOL    HW232455   1.353   1.961   2.744
 6943SOL     OW32456   2.585   2.014  10.261
 6943SOL    HW132457   2.534   1.933  10.265
 6943SOL    HW232458   2.555   2.064  10.337
 6944SOL     OW32459   1.624   0.796  19.404
 6944SOL    HW132460   1.621   0.707  19.369
 6944SOL    HW232461   1.699   0.837  19.361
 6945SOL     OW32462   4.488   1.324   7.381
 6945SOL    HW132463   4.454   1.250   7.432
 6945SOL    HW232464   4.487   1.398   7.443
 6946SOL     OW32465   3.969   1.436  10.697
 6946SOL    HW132466   3.947   1.418  10.605
 6946SOL    HW232467   3.886   1.429  10.743
 6947SOL     OW32468   1.567   0.669  22.682
 6947SOL    HW132469   1.547   0.575  22.676
 6947SOL    HW232470   1.529   0.696  22.766
 6948SOL     OW32471   2.375   0.648   9.258
 6948SOL    HW132472   2.395   0.639   9.165
 6948SOL    HW232473   2.460   0.649   9.301
 6949SOL     OW32474   1.888   2.059  16.303
 6949SOL    HW132475   1.899   2.119  16.377
 6949SOL    HW232476   1.807   2.012  16.323
 6950SOL     OW32477   2.908   0.110   5.955
 6950SOL    HW132478   2.907   0.099   6.050
 6950SOL    HW232479   2.999   0.129   5.934
 6951SOL     OW32480   3.083   2.664   2.248
 6951SOL    HW132481   3.033   2.684   2.327
 6951SOL    HW232482   3.059   2.574   2.226
 6952SOL     OW32483   3.482   3.382  22.368
 6952SOL    HW132484   3.530   3.336  22.299
 6952SOL    HW232485   3.408   3.325  22.388
 6953SOL     OW32486   2.234   3.571   5.240
 6953SOL    HW132487   2.310   3.514   5.243
 6953SOL    HW232488   2.170   3.524   5.186
 6954SOL     OW32489   0.463   3.055  24.653
 6954SOL    HW132490   0.432   3.072  24.742
 6954SOL    HW232491   0.523   3.127  24.634
 6955SOL     OW32492   4.315   2.470  16.526
 6955SOL    HW132493   4.339   2.437  16.439
 6955SOL    HW232494   4.397   2.501  16.564
 6956SOL     OW32495   1.776   3.292  19.590
 6956SOL    HW132496   1.857   3.298  19.539
 6956SOL    HW232497   1.708   3.272  19.525
 6957SOL     OW32498   2.649   1.120   1.749
 6957SOL    HW132499   2.641   1.028   1.775
 6957SOL    HW232500   2.594   1.127   1.671
 6958SOL     OW32501   0.796   1.757  23.773
 6958SOL    HW132502   0.714   1.789  23.736
 6958SOL    HW232503   0.793   1.662  23.759
 6959SOL     OW32504   0.449   3.747  27.650
 6959SOL    HW132505   0.434   3.727  27.743
 6959SOL    HW232506   0.365   3.782  27.619
 6960SOL     OW32507   4.086   2.298   8.029
 6960SOL    HW132508   4.168   2.274   7.986
 6960SOL    HW232509   4.059   2.219   8.076
 6961SOL     OW32510   0.457   3.878  26.921
 6961SOL    HW132511   0.409   3.921  26.992
 6961SOL    HW232512   0.388   3.845  26.863
 6962SOL     OW32513   2.209   1.694  17.739
 6962SOL    HW132514   2.224   1.629  17.670
 6962SOL    HW232515   2.290   1.693  17.791
 6963SOL     OW32516   2.991   3.076  11.316
 6963SOL    HW132517   3.077   3.041  11.336
 6963SOL    HW232518   2.944   3.074  11.399
 6964SOL     OW32519   2.639   2.166  20.306
 6964SOL    HW132520   2.565   2.137  20.360
 6964SOL    HW232521   2.609   2.247  20.265
 6965SOL     OW32522   1.648   3.111  19.141
 6965SOL    HW132523   1.552   3.109  19.147
 6965SOL    HW232524   1.678   3.052  19.210
 6966SOL     OW32525   2.555   3.565   1.662
 6966SOL    HW132526   2.572   3.632   1.728
 6966SOL    HW232527   2.635   3.513   1.658
 6967SOL     OW32528   1.141   0.049  24.375
 6967SOL    HW132529   1.126   0.143  24.363
 6967SOL    HW232530   1.072   0.021  24.436
 6968SOL     OW32531   2.279   3.331  24.570
 6968SOL    HW132532   2.337   3.398  24.605
 6968SOL    HW232533   2.216   3.380  24.517
 6969SOL     OW32534   3.103   3.407   0.809
 6969SOL    HW132535   3.123   3.322   0.849
 6969SOL    HW232536   3.024   3.392   0.757
 6970SOL     OW32537   2.809   0.533  19.708
 6970SOL    HW132538   2.784   0.562  19.621
 6970SOL    HW232539   2.902   0.509  19.699
 6971SOL     OW32540   0.762   4.663  20.710
 6971SOL    HW132541   0.738   4.652  20.617
 6971SOL    HW232542   0.853   4.636  20.714
 6972SOL     OW32543   1.609   2.448   1.969
 6972SOL    HW132544   1.665   2.518   1.936
 6972SOL    HW232545   1.664   2.401   2.032
 6973SOL     OW32546   2.704   1.465  27.882
 6973SOL    HW132547   2.619   1.428  27.860
 6973SOL    HW232548   2.760   1.443  27.808
 6974SOL     OW32549   2.406   0.144  26.913
 6974SOL    HW132550   2.396   0.236  26.937
 6974SOL    HW232551   2.386   0.142  26.819
 6975SOL     OW32552   1.035   3.184  26.841
 6975SOL    HW132553   1.035   3.276  26.869
 6975SOL    HW232554   0.944   3.166  26.818
 6976SOL     OW32555   0.563   4.664  24.181
 6976SOL    HW132556   0.533   4.604  24.250
 6976SOL    HW232557   0.595   4.741  24.229
 6977SOL     OW32558   3.657   3.931  10.118
 6977SOL    HW132559   3.629   3.840  10.131
 6977SOL    HW232560   3.731   3.942  10.178
 6978SOL     OW32561   4.020   3.153   5.232
 6978SOL    HW132562   3.966   3.086   5.191
 6978SOL    HW232563   4.002   3.233   5.183
 6979SOL     OW32564   0.171   0.256   0.015
 6979SOL    HW132565   0.126   0.303  28.476
 6979SOL    HW232566   0.110   0.259   0.089
 6980SOL     OW32567   0.748   2.874   2.158
 6980SOL    HW132568   0.779   2.784   2.150
 6980SOL    HW232569   0.652   2.867   2.160
 6981SOL     OW32570   1.472   1.538   4.376
 6981SOL    HW132571   1.458   1.547   4.470
 6981SOL    HW232572   1.507   1.450   4.365
 6982SOL     OW32573   3.982   3.667  27.483
 6982SOL    HW132574   4.059   3.717  27.455
 6982SOL    HW232575   3.999   3.578  27.451
 6983SOL     OW32576   3.969   0.809  23.669
 6983SOL    HW132577   4.062   0.815  23.646
 6983SOL    HW232578   3.926   0.780  23.588
 6984SOL     OW32579   1.248   1.988   4.803
 6984SOL    HW132580   1.200   1.981   4.886
 6984SOL    HW232581   1.216   1.916   4.750
 6985SOL     OW32582   0.811   0.348  26.578
 6985SOL    HW132583   0.844   0.333  26.667
 6985SOL    HW232584   0.837   0.438  26.557
 6986SOL     OW32585   0.688   4.078  23.804
 6986SOL    HW132586   0.679   4.164  23.844
 6986SOL    HW232587   0.609   4.068  23.750
 6987SOL     OW32588   2.324   0.168  27.241
 6987SOL    HW132589   2.253   0.215  27.198
 6987SOL    HW232590   2.297   0.076  27.241
 6988SOL     OW32591   1.409   0.890   9.064
 6988SOL    HW132592   1.386   0.826   8.996
 6988SOL    HW232593   1.443   0.965   9.016
 6989SOL     OW32594   2.052   0.565  27.258
 6989SOL    HW132595   2.133   0.597  27.217
 6989SOL    HW232596   2.050   0.609  27.343
 6990SOL     OW32597   1.068   2.709  23.106
 6990SOL    HW132598   1.006   2.640  23.083
 6990SOL    HW232599   1.074   2.763  23.027
 6991SOL     OW32600   0.826   2.879   5.483
 6991SOL    HW132601   0.797   2.882   5.574
 6991SOL    HW232602   0.852   2.788   5.469
 6992SOL     OW32603   4.483   3.957  24.688
 6992SOL    HW132604   4.392   3.954  24.716
 6992SOL    HW232605   4.530   3.904  24.754
 6993SOL     OW32606   4.749   2.713   1.498
 6993SOL    HW132607   4.661   2.709   1.536
 6993SOL    HW232608   4.782   2.623   1.504
 6994SOL     OW32609   2.818   0.021  28.278
 6994SOL    HW132610   2.852   0.110  28.271
 6994SOL    HW232611   2.870   4.753  28.215
 6995SOL     OW32612   0.226   2.984  20.914
 6995SOL    HW132613   0.132   2.971  20.928
 6995SOL    HW232614   0.235   2.998  20.820
 6996SOL     OW32615   2.578   4.237   1.552
 6996SOL    HW132616   2.607   4.303   1.616
 6996SOL    HW232617   2.578   4.283   1.468
 6997SOL     OW32618   1.697   2.106  24.419
 6997SOL    HW132619   1.753   2.179  24.391
 6997SOL    HW232620   1.610   2.130  24.389
 6998SOL     OW32621   3.603   1.007   8.171
 6998SOL    HW132622   3.557   1.010   8.087
 6998SOL    HW232623   3.669   0.938   8.160
 6999SOL     OW32624   1.083   0.975  22.215
 6999SOL    HW132625   1.169   0.933  22.220
 6999SOL    HW232626   1.096   1.048  22.154
 7000SOL     OW32627   1.025   2.507  17.951
 7000SOL    HW132628   0.945   2.496  17.899
 7000SOL    HW232629   1.081   2.433  17.925
 7001SOL     OW32630   1.256   3.576   5.551
 7001SOL    HW132631   1.257   3.561   5.456
 7001SOL    HW232632   1.320   3.645   5.565
 7002SOL     OW32633   1.713   3.173  10.803
 7002SOL    HW132634   1.795   3.176  10.754
 7002SOL    HW232635   1.715   3.252  10.858
 7003SOL     OW32636   0.552   3.513   5.522
 7003SOL    HW132637   0.639   3.474   5.523
 7003SOL    HW232638   0.562   3.593   5.470
 7004SOL     OW32639   0.645   0.628   7.531
 7004SOL    HW132640   0.595   0.679   7.467
 7004SOL    HW232641   0.580   0.577   7.578
 7005SOL     OW32642   3.901   4.448  23.342
 7005SOL    HW132643   3.978   4.413  23.298
 7005SOL    HW232644   3.835   4.454  23.273
 7006SOL     OW32645   2.302   1.577  26.623
 7006SOL    HW132646   2.306   1.600  26.530
 7006SOL    HW232647   2.293   1.661  26.668
 7007SOL     OW32648   3.963   3.967   1.761
 7007SOL    HW132649   3.904   3.986   1.688
 7007SOL    HW232650   3.923   3.893   1.806
 7008SOL     OW32651   4.402   2.107  22.849
 7008SOL    HW132652   4.471   2.174  22.847
 7008SOL    HW232653   4.338   2.141  22.912
 7009SOL     OW32654   0.357   4.281  10.149
 7009SOL    HW132655   0.404   4.213  10.100
 7009SOL    HW232656   0.295   4.233  10.203
 7010SOL     OW32657   0.033   0.271  25.791
 7010SOL    HW132658   0.045   0.195  25.848
 7010SOL    HW232659   4.721   0.282  25.784
 7011SOL     OW32660   3.013   1.477  21.004
 7011SOL    HW132661   3.004   1.508  20.914
 7011SOL    HW232662   2.971   1.545  21.057
 7012SOL     OW32663   2.914   2.061  22.584
 7012SOL    HW132664   2.972   2.100  22.519
 7012SOL    HW232665   2.826   2.071  22.546
 7013SOL     OW32666   3.876   0.884  24.956
 7013SOL    HW132667   3.838   0.829  24.887
 7013SOL    HW232668   3.809   0.883  25.025
 7014SOL     OW32669   3.424   2.833  24.122
 7014SOL    HW132670   3.480   2.759  24.099
 7014SOL    HW232671   3.417   2.829  24.217
 7015SOL     OW32672   2.802   3.314  23.320
 7015SOL    HW132673   2.821   3.232  23.365
 7015SOL    HW232674   2.867   3.375  23.353
 7016SOL     OW32675   1.420   4.702   6.042
 7016SOL    HW132676   1.418   4.624   6.098
 7016SOL    HW232677   1.430   4.668   5.954
 7017SOL     OW32678   4.032   2.104  21.756
 7017SOL    HW132679   4.037   2.012  21.732
 7017SOL    HW232680   3.998   2.105  21.845
 7018SOL     OW32681   1.527   1.528  21.972
 7018SOL    HW132682   1.620   1.522  21.949
 7018SOL    HW232683   1.512   1.453  22.030
 7019SOL     OW32684   3.280   3.555   3.927
 7019SOL    HW132685   3.314   3.570   3.839
 7019SOL    HW232686   3.203   3.500   3.914
 7020SOL     OW32687   4.055   2.055  18.094
 7020SOL    HW132688   3.987   2.065  18.161
 7020SOL    HW232689   4.041   1.967  18.059
 7021SOL     OW32690   0.288   3.654  21.606
 7021SOL    HW132691   0.344   3.577  21.599
 7021SOL    HW232692   0.337   3.715  21.662
 7022SOL     OW32693   2.691   1.035  28.438
 7022SOL    HW132694   2.632   1.104  28.407
 7022SOL    HW232695   2.657   0.954  28.400
 7023SOL     OW32696   2.271   0.327  19.804
 7023SOL    HW132697   2.342   0.361  19.858
 7023SOL    HW232698   2.302   0.336  19.714
 7024SOL     OW32699   3.584   4.081   3.952
 7024SOL    HW132700   3.570   4.114   4.041
 7024SOL    HW232701   3.515   4.015   3.939
 7025SOL     OW32702   0.020   1.201  10.255
 7025SOL    HW132703   0.055   1.286  10.230
 7025SOL    HW232704   4.709   1.218  10.272
 7026SOL     OW32705   3.943   1.108  21.629
 7026SOL    HW132706   3.860   1.092  21.673
 7026SOL    HW232707   3.997   1.153  21.695
 7027SOL     OW32708   2.464   1.348  21.994
 7027SOL    HW132709   2.471   1.271  22.052
 7027SOL    HW232710   2.478   1.423  22.052
 7028SOL     OW32711   3.330   1.412   5.532
 7028SOL    HW132712   3.396   1.480   5.549
 7028SOL    HW232713   3.309   1.377   5.619
 7029SOL     OW32714   3.938   2.779   3.569
 7029SOL    HW132715   3.924   2.691   3.603
 7029SOL    HW232716   3.942   2.835   3.647
 7030SOL     OW32717   4.295   1.201  22.716
 7030SOL    HW132718   4.361   1.144  22.757
 7030SOL    HW232719   4.338   1.234  22.637
 7031SOL     OW32720   1.081   1.569  26.883
 7031SOL    HW132721   1.066   1.474  26.884
 7031SOL    HW232722   0.994   1.607  26.891
 7032SOL     OW32723   0.451   0.697  28.519
 7032SOL    HW132724   0.392   0.656  28.457
 7032SOL    HW232725   0.464   0.786  28.485
 7033SOL     OW32726   2.952   0.631  23.013
 7033SOL    HW132727   2.938   0.568  22.943
 7033SOL    HW232728   3.004   0.701  22.973
 7034SOL     OW32729   3.067   0.164  28.471
 7034SOL    HW132730   3.067   0.257  28.490
 7034SOL    HW232731   3.081   0.159  28.376
 7035SOL     OW32732   0.521   0.974  23.059
 7035SOL    HW132733   0.549   0.930  23.139
 7035SOL    HW232734   0.577   1.051  23.053
 7036SOL     OW32735   2.489   1.933  20.030
 7036SOL    HW132736   2.444   1.889  19.958
 7036SOL    HW232737   2.514   2.019  19.994
 7037SOL     OW32738   2.173   3.966  23.957
 7037SOL    HW132739   2.268   3.976  23.959
 7037SOL    HW232740   2.154   3.932  23.870
 7038SOL     OW32741   0.159   2.088  28.084
 7038SOL    HW132742   0.153   2.000  28.121
 7038SOL    HW232743   0.074   2.103  28.043
 7039SOL     OW32744   4.161   2.814   7.541
 7039SOL    HW132745   4.156   2.779   7.452
 7039SOL    HW232746   4.095   2.766   7.589
 7040SOL     OW32747   3.372   1.445   4.953
 7040SOL    HW132748   3.435   1.433   5.024
 7040SOL    HW232749   3.334   1.358   4.939
 7041SOL     OW32750   4.693   2.609  22.436
 7041SOL    HW132751   4.680   2.595  22.342
 7041SOL    HW232752   4.629   2.551  22.478
 7042SOL     OW32753   1.829   2.218  20.512
 7042SOL    HW132754   1.846   2.124  20.524
 7042SOL    HW232755   1.812   2.228  20.419
 7043SOL     OW32756   0.548   3.120   3.221
 7043SOL    HW132757   0.575   3.041   3.268
 7043SOL    HW232758   0.549   3.189   3.287
 7044SOL     OW32759   1.825   2.483   6.212
 7044SOL    HW132760   1.749   2.429   6.231
 7044SOL    HW232761   1.809   2.565   6.260
 7045SOL     OW32762   2.169   0.434  16.795
 7045SOL    HW132763   2.199   0.502  16.735
 7045SOL    HW232764   2.248   0.387  16.820
 7046SOL     OW32765   1.500   2.085  27.936
 7046SOL    HW132766   1.487   2.009  27.879
 7046SOL    HW232767   1.592   2.108  27.926
 7047SOL     OW32768   3.368   0.278  25.988
 7047SOL    HW132769   3.456   0.312  25.972
 7047SOL    HW232770   3.343   0.314  26.073
 7048SOL     OW32771   1.623   0.209   5.217
 7048SOL    HW132772   1.582   0.123   5.224
 7048SOL    HW232773   1.551   0.268   5.194
 7049SOL     OW32774   2.707   2.246   7.518
 7049SOL    HW132775   2.776   2.201   7.470
 7049SOL    HW232776   2.666   2.178   7.572
 7050SOL     OW32777   4.416   3.286  21.772
 7050SOL    HW132778   4.509   3.278  21.793
 7050SOL    HW232779   4.401   3.218  21.706
 7051SOL     OW32780   2.818   4.472  23.535
 7051SOL    HW132781   2.762   4.445  23.607
 7051SOL    HW232782   2.863   4.550  23.567
 7052SOL     OW32783   4.016   2.577   8.719
 7052SOL    HW132784   3.950   2.640   8.749
 7052SOL    HW232785   3.968   2.495   8.710
 7053SOL     OW32786   2.735   2.176  28.156
 7053SOL    HW132787   2.675   2.105  28.134
 7053SOL    HW232788   2.739   2.229  28.077
 7054SOL     OW32789   1.992   3.243   4.383
 7054SOL    HW132790   1.929   3.284   4.324
 7054SOL    HW232791   1.938   3.201   4.450
 7055SOL     OW32792   1.894   1.964  27.668
 7055SOL    HW132793   1.914   1.940  27.577
 7055SOL    HW232794   1.895   2.060  27.668
 7056SOL     OW32795   3.620   0.575  26.299
 7056SOL    HW132796   3.557   0.611  26.237
 7056SOL    HW232797   3.675   0.517  26.247
 7057SOL     OW32798   3.604   3.199   4.524
 7057SOL    HW132799   3.535   3.254   4.487
 7057SOL    HW232800   3.562   3.153   4.597
 7058SOL     OW32801   1.071   3.038   5.229
 7058SOL    HW132802   1.130   3.044   5.154
 7058SOL    HW232803   1.070   3.126   5.267
 7059SOL     OW32804   2.441   0.611   7.489
 7059SOL    HW132805   2.404   0.526   7.510
 7059SOL    HW232806   2.445   0.657   7.573
 7060SOL     OW32807   0.080   1.129  27.919
 7060SOL    HW132808   0.095   1.100  28.009
 7060SOL    HW232809   0.167   1.143  27.883
 7061SOL     OW32810   4.444   3.455   1.116
 7061SOL    HW132811   4.512   3.427   1.054
 7061SOL    HW232812   4.434   3.381   1.175
 7062SOL     OW32813   1.555   2.913  21.446
 7062SOL    HW132814   1.556   2.838  21.506
 7062SOL    HW232815   1.472   2.957  21.462
 7063SOL     OW32816   0.430   2.370  21.118
 7063SOL    HW132817   0.436   2.383  21.023
 7063SOL    HW232818   0.357   2.426  21.145
 7064SOL     OW32819   1.920   0.353   5.208
 7064SOL    HW132820   1.917   0.359   5.113
 7064SOL    HW232821   1.982   0.282   5.225
 7065SOL     OW32822   4.296   1.712  23.772
 7065SOL    HW132823   4.208   1.687  23.744
 7065SOL    HW232824   4.286   1.734  23.865
 7066SOL     OW32825   3.749   2.246  21.970
 7066SOL    HW132826   3.752   2.328  22.018
 7066SOL    HW232827   3.817   2.192  22.009
 7067SOL     OW32828   3.349   1.301  10.480
 7067SOL    HW132829   3.358   1.346  10.396
 7067SOL    HW232830   3.435   1.307  10.520
 7068SOL     OW32831   3.992   3.402  23.947
 7068SOL    HW132832   4.009   3.311  23.921
 7068SOL    HW232833   4.041   3.412  24.029
 7069SOL     OW32834   0.638   2.009  24.449
 7069SOL    HW132835   0.555   2.026  24.405
 7069SOL    HW232836   0.627   1.922  24.487
 7070SOL     OW32837   1.678   0.952   0.900
 7070SOL    HW132838   1.650   0.910   0.818
 7070SOL    HW232839   1.653   0.890   0.968
 7071SOL     OW32840   4.468   1.504   2.040
 7071SOL    HW132841   4.544   1.458   2.005
 7071SOL    HW232842   4.420   1.533   1.963
 7072SOL     OW32843   1.403   2.629  19.521
 7072SOL    HW132844   1.401   2.534  19.506
 7072SOL    HW232845   1.324   2.662  19.476
 7073SOL     OW32846   0.759   1.771  24.832
 7073SOL    HW132847   0.739   1.681  24.855
 7073SOL    HW232848   0.768   1.816  24.916
 7074SOL     OW32849   1.467   4.216  10.640
 7074SOL    HW132850   1.382   4.171  10.643
 7074SOL    HW232851   1.446   4.306  10.613
 7075SOL     OW32852   1.542   3.102  23.017
 7075SOL    HW132853   1.561   3.179  22.964
 7075SOL    HW232854   1.493   3.135  23.092
 7076SOL     OW32855   0.658   0.295   9.664
 7076SOL    HW132856   0.591   0.245   9.618
 7076SOL    HW232857   0.651   0.384   9.629
 7077SOL     OW32858   1.483   4.125   0.641
 7077SOL    HW132859   1.494   4.158   0.552
 7077SOL    HW232860   1.396   4.155   0.668
 7078SOL     OW32861   3.988   4.682  25.161
 7078SOL    HW132862   3.906   4.660  25.116
 7078SOL    HW232863   4.014   4.766  25.123
 7079SOL     OW32864   2.663   2.901  20.896
 7079SOL    HW132865   2.715   2.977  20.871
 7079SOL    HW232866   2.725   2.828  20.897
 7080SOL     OW32867   4.173   4.165   6.075
 7080SOL    HW132868   4.163   4.217   5.995
 7080SOL    HW232869   4.239   4.211   6.126
 7081SOL     OW32870   2.598   1.563  10.005
 7081SOL    HW132871   2.506   1.540   9.991
 7081SOL    HW232872   2.601   1.602  10.092
 7082SOL     OW32873   2.954   0.956   5.552
 7082SOL    HW132874   3.036   0.968   5.599
 7082SOL    HW232875   2.923   1.045   5.534
 7083SOL     OW32876   1.183   1.102  21.000
 7083SOL    HW132877   1.142   1.137  20.921
 7083SOL    HW232878   1.265   1.152  21.008
 7084SOL     OW32879   2.504   1.627  18.990
 7084SOL    HW132880   2.495   1.533  18.972
 7084SOL    HW232881   2.587   1.651  18.948
 7085SOL     OW32882   2.503   3.601   0.054
 7085SOL    HW132883   2.411   3.579   0.043
 7085SOL    HW232884   2.511   3.689   0.017
 7086SOL     OW32885   4.219   1.265  24.187
 7086SOL    HW132886   4.192   1.186  24.140
 7086SOL    HW232887   4.264   1.318  24.122
 7087SOL     OW32888   0.900   0.658   3.817
 7087SOL    HW132889   0.892   0.586   3.880
 7087SOL    HW232890   0.866   0.734   3.864
 7088SOL     OW32891   0.993   3.845  20.060
 7088SOL    HW132892   0.974   3.757  20.092
 7088SOL    HW232893   0.969   3.903  20.132
 7089SOL     OW32894   1.727   0.566  21.243
 7089SOL    HW132895   1.738   0.533  21.333
 7089SOL    HW232896   1.704   0.658  21.254
 7090SOL     OW32897   2.725   4.144   1.179
 7090SOL    HW132898   2.734   4.176   1.089
 7090SOL    HW232899   2.669   4.067   1.172
 7091SOL     OW32900   0.646   1.870   8.206
 7091SOL    HW132901   0.606   1.820   8.135
 7091SOL    HW232902   0.653   1.809   8.279
 7092SOL     OW32903   4.070   2.143  25.148
 7092SOL    HW132904   4.132   2.071  25.158
 7092SOL    HW232905   4.084   2.198  25.225
 7093SOL     OW32906   1.065   0.400  26.926
 7093SOL    HW132907   1.072   0.431  27.016
 7093SOL    HW232908   0.975   0.367  26.919
 7094SOL     OW32909   3.931   1.699   8.221
 7094SOL    HW132910   3.987   1.698   8.299
 7094SOL    HW232911   3.903   1.609   8.210
 7095SOL     OW32912   3.078   4.061  22.545
 7095SOL    HW132913   3.137   4.050  22.620
 7095SOL    HW232914   3.106   3.994  22.483
 7096SOL     OW32915   1.341   2.390   6.671
 7096SOL    HW132916   1.407   2.414   6.736
 7096SOL    HW232917   1.345   2.460   6.606
 7097SOL     OW32918   1.256   4.177  21.019
 7097SOL    HW132919   1.330   4.229  21.051
 7097SOL    HW232920   1.252   4.197  20.926
 7098SOL     OW32921   1.245   4.302  19.776
 7098SOL    HW132922   1.172   4.350  19.736
 7098SOL    HW232923   1.270   4.356  19.851
 7099SOL     OW32924   3.320   1.280  23.403
 7099SOL    HW132925   3.413   1.259  23.412
 7099SOL    HW232926   3.301   1.270  23.310
 7100SOL     OW32927   1.911   3.066   1.403
 7100SOL    HW132928   1.821   3.035   1.389
 7100SOL    HW232929   1.944   3.013   1.475
 7101SOL     OW32930   4.576   2.589   3.879
 7101SOL    HW132931   4.515   2.603   3.951
 7101SOL    HW232932   4.641   2.529   3.914
 7102SOL     OW32933   4.217   3.236  10.390
 7102SOL    HW132934   4.130   3.273  10.406
 7102SOL    HW232935   4.260   3.299  10.332
 7103SOL     OW32936   1.589   2.414   4.167
 7103SOL    HW132937   1.505   2.424   4.210
 7103SOL    HW232938   1.641   2.489   4.195
 7104SOL     OW32939   2.063   2.177  25.202
 7104SOL    HW132940   2.115   2.235  25.145
 7104SOL    HW232941   2.109   2.179  25.286
 7105SOL     OW32942   0.519   0.236   9.235
 7105SOL    HW132943   0.519   0.164   9.173
 7105SOL    HW232944   0.445   0.217   9.294
 7106SOL     OW32945   3.192   0.943   9.390
 7106SOL    HW132946   3.194   1.005   9.317
 7106SOL    HW232947   3.251   0.980   9.455
 7107SOL     OW32948   0.483   3.092   1.871
 7107SOL    HW132949   0.551   3.025   1.878
 7107SOL    HW232950   0.508   3.143   1.794
 7108SOL     OW32951   1.288   2.566  10.208
 7108SOL    HW132952   1.298   2.631  10.277
 7108SOL    HW232953   1.376   2.559  10.169
 7109SOL     OW32954   2.361   0.386   0.479
 7109SOL    HW132955   2.302   0.316   0.451
 7109SOL    HW232956   2.392   0.425   0.397
 7110SOL     OW32957   0.877   2.933  17.654
 7110SOL    HW132958   0.820   2.877  17.602
 7110SOL    HW232959   0.943   2.873  17.689
 7111SOL     OW32960   0.786   0.561   8.224
 7111SOL    HW132961   0.828   0.646   8.236
 7111SOL    HW232962   0.830   0.504   8.287
 7112SOL     OW32963   2.090   0.688  22.150
 7112SOL    HW132964   2.003   0.725  22.142
 7112SOL    HW232965   2.130   0.735  22.223
 7113SOL     OW32966   1.558   3.210   0.719
 7113SOL    HW132967   1.539   3.156   0.795
 7113SOL    HW232968   1.565   3.299   0.753
 7114SOL     OW32969   3.219   2.640   2.901
 7114SOL    HW132970   3.192   2.732   2.901
 7114SOL    HW232971   3.296   2.638   2.844
 7115SOL     OW32972   3.813   3.007   0.803
 7115SOL    HW132973   3.760   3.066   0.856
 7115SOL    HW232974   3.896   3.001   0.850
 7116SOL     OW32975   3.319   4.503  10.938
 7116SOL    HW132976   3.367   4.563  10.995
 7116SOL    HW232977   3.371   4.498  10.859
 7117SOL     OW32978   4.722   1.650  11.205
 7117SOL    HW132979   4.684   1.563  11.217
 7117SOL    HW232980   4.692   1.701  11.280
 7118SOL     OW32981   4.776   2.035   8.335
 7118SOL    HW132982   4.718   2.091   8.283
 7118SOL    HW232983   4.728   2.021   8.417
 7119SOL     OW32984   3.001   0.277  20.010
 7119SOL    HW132985   3.070   0.337  20.037
 7119SOL    HW232986   2.952   0.325  19.943
 7120SOL     OW32987   2.606   1.176   0.241
 7120SOL    HW132988   2.533   1.174   0.179
 7120SOL    HW232989   2.566   1.165   0.327
 7121SOL     OW32990   3.636   4.373  22.207
 7121SOL    HW132991   3.679   4.375  22.292
 7121SOL    HW232992   3.683   4.306  22.158
 7122SOL     OW32993   3.222   0.901   3.142
 7122SOL    HW132994   3.198   0.994   3.134
 7122SOL    HW232995   3.280   0.897   3.217
 7123SOL     OW32996   3.468   0.820  23.774
 7123SOL    HW132997   3.511   0.807  23.690
 7123SOL    HW232998   3.424   0.738  23.793
 7124SOL     OW32999   3.006   4.635  25.255
 7124SOL    HW133000   2.972   4.630  25.165
 7124SOL    HW233001   3.045   4.722  25.262
 7125SOL     OW33002   0.210   1.293   5.640
 7125SOL    HW133003   0.294   1.285   5.685
 7125SOL    HW233004   0.175   1.378   5.668
 7126SOL     OW33005   1.769   3.355   1.295
 7126SOL    HW133006   1.820   3.281   1.326
 7126SOL    HW233007   1.678   3.332   1.314
 7127SOL     OW33008   3.399   0.204   3.389
 7127SOL    HW133009   3.470   0.260   3.359
 7127SOL    HW233010   3.369   0.244   3.471
 7128SOL     OW33011   2.188   3.759  25.061
 7128SOL    HW133012   2.248   3.789  24.993
 7128SOL    HW233013   2.235   3.687  25.105
 7129SOL     OW33014   1.645   3.922   9.614
 7129SOL    HW133015   1.610   3.888   9.531
 7129SOL    HW233016   1.722   3.973   9.588
 7130SOL     OW33017   3.155   3.800  20.483
 7130SOL    HW133018   3.120   3.845  20.560
 7130SOL    HW233019   3.244   3.835  20.474
 7131SOL     OW33020   1.424   1.816  27.253
 7131SOL    HW133021   1.438   1.909  27.238
 7131SOL    HW233022   1.501   1.774  27.216
 7132SOL     OW33023   3.447   1.872  18.678
 7132SOL    HW133024   3.523   1.821  18.649
 7132SOL    HW233025   3.452   1.952  18.627
 7133SOL     OW33026   2.454   3.836  25.542
 7133SOL    HW133027   2.456   3.741  25.552
 7133SOL    HW233028   2.384   3.852  25.479
 7134SOL     OW33029   3.403   1.236  23.997
 7134SOL    HW133030   3.366   1.235  24.086
 7134SOL    HW233031   3.493   1.206  24.008
 7135SOL     OW33032   3.630   1.835  22.047
 7135SOL    HW133033   3.549   1.852  22.095
 7135SOL    HW233034   3.639   1.909  21.987
 7136SOL     OW33035   1.405   0.917  25.443
 7136SOL    HW133036   1.456   0.896  25.365
 7136SOL    HW233037   1.455   0.878  25.515
 7137SOL     OW33038   4.478   2.504   1.856
 7137SOL    HW133039   4.449   2.438   1.792
 7137SOL    HW233040   4.413   2.574   1.848
 7138SOL     OW33041   4.216   0.314   3.737
 7138SOL    HW133042   4.271   0.335   3.813
 7138SOL    HW233043   4.188   0.399   3.703
 7139SOL     OW33044   3.192   0.430   2.459
 7139SOL    HW133045   3.226   0.517   2.483
 7139SOL    HW233046   3.164   0.391   2.542
 7140SOL     OW33047   4.454   1.020  17.669
 7140SOL    HW133048   4.527   0.981  17.621
 7140SOL    HW233049   4.383   1.023  17.606
 7141SOL     OW33050   4.648   1.115   4.057
 7141SOL    HW133051   4.700   1.154   3.987
 7141SOL    HW233052   4.558   1.144   4.039
 7142SOL     OW33053   4.781   2.647   7.975
 7142SOL    HW133054   0.089   2.642   7.945
 7142SOL    HW233055   4.769   2.568   8.028
 7143SOL     OW33056   4.428   1.615   9.887
 7143SOL    HW133057   4.367   1.573   9.827
 7143SOL    HW233058   4.506   1.633   9.833
 7144SOL     OW33059   2.992   0.224  27.809
 7144SOL    HW133060   2.912   0.255  27.851
 7144SOL    HW233061   3.009   0.288  27.740
 7145SOL     OW33062   2.423   2.993  26.829
 7145SOL    HW133063   2.505   3.032  26.799
 7145SOL    HW233064   2.384   2.954  26.751
 7146SOL     OW33065   3.152   3.713   1.244
 7146SOL    HW133066   3.100   3.673   1.174
 7146SOL    HW233067   3.170   3.640   1.304
 7147SOL     OW33068   3.420   1.071  17.713
 7147SOL    HW133069   3.483   1.017  17.666
 7147SOL    HW233070   3.377   1.011  17.774
 7148SOL     OW33071   1.687   1.529  21.707
 7148SOL    HW133072   1.768   1.483  21.687
 7148SOL    HW233073   1.710   1.622  21.699
 7149SOL     OW33074   0.081   4.694   9.910
 7149SOL    HW133075   0.095   4.759   9.978
 7149SOL    HW233076   0.153   4.632   9.921
 7150SOL     OW33077   4.734   0.784  23.415
 7150SOL    HW133078   4.757   0.852  23.352
 7150SOL    HW233079   4.763   0.818  23.500
 7151SOL     OW33080   0.788   1.142   4.951
 7151SOL    HW133081   0.749   1.127   5.037
 7151SOL    HW233082   0.725   1.199   4.906
 7152SOL     OW33083   1.792   0.670  22.503
 7152SOL    HW133084   1.705   0.677  22.542
 7152SOL    HW233085   1.852   0.699  22.572
 7153SOL     OW33086   1.314   0.047  18.536
 7153SOL    HW133087   1.239   0.015  18.485
 7153SOL    HW233088   1.281   0.126  18.579
 7154SOL     OW33089   1.091   3.896  11.760
 7154SOL    HW133090   1.057   3.906  11.671
 7154SOL    HW233091   1.171   3.949  11.760
 7155SOL     OW33092   4.325   1.833   5.627
 7155SOL    HW133093   4.305   1.819   5.720
 7155SOL    HW233094   4.283   1.760   5.582
 7156SOL     OW33095   1.238   3.503  23.143
 7156SOL    HW133096   1.317   3.554  23.123
 7156SOL    HW233097   1.211   3.467  23.059
 7157SOL     OW33098   1.188   1.553  21.597
 7157SOL    HW133099   1.095   1.544  21.618
 7157SOL    HW233100   1.232   1.502  21.665
 7158SOL     OW33101   2.274   1.780  19.623
 7158SOL    HW133102   2.321   1.780  19.706
 7158SOL    HW233103   2.342   1.778  19.557
 7159SOL     OW33104   3.093   3.259   9.718
 7159SOL    HW133105   3.033   3.210   9.774
 7159SOL    HW233106   3.144   3.192   9.672
 7160SOL     OW33107   4.577   4.642   7.906
 7160SOL    HW133108   4.631   4.575   7.946
 7160SOL    HW233109   4.563   4.612   7.816
 7161SOL     OW33110   1.001   4.096  11.149
 7161SOL    HW133111   1.001   4.165  11.216
 7161SOL    HW233112   0.933   4.035  11.177
 7162SOL     OW33113   2.302   2.474  18.636
 7162SOL    HW133114   2.331   2.526  18.711
 7162SOL    HW233115   2.225   2.520  18.602
 7163SOL     OW33116   0.664   4.239  25.594
 7163SOL    HW133117   0.702   4.203  25.674
 7163SOL    HW233118   0.654   4.164  25.536
 7164SOL     OW33119   1.731   2.784   3.508
 7164SOL    HW133120   1.635   2.790   3.502
 7164SOL    HW233121   1.751   2.695   3.477
 7165SOL     OW33122   3.123   3.434  26.469
 7165SOL    HW133123   3.063   3.359  26.466
 7165SOL    HW233124   3.196   3.404  26.523
 7166SOL     OW33125   2.737   0.963  18.168
 7166SOL    HW133126   2.681   1.022  18.220
 7166SOL    HW233127   2.803   0.932  18.229
 7167SOL     OW33128   2.871   0.662  20.196
 7167SOL    HW133129   2.884   0.578  20.239
 7167SOL    HW233130   2.806   0.645  20.128
 7168SOL     OW33131   3.802   2.527  26.809
 7168SOL    HW133132   3.724   2.486  26.772
 7168SOL    HW233133   3.814   2.484  26.893
 7169SOL     OW33134   1.370   3.671  24.965
 7169SOL    HW133135   1.427   3.671  25.042
 7169SOL    HW233136   1.282   3.666  25.000
 7170SOL     OW33137   0.331   1.875   2.394
 7170SOL    HW133138   0.278   1.799   2.420
 7170SOL    HW233139   0.282   1.951   2.427
 7171SOL     OW33140   0.341   1.190   2.369
 7171SOL    HW133141   0.275   1.205   2.301
 7171SOL    HW233142   0.414   1.149   2.322
 7172SOL     OW33143   4.406   4.750  24.821
 7172SOL    HW133144   4.488   0.000  24.786
 7172SOL    HW233145   4.407   4.775  24.914
 7173SOL     OW33146   2.470   0.472   2.539
 7173SOL    HW133147   2.516   0.391   2.560
 7173SOL    HW233148   2.377   0.448   2.539
 7174SOL     OW33149   2.628   4.359   7.215
 7174SOL    HW133150   2.620   4.263   7.214
 7174SOL    HW233151   2.714   4.376   7.176
 7175SOL     OW33152   2.431   4.545   3.892
 7175SOL    HW133153   2.370   4.579   3.958
 7175SOL    HW233154   2.503   4.509   3.943
 7176SOL     OW33155   2.701   0.617   2.531
 7176SOL    HW133156   2.643   0.541   2.519
 7176SOL    HW233157   2.683   0.673   2.455
 7177SOL     OW33158   0.260   3.700   0.597
 7177SOL    HW133159   0.209   3.683   0.675
 7177SOL    HW233160   0.234   3.788   0.570
 7178SOL     OW33161   0.941   2.438   7.946
 7178SOL    HW133162   1.014   2.453   8.006
 7178SOL    HW233163   0.865   2.472   7.993
 7179SOL     OW33164   3.290   1.883  23.802
 7179SOL    HW133165   3.225   1.819  23.776
 7179SOL    HW233166   3.366   1.863  23.747
 7180SOL     OW33167   2.118   4.361   9.023
 7180SOL    HW133168   2.118   4.356   8.928
 7180SOL    HW233169   2.210   4.364   9.047
 7181SOL     OW33170   2.540   3.192   7.872
 7181SOL    HW133171   2.553   3.219   7.963
 7181SOL    HW233172   2.555   3.097   7.873
 7182SOL     OW33173   2.062   4.736   0.344
 7182SOL    HW133174   2.003   4.759   0.272
 7182SOL    HW233175   2.003   4.709   0.415
 7183SOL     OW33176   4.146   3.790  28.504
 7183SOL    HW133177   4.092   3.711  28.513
 7183SOL    HW233178   4.223   3.761  28.455
 7184SOL     OW33179   0.985   0.286  27.728
 7184SOL    HW133180   1.072   0.251  27.709
 7184SOL    HW233181   0.990   0.317  27.818
 7185SOL     OW33182   3.309   1.677  25.085
 7185SOL    HW133183   3.368   1.723  25.025
 7185SOL    HW233184   3.288   1.595  25.040
 7186SOL     OW33185   3.372   4.215   8.099
 7186SOL    HW133186   3.318   4.270   8.157
 7186SOL    HW233187   3.386   4.134   8.149
 7187SOL     OW33188   4.005   0.665   7.143
 7187SOL    HW133189   3.999   0.715   7.225
 7187SOL    HW233190   4.027   0.730   7.077
 7188SOL     OW33191   0.859   1.023   5.979
 7188SOL    HW133192   0.898   1.111   5.973
 7188SOL    HW233193   0.898   0.975   5.906
 7189SOL     OW33194   0.522   1.186  21.041
 7189SOL    HW133195   0.567   1.270  21.051
 7189SOL    HW233196   0.430   1.206  21.058
 7190SOL     OW33197   0.216   2.409  28.451
 7190SOL    HW133198   0.181   2.498  28.464
 7190SOL    HW233199   0.220   2.399  28.356
 7191SOL     OW33200   1.108   0.309  28.472
 7191SOL    HW133201   1.054   0.260  28.410
 7191SOL    HW233202   1.175   0.247  28.500
 7192SOL     OW33203   1.579   2.439  24.848
 7192SOL    HW133204   1.629   2.419  24.768
 7192SOL    HW233205   1.537   2.357  24.871
 7193SOL     OW33206   1.397   3.020  23.905
 7193SOL    HW133207   1.420   3.109  23.879
 7193SOL    HW233208   1.367   2.978  23.825
 7194SOL     OW33209   3.956   0.329  11.984
 7194SOL    HW133210   4.034   0.288  11.946
 7194SOL    HW233211   3.943   0.282  12.066
 7195SOL     OW33212   1.541   3.202   4.358
 7195SOL    HW133213   1.517   3.271   4.421
 7195SOL    HW233214   1.556   3.125   4.412
 7196SOL     OW33215   3.424   2.735  22.652
 7196SOL    HW133216   3.329   2.736  22.644
 7196SOL    HW233217   3.445   2.812  22.705
 7197SOL     OW33218   2.866   3.876   5.944
 7197SOL    HW133219   2.961   3.889   5.934
 7197SOL    HW233220   2.844   3.814   5.874
 7198SOL     OW33221   4.531   4.137  22.284
 7198SOL    HW133222   4.580   4.125  22.202
 7198SOL    HW233223   4.584   4.095  22.351
 7199SOL     OW33224   3.431   3.977   5.193
 7199SOL    HW133225   3.488   4.053   5.209
 7199SOL    HW233226   3.362   3.986   5.259
 7200SOL     OW33227   0.125   0.843   4.873
 7200SOL    HW133228   0.177   0.771   4.909
 7200SOL    HW233229   0.066   0.868   4.944
 7201SOL     OW33230   1.775   4.315  21.151
 7201SOL    HW133231   1.828   4.381  21.196
 7201SOL    HW233232   1.754   4.251  21.219
 7202SOL     OW33233   0.598   3.811  11.072
 7202SOL    HW133234   0.509   3.825  11.040
 7202SOL    HW233235   0.649   3.795  10.993
 7203SOL     OW33236   3.241   1.045  26.588
 7203SOL    HW133237   3.262   0.955  26.566
 7203SOL    HW233238   3.325   1.087  26.604
 7204SOL     OW33239   2.243   3.551   0.242
 7204SOL    HW133240   2.213   3.640   0.223
 7204SOL    HW233241   2.190   3.523   0.316
 7205SOL     OW33242   2.447   1.204  23.483
 7205SOL    HW133243   2.392   1.267  23.436
 7205SOL    HW233244   2.439   1.229  23.575
 7206SOL     OW33245   2.068   0.848   0.949
 7206SOL    HW133246   2.094   0.785   1.016
 7206SOL    HW233247   2.005   0.905   0.994
 7207SOL     OW33248   3.089   4.503   3.784
 7207SOL    HW133249   3.181   4.476   3.786
 7207SOL    HW233250   3.042   4.425   3.756
 7208SOL     OW33251   1.283   4.356   4.039
 7208SOL    HW133252   1.263   4.343   4.132
 7208SOL    HW233253   1.225   4.427   4.012
 7209SOL     OW33254   3.204   4.448  26.371
 7209SOL    HW133255   3.201   4.534  26.412
 7209SOL    HW233256   3.123   4.442  26.320
 7210SOL     OW33257   0.613   2.807   8.934
 7210SOL    HW133258   0.624   2.723   8.979
 7210SOL    HW233259   0.686   2.811   8.872
 7211SOL     OW33260   1.891   1.974  21.676
 7211SOL    HW133261   1.915   2.064  21.654
 7211SOL    HW233262   1.973   1.925  21.672
 7212SOL     OW33263   2.919   1.735  18.620
 7212SOL    HW133264   2.899   1.678  18.546
 7212SOL    HW233265   2.959   1.677  18.685
 7213SOL     OW33266   2.101   4.591  28.322
 7213SOL    HW133267   2.072   4.519  28.266
 7213SOL    HW233268   2.063   4.571  28.408
 7214SOL     OW33269   1.638   3.085   1.622
 7214SOL    HW133270   1.598   3.160   1.665
 7214SOL    HW233271   1.564   3.033   1.591
 7215SOL     OW33272   2.530   3.138   4.838
 7215SOL    HW133273   2.480   3.074   4.889
 7215SOL    HW233274   2.564   3.199   4.903
 7216SOL     OW33275   0.821   1.622  19.506
 7216SOL    HW133276   0.854   1.711  19.496
 7216SOL    HW233277   0.803   1.592  19.417
 7217SOL     OW33278   2.096   4.370  23.234
 7217SOL    HW133279   2.075   4.291  23.184
 7217SOL    HW233280   2.191   4.371  23.239
 7218SOL     OW33281   1.274   0.407   2.526
 7218SOL    HW133282   1.271   0.373   2.616
 7218SOL    HW233283   1.348   0.362   2.486
 7219SOL     OW33284   1.870   1.258  24.093
 7219SOL    HW133285   1.837   1.348  24.095
 7219SOL    HW233286   1.958   1.264  24.130
 7220SOL     OW33287   0.745   4.050   8.057
 7220SOL    HW133288   0.788   4.007   8.131
 7220SOL    HW233289   0.662   4.003   8.048
 7221SOL     OW33290   2.293   2.004  21.861
 7221SOL    HW133291   2.303   2.063  21.936
 7221SOL    HW233292   2.332   2.051  21.788
 7222SOL     OW33293   3.178   3.166  19.452
 7222SOL    HW133294   3.233   3.210  19.387
 7222SOL    HW233295   3.230   3.166  19.532
 7223SOL     OW33296   0.183   3.196  21.375
 7223SOL    HW133297   0.129   3.244  21.312
 7223SOL    HW233298   0.237   3.139  21.322
 7224SOL     OW33299   2.171   1.728  20.060
 7224SOL    HW133300   2.189   1.743  20.153
 7224SOL    HW233301   2.118   1.649  20.058
 7225SOL     OW33302   3.274   0.359  26.526
 7225SOL    HW133303   3.266   0.342  26.620
 7225SOL    HW233304   3.187   0.337  26.491
 7226SOL     OW33305   2.721   3.996  26.165
 7226SOL    HW133306   2.681   3.957  26.086
 7226SOL    HW233307   2.813   4.007  26.142
 7227SOL     OW33308   0.260   0.269  18.836
 7227SOL    HW133309   0.166   0.282  18.826
 7227SOL    HW233310   0.275   0.272  18.931
 7228SOL     OW33311   1.453   3.159  21.144
 7228SOL    HW133312   1.547   3.178  21.137
 7228SOL    HW233313   1.431   3.183  21.234
 7229SOL     OW33314   4.130   0.994   6.823
 7229SOL    HW133315   4.080   1.030   6.896
 7229SOL    HW233316   4.084   0.914   6.799
 7230SOL     OW33317   3.078   0.548  23.421
 7230SOL    HW133318   3.154   0.515  23.373
 7230SOL    HW233319   3.085   0.643  23.415
 7231SOL     OW33320   0.507   2.435  23.941
 7231SOL    HW133321   0.495   2.340  23.947
 7231SOL    HW233322   0.419   2.471  23.955
 7232SOL     OW33323   3.547   4.709  25.180
 7232SOL    HW133324   3.472   4.670  25.226
 7232SOL    HW233325   3.562   0.009  25.226
 7233SOL     OW33326   2.769   0.635   5.732
 7233SOL    HW133327   2.681   0.666   5.751
 7233SOL    HW233328   2.813   0.634   5.817
 7234SOL     OW33329   3.489   1.146  21.307
 7234SOL    HW133330   3.568   1.094  21.320
 7234SOL    HW233331   3.499   1.221  21.366
 7235SOL     OW33332   3.529   4.381   1.213
 7235SOL    HW133333   3.573   4.296   1.224
 7235SOL    HW233334   3.587   4.431   1.156
 7236SOL     OW33335   4.228   3.807   4.570
 7236SOL    HW133336   4.278   3.736   4.531
 7236SOL    HW233337   4.221   3.872   4.500
 7237SOL     OW33338   2.271   1.478   7.732
 7237SOL    HW133339   2.214   1.428   7.790
 7237SOL    HW233340   2.269   1.567   7.769
 7238SOL     OW33341   0.470   0.708   9.939
 7238SOL    HW133342   0.452   0.655  10.016
 7238SOL    HW233343   0.482   0.797   9.973
 7239SOL     OW33344   1.088   4.394   6.261
 7239SOL    HW133345   1.104   4.451   6.336
 7239SOL    HW233346   0.993   4.384   6.258
 7240SOL     OW33347   1.652   3.495  25.688
 7240SOL    HW133348   1.564   3.457  25.691
 7240SOL    HW233349   1.639   3.587  25.708
 7241SOL     OW33350   4.679   4.405   6.271
 7241SOL    HW133351   4.711   4.401   6.361
 7241SOL    HW233352   4.619   4.480   6.270
 7242SOL     OW33353   3.838   2.600   0.244
 7242SOL    HW133354   3.763   2.594   0.185
 7242SOL    HW233355   3.914   2.611   0.186
 7243SOL     OW33356   3.186   0.534  28.399
 7243SOL    HW133357   3.102   0.521  28.355
 7243SOL    HW233358   3.164   0.543  28.492
 7244SOL     OW33359   0.023   0.112  22.854
 7244SOL    HW133360   0.072   0.084  22.932
 7244SOL    HW233361   0.083   0.170  22.808
 7245SOL     OW33362   1.436   3.426   5.175
 7245SOL    HW133363   1.488   3.469   5.107
 7245SOL    HW233364   1.499   3.369   5.220
 7246SOL     OW33365   2.714   3.081  24.309
 7246SOL    HW133366   2.668   3.157  24.344
 7246SOL    HW233367   2.658   3.007  24.331
 7247SOL     OW33368   1.363   3.166  18.552
 7247SOL    HW133369   1.404   3.135  18.633
 7247SOL    HW233370   1.335   3.256  18.573
 7248SOL     OW33371   1.702   0.983  26.988
 7248SOL    HW133372   1.630   0.998  26.928
 7248SOL    HW233373   1.713   0.888  26.988
 7249SOL     OW33374   0.699   1.384  19.104
 7249SOL    HW133375   0.663   1.383  19.016
 7249SOL    HW233376   0.781   1.334  19.097
 7250SOL     OW33377   2.205   4.655   2.697
 7250SOL    HW133378   2.183   4.748   2.688
 7250SOL    HW233379   2.283   4.654   2.752
 7251SOL     OW33380   4.003   2.061   4.139
 7251SOL    HW133381   4.058   2.041   4.215
 7251SOL    HW233382   4.065   2.087   4.071
 7252SOL     OW33383   0.628   1.143  27.485
 7252SOL    HW133384   0.538   1.166  27.462
 7252SOL    HW233385   0.652   1.074  27.422
 7253SOL     OW33386   4.291   2.226   6.405
 7253SOL    HW133387   4.220   2.213   6.468
 7253SOL    HW233388   4.371   2.224   6.459
 7254SOL     OW33389   4.100   3.616   8.725
 7254SOL    HW133390   4.037   3.675   8.683
 7254SOL    HW233391   4.121   3.551   8.658
 7255SOL     OW33392   0.665   2.678   1.857
 7255SOL    HW133393   0.743   2.624   1.859
 7255SOL    HW233394   0.635   2.681   1.948
 7256SOL     OW33395   3.709   1.270  20.666
 7256SOL    HW133396   3.771   1.235  20.602
 7256SOL    HW233397   3.753   1.259  20.750
 7257SOL     OW33398   2.660   1.263   1.306
 7257SOL    HW133399   2.647   1.191   1.244
 7257SOL    HW233400   2.726   1.230   1.367
 7258SOL     OW33401   0.380   0.625  22.432
 7258SOL    HW133402   0.308   0.598  22.490
 7258SOL    HW233403   0.363   0.579  22.350
 7259SOL     OW33404   0.863   3.575  25.211
 7259SOL    HW133405   0.849   3.584  25.305
 7259SOL    HW233406   0.808   3.501  25.185
 7260SOL     OW33407   4.295   3.337   9.566
 7260SOL    HW133408   4.369   3.277   9.558
 7260SOL    HW233409   4.242   3.320   9.488
 7261SOL     OW33410   3.764   4.021  27.735
 7261SOL    HW133411   3.681   3.984  27.765
 7261SOL    HW233412   3.780   4.094  27.795
 7262SOL     OW33413   0.607   2.699   8.462
 7262SOL    HW133414   0.550   2.746   8.522
 7262SOL    HW233415   0.695   2.714   8.495
 7263SOL     OW33416   2.344   4.406  24.935
 7263SOL    HW133417   2.377   4.490  24.905
 7263SOL    HW233418   2.414   4.370  24.989
 7264SOL     OW33419   2.588   4.246   3.944
 7264SOL    HW133420   2.605   4.273   3.854
 7264SOL    HW233421   2.503   4.202   3.940
 7265SOL     OW33422   3.296   3.491  26.240
 7265SOL    HW133423   3.262   3.571  26.199
 7265SOL    HW233424   3.224   3.460  26.295
 7266SOL     OW33425   2.489   3.776  22.555
 7266SOL    HW133426   2.535   3.727  22.624
 7266SOL    HW233427   2.418   3.820  22.601
 7267SOL     OW33428   4.502   0.776   1.657
 7267SOL    HW133429   4.456   0.703   1.615
 7267SOL    HW233430   4.545   0.736   1.733
 7268SOL     OW33431   0.505   2.552   1.133
 7268SOL    HW133432   0.462   2.637   1.130
 7268SOL    HW233433   0.585   2.567   1.184
 7269SOL     OW33434   3.955   4.460  25.608
 7269SOL    HW133435   3.917   4.542  25.640
 7269SOL    HW233436   3.975   4.477  25.516
 7270SOL     OW33437   2.389   0.341   7.509
 7270SOL    HW133438   2.448   0.305   7.443
 7270SOL    HW233439   2.327   0.271   7.528
 7271SOL     OW33440   0.843   3.664   6.639
 7271SOL    HW133441   0.815   3.618   6.718
 7271SOL    HW233442   0.897   3.600   6.592
 7272SOL     OW33443   0.327   0.878  21.610
 7272SOL    HW133444   0.362   0.885  21.522
 7272SOL    HW233445   0.233   0.862  21.598
 7273SOL     OW33446   1.126   2.970   6.842
 7273SOL    HW133447   1.045   2.973   6.893
 7273SOL    HW233448   1.196   2.974   6.907
 7274SOL     OW33449   1.222   4.451  27.324
 7274SOL    HW133450   1.148   4.497  27.363
 7274SOL    HW233451   1.281   4.521  27.296
 7275SOL     OW33452   4.380   0.898  28.195
 7275SOL    HW133453   4.336   0.882  28.112
 7275SOL    HW233454   4.442   0.968  28.177
 7276SOL     OW33455   1.464   2.542  26.213
 7276SOL    HW133456   1.505   2.504  26.136
 7276SOL    HW233457   1.410   2.614  26.180
 7277SOL     OW33458   1.708   3.150  26.898
 7277SOL    HW133459   1.747   3.078  26.949
 7277SOL    HW233460   1.674   3.107  26.819
 7278SOL     OW33461   1.401   3.675  22.654
 7278SOL    HW133462   1.477   3.616  22.652
 7278SOL    HW233463   1.325   3.618  22.644
 7279SOL     OW33464   0.235   3.852   2.403
 7279SOL    HW133465   0.327   3.835   2.423
 7279SOL    HW233466   0.193   3.861   2.488
 7280SOL     OW33467   1.708   1.710  23.824
 7280SOL    HW133468   1.689   1.792  23.778
 7280SOL    HW233469   1.801   1.694  23.807
 7281SOL     OW33470   4.686   2.689   9.349
 7281SOL    HW133471   4.702   2.608   9.300
 7281SOL    HW233472   4.772   2.729   9.357
 7282SOL     OW33473   0.319   0.005   4.470
 7282SOL    HW133474   0.334   0.072   4.404
 7282SOL    HW233475   0.224   4.776   4.472
 7283SOL     OW33476   1.061   0.056  21.603
 7283SOL    HW133477   1.011   0.025  21.527
 7283SOL    HW233478   1.111   4.762  21.631
 7284SOL     OW33479   1.019   1.338   0.468
 7284SOL    HW133480   0.944   1.282   0.486
 7284SOL    HW233481   1.044   1.316   0.378
 7285SOL     OW33482   0.950   3.425  24.587
 7285SOL    HW133483   0.954   3.506  24.638
 7285SOL    HW233484   0.903   3.449  24.507
 7286SOL     OW33485   3.607   1.930  19.410
 7286SOL    HW133486   3.641   1.846  19.442
 7286SOL    HW233487   3.586   1.979  19.490
 7287SOL     OW33488   0.684   0.442  24.809
 7287SOL    HW133489   0.698   0.376  24.877
 7287SOL    HW233490   0.738   0.516  24.835
 7288SOL     OW33491   3.026   3.396  21.179
 7288SOL    HW133492   3.092   3.340  21.138
 7288SOL    HW233493   3.054   3.485  21.156
 7289SOL     OW33494   1.156   2.062   2.036
 7289SOL    HW133495   1.088   2.025   1.980
 7289SOL    HW233496   1.238   2.036   1.994
 7290SOL     OW33497   3.204   1.065   2.181
 7290SOL    HW133498   3.287   1.104   2.208
 7290SOL    HW233499   3.192   0.991   2.240
 7291SOL     OW33500   1.356   4.496   0.176
 7291SOL    HW133501   1.352   4.403   0.155
 7291SOL    HW233502   1.401   4.536   0.102
 7292SOL     OW33503   1.022   3.441   6.939
 7292SOL    HW133504   1.037   3.525   6.983
 7292SOL    HW233505   1.067   3.377   6.994
 7293SOL     OW33506   2.695   0.693   7.333
 7293SOL    HW133507   2.620   0.635   7.325
 7293SOL    HW233508   2.732   0.674   7.419
 7294SOL     OW33509   2.399   1.694   4.844
 7294SOL    HW133510   2.470   1.663   4.789
 7294SOL    HW233511   2.438   1.702   4.931
 7295SOL     OW33512   3.798   2.191  28.149
 7295SOL    HW133513   3.756   2.226  28.071
 7295SOL    HW233514   3.826   2.269  28.198
 7296SOL     OW33515   4.759   3.517   5.541
 7296SOL    HW133516   4.717   3.446   5.493
 7296SOL    HW233517   4.781   3.582   5.475
 7297SOL     OW33518   4.163   3.628   3.276
 7297SOL    HW133519   4.192   3.538   3.264
 7297SOL    HW233520   4.241   3.674   3.308
 7298SOL     OW33521   0.677   1.547   7.763
 7298SOL    HW133522   0.675   1.616   7.697
 7298SOL    HW233523   0.674   1.466   7.713
 7299SOL     OW33524   1.738   2.637   2.555
 7299SOL    HW133525   1.693   2.720   2.569
 7299SOL    HW233526   1.709   2.609   2.468
 7300SOL     OW33527   4.326   3.106  25.447
 7300SOL    HW133528   4.300   3.014  25.454
 7300SOL    HW233529   4.383   3.109  25.371
 7301SOL     OW33530   4.310   0.156   9.319
 7301SOL    HW133531   4.383   0.196   9.366
 7301SOL    HW233532   4.345   0.137   9.231
 7302SOL     OW33533   2.727   0.883  26.613
 7302SOL    HW133534   2.671   0.956  26.589
 7302SOL    HW233535   2.731   0.885  26.708
 7303SOL     OW33536   0.089   2.654  10.075
 7303SOL    HW133537   0.098   2.675   9.982
 7303SOL    HW233538   0.000   2.619  10.083
 7304SOL     OW33539   0.580   1.317  21.309
 7304SOL    HW133540   0.587   1.389  21.246
 7304SOL    HW233541   0.650   1.335  21.372
 7305SOL     OW33542   4.008   4.018  28.512
 7305SOL    HW133543   4.077   3.952  28.508
 7305SOL    HW233544   4.028   4.077  28.439
 7306SOL     OW33545   3.116   1.448  25.254
 7306SOL    HW133546   3.112   1.374  25.193
 7306SOL    HW233547   3.118   1.525  25.197
 7307SOL     OW33548   3.433   1.748  26.033
 7307SOL    HW133549   3.463   1.761  25.943
 7307SOL    HW233550   3.484   1.812  26.084
 7308SOL     OW33551   0.781   1.362   5.797
 7308SOL    HW133552   0.686   1.356   5.805
 7308SOL    HW233553   0.800   1.330   5.709
 7309SOL     OW33554   0.748   1.075   1.333
 7309SOL    HW133555   0.683   1.035   1.390
 7309SOL    HW233556   0.775   1.005   1.274
 7310SOL     OW33557   0.177   1.588  25.972
 7310SOL    HW133558   0.268   1.571  25.945
 7310SOL    HW233559   0.131   1.605  25.890
 7311SOL     OW33560   0.019   2.811   6.925
 7311SOL    HW133561   0.027   2.715   6.925
 7311SOL    HW233562   4.710   2.828   6.904
 7312SOL     OW33563   0.060   2.071  18.169
 7312SOL    HW133564   0.129   2.079  18.235
 7312SOL    HW233565   4.761   2.075  18.219
 7313SOL     OW33566   1.680   2.053   4.332
 7313SOL    HW133567   1.658   2.103   4.410
 7313SOL    HW233568   1.693   2.119   4.264
 7314SOL     OW33569   3.297   4.164  17.863
 7314SOL    HW133570   3.346   4.208  17.794
 7314SOL    HW233571   3.279   4.077  17.829
 7315SOL     OW33572   1.494   2.524  11.325
 7315SOL    HW133573   1.477   2.451  11.384
 7315SOL    HW233574   1.573   2.566  11.360
 7316SOL     OW33575   4.051   1.770   7.356
 7316SOL    HW133576   4.020   1.823   7.429
 7316SOL    HW233577   4.044   1.680   7.387
 7317SOL     OW33578   0.474   1.845   7.868
 7317SOL    HW133579   0.489   1.786   7.942
 7317SOL    HW233580   0.441   1.788   7.798
 7318SOL     OW33581   1.777   1.003  24.065
 7318SOL    HW133582   1.806   1.093  24.076
 7318SOL    HW233583   1.803   0.980  23.976
 7319SOL     OW33584   2.912   0.687  19.188
 7319SOL    HW133585   2.897   0.780  19.203
 7319SOL    HW233586   2.904   0.676  19.093
 7320SOL     OW33587   4.206   0.804  21.053
 7320SOL    HW133588   4.241   0.719  21.029
 7320SOL    HW233589   4.121   0.786  21.092
 7321SOL     OW33590   2.683   3.349  28.514
 7321SOL    HW133591   2.652   3.434   0.015
 7321SOL    HW233592   2.708   3.366  28.423
 7322SOL     OW33593   4.394   0.214  24.992
 7322SOL    HW133594   4.424   0.132  25.030
 7322SOL    HW233595   4.309   0.194  24.954
 7323SOL     OW33596   1.217   3.471  19.044
 7323SOL    HW133597   1.262   3.393  19.014
 7323SOL    HW233598   1.147   3.438  19.101
 7324SOL     OW33599   0.212   2.427  23.177
 7324SOL    HW133600   0.182   2.336  23.182
 7324SOL    HW233601   0.154   2.475  23.236
 7325SOL     OW33602   1.830   1.794  20.948
 7325SOL    HW133603   1.918   1.771  20.979
 7325SOL    HW233604   1.838   1.885  20.921
 7326SOL     OW33605   2.488   4.270   4.411
 7326SOL    HW133606   2.545   4.334   4.453
 7326SOL    HW233607   2.509   4.187   4.454
 7327SOL     OW33608   1.533   1.915  22.976
 7327SOL    HW133609   1.574   1.904  22.890
 7327SOL    HW233610   1.439   1.908  22.958
 7328SOL     OW33611   1.008   0.651  20.354
 7328SOL    HW133612   1.004   0.568  20.401
 7328SOL    HW233613   0.936   0.702  20.389
 7329SOL     OW33614   1.577   0.816  25.244
 7329SOL    HW133615   1.633   0.760  25.299
 7329SOL    HW233616   1.637   0.855  25.181
 7330SOL     OW33617   1.092   0.324  21.426
 7330SOL    HW133618   1.130   0.241  21.455
 7330SOL    HW233619   1.006   0.300  21.391
 7331SOL     OW33620   4.139   2.381   4.558
 7331SOL    HW133621   4.096   2.448   4.506
 7331SOL    HW233622   4.100   2.390   4.645
 7332SOL     OW33623   0.179   3.913  28.152
 7332SOL    HW133624   0.221   3.960  28.225
 7332SOL    HW233625   0.108   3.864  28.194
 7333SOL     OW33626   3.301   0.789  27.432
 7333SOL    HW133627   3.303   0.699  27.463
 7333SOL    HW233628   3.359   0.789  27.355
 7334SOL     OW33629   2.679   1.813  23.429
 7334SOL    HW133630   2.642   1.864  23.501
 7334SOL    HW233631   2.602   1.783  23.379
 7335SOL     OW33632   2.258   0.773   3.022
 7335SOL    HW133633   2.296   0.700   3.072
 7335SOL    HW233634   2.189   0.807   3.079
 7336SOL     OW33635   0.954   4.337  11.753
 7336SOL    HW133636   1.011   4.367  11.683
 7336SOL    HW233637   0.970   4.397  11.825
 7337SOL     OW33638   3.655   2.424  23.678
 7337SOL    HW133639   3.698   2.405  23.594
 7337SOL    HW233640   3.686   2.355  23.737
 7338SOL     OW33641   1.255   2.442  18.511
 7338SOL    HW133642   1.177   2.411  18.466
 7338SOL    HW233643   1.316   2.465  18.440
 7339SOL     OW33644   1.378   4.482  21.516
 7339SOL    HW133645   1.446   4.414  21.515
 7339SOL    HW233646   1.387   4.525  21.601
 7340SOL     OW33647   3.477   1.054   7.922
 7340SOL    HW133648   3.497   1.129   7.865
 7340SOL    HW233649   3.384   1.037   7.907
 7341SOL     OW33650   3.347   0.905  19.826
 7341SOL    HW133651   3.320   0.980  19.772
 7341SOL    HW233652   3.308   0.923  19.912
 7342SOL     OW33653   3.451   3.982   8.314
 7342SOL    HW133654   3.505   3.923   8.262
 7342SOL    HW233655   3.398   3.923   8.369
 7343SOL     OW33656   1.595   3.459   6.508
 7343SOL    HW133657   1.557   3.534   6.554
 7343SOL    HW233658   1.567   3.383   6.559
 7344SOL     OW33659   2.826   2.175  10.321
 7344SOL    HW133660   2.803   2.257  10.364
 7344SOL    HW233661   2.757   2.114  10.346
 7345SOL     OW33662   1.636   0.493  24.078
 7345SOL    HW133663   1.691   0.570  24.063
 7345SOL    HW233664   1.663   0.460  24.163
 7346SOL     OW33665   1.828   4.702   0.525
 7346SOL    HW133666   1.795   0.010   0.527
 7346SOL    HW233667   1.749   4.648   0.520
 7347SOL     OW33668   0.343   1.915  24.216
 7347SOL    HW133669   0.316   1.832  24.255
 7347SOL    HW233670   0.436   1.903  24.198
 7348SOL     OW33671   1.884   0.001  22.642
 7348SOL    HW133672   1.833   4.705  22.622
 7348SOL    HW233673   1.969   4.767  22.600
 7349SOL     OW33674   3.339   1.246  22.155
 7349SOL    HW133675   3.430   1.248  22.127
 7349SOL    HW233676   3.312   1.155  22.142
 7350SOL     OW33677   4.632   1.267   4.412
 7350SOL    HW133678   4.574   1.193   4.396
 7350SOL    HW233679   4.719   1.236   4.384
 7351SOL     OW33680   4.243   2.682   8.838
 7351SOL    HW133681   4.150   2.660   8.843
 7351SOL    HW233682   4.248   2.746   8.767
 7352SOL     OW33683   4.142   3.137   2.272
 7352SOL    HW133684   4.061   3.188   2.260
 7352SOL    HW233685   4.207   3.202   2.299
 7353SOL     OW33686   2.090   0.923   0.319
 7353SOL    HW133687   2.091   0.914   0.415
 7353SOL    HW233688   2.002   0.958   0.300
 7354SOL     OW33689   0.102   2.052  24.785
 7354SOL    HW133690   0.031   2.009  24.832
 7354SOL    HW233691   0.102   2.010  24.699
 7355SOL     OW33692   0.233   3.149   7.493
 7355SOL    HW133693   0.243   3.149   7.588
 7355SOL    HW233694   0.309   3.196   7.460
 7356SOL     OW33695   2.489   2.409  23.218
 7356SOL    HW133696   2.504   2.466  23.293
 7356SOL    HW233697   2.530   2.326  23.242
 7357SOL     OW33698   0.668   3.565  11.432
 7357SOL    HW133699   0.675   3.470  11.422
 7357SOL    HW233700   0.577   3.580  11.456
 7358SOL     OW33701   4.138   0.344   4.365
 7358SOL    HW133702   4.213   0.397   4.394
 7358SOL    HW233703   4.177   0.262   4.335
 7359SOL     OW33704   2.873   0.222   3.303
 7359SOL    HW133705   2.946   0.246   3.246
 7359SOL    HW233706   2.844   0.137   3.271
 7360SOL     OW33707   2.097   2.098  26.643
 7360SOL    HW133708   2.037   2.069  26.712
 7360SOL    HW233709   2.181   2.109  26.687
 7361SOL     OW33710   3.064   2.954   5.489
 7361SOL    HW133711   2.974   2.929   5.468
 7361SOL    HW233712   3.055   3.033   5.541
 7362SOL     OW33713   3.646   3.228  27.703
 7362SOL    HW133714   3.675   3.312  27.668
 7362SOL    HW233715   3.552   3.225  27.683
 7363SOL     OW33716   1.963   4.219   7.324
 7363SOL    HW133717   2.001   4.257   7.244
 7363SOL    HW233718   2.034   4.223   7.388
 7364SOL     OW33719   1.893   1.216  25.888
 7364SOL    HW133720   1.820   1.160  25.862
 7364SOL    HW233721   1.855   1.276  25.953
 7365SOL     OW33722   0.337   2.815   5.268
 7365SOL    HW133723   0.363   2.820   5.360
 7365SOL    HW233724   0.410   2.771   5.225
 7366SOL     OW33725   2.490   3.716   5.819
 7366SOL    HW133726   2.546   3.642   5.838
 7366SOL    HW233727   2.488   3.721   5.723
 7367SOL     OW33728   3.476   1.908   4.371
 7367SOL    HW133729   3.425   1.889   4.450
 7367SOL    HW233730   3.558   1.861   4.384
 7368SOL     OW33731   0.091   4.570   5.722
 7368SOL    HW133732   0.099   4.570   5.817
 7368SOL    HW233733   0.075   4.661   5.699
 7369SOL     OW33734   0.945   2.543  10.316
 7369SOL    HW133735   0.871   2.590  10.353
 7369SOL    HW233736   0.995   2.512  10.392
 7370SOL     OW33737   2.345   0.675   3.393
 7370SOL    HW133738   2.318   0.762   3.422
 7370SOL    HW233739   2.437   0.684   3.371
 7371SOL     OW33740   2.680   2.327   2.183
 7371SOL    HW133741   2.587   2.305   2.181
 7371SOL    HW233742   2.724   2.244   2.202
 7372SOL     OW33743   4.021   0.470  27.288
 7372SOL    HW133744   4.083   0.397  27.286
 7372SOL    HW233745   3.941   0.433  27.325
 7373SOL     OW33746   1.895   3.463  21.377
 7373SOL    HW133747   1.921   3.418  21.457
 7373SOL    HW233748   1.843   3.399  21.329
 7374SOL     OW33749   2.326   2.831  22.457
 7374SOL    HW133750   2.284   2.838  22.371
 7374SOL    HW233751   2.264   2.874  22.517
 7375SOL     OW33752   0.288   1.373   9.689
 7375SOL    HW133753   0.226   1.442   9.714
 7375SOL    HW233754   0.234   1.306   9.648
 7376SOL     OW33755   2.322   3.578  27.450
 7376SOL    HW133756   2.381   3.651  27.433
 7376SOL    HW233757   2.334   3.559  27.543
 7377SOL     OW33758   3.378   4.692  27.616
 7377SOL    HW133759   3.295   4.733  27.590
 7377SOL    HW233760   3.355   4.637  27.691
 7378SOL     OW33761   3.415   2.125  28.004
 7378SOL    HW133762   3.432   2.208  28.049
 7378SOL    HW233763   3.495   2.108  27.955
 7379SOL     OW33764   0.175   4.461  28.116
 7379SOL    HW133765   0.080   4.451  28.118
 7379SOL    HW233766   0.202   4.413  28.038
 7380SOL     OW33767   3.397   1.908   2.045
 7380SOL    HW133768   3.306   1.935   2.035
 7380SOL    HW233769   3.393   1.829   2.100
 7381SOL     OW33770   3.661   2.756  20.763
 7381SOL    HW133771   3.755   2.774  20.772
 7381SOL    HW233772   3.637   2.712  20.845
 7382SOL     OW33773   0.522   1.310  18.032
 7382SOL    HW133774   0.524   1.222  18.071
 7382SOL    HW233775   0.442   1.311  17.980
 7383SOL     OW33776   1.204   2.915   7.772
 7383SOL    HW133777   1.240   2.954   7.852
 7383SOL    HW233778   1.252   2.834   7.761
 7384SOL     OW33779   0.038   1.163  25.237
 7384SOL    HW133780   4.740   1.208  25.262
 7384SOL    HW233781   0.077   1.218  25.169
 7385SOL     OW33782   1.424   2.046   0.117
 7385SOL    HW133783   1.493   1.985   0.093
 7385SOL    HW233784   1.354   2.030   0.054
 7386SOL     OW33785   2.894   1.620  24.525
 7386SOL    HW133786   2.882   1.557  24.455
 7386SOL    HW233787   2.810   1.621  24.571
 7387SOL     OW33788   3.747   1.808   5.843
 7387SOL    HW133789   3.678   1.874   5.836
 7387SOL    HW233790   3.827   1.856   5.822
 7388SOL     OW33791   4.311   1.277  23.362
 7388SOL    HW133792   4.346   1.280  23.273
 7388SOL    HW233793   4.389   1.272  23.418
 7389SOL     OW33794   0.087   2.632  20.305
 7389SOL    HW133795   0.054   2.555  20.260
 7389SOL    HW233796   0.008   2.676  20.338
 7390SOL     OW33797   0.504   3.282   4.372
 7390SOL    HW133798   0.448   3.205   4.381
 7390SOL    HW233799   0.547   3.290   4.457
 7391SOL     OW33800   3.512   4.551  22.434
 7391SOL    HW133801   3.452   4.625  22.434
 7391SOL    HW233802   3.534   4.537  22.342
 7392SOL     OW33803   2.299   3.603   4.013
 7392SOL    HW133804   2.391   3.625   4.028
 7392SOL    HW233805   2.291   3.595   3.918
 7393SOL     OW33806   3.745   3.575  28.279
 7393SOL    HW133807   3.747   3.489  28.239
 7393SOL    HW233808   3.712   3.560  28.367
 7394SOL     OW33809   0.049   0.503  10.184
 7394SOL    HW133810   0.017   0.557  10.256
 7394SOL    HW233811   0.096   0.564  10.127
 7395SOL     OW33812   3.058   3.235  23.597
 7395SOL    HW133813   2.992   3.202  23.658
 7395SOL    HW233814   3.135   3.181  23.613
 7396SOL     OW33815   4.318   1.449   2.526
 7396SOL    HW133816   4.365   1.518   2.572
 7396SOL    HW233817   4.386   1.391   2.492
 7397SOL     OW33818   0.350   0.671  21.204
 7397SOL    HW133819   0.394   0.591  21.234
 7397SOL    HW233820   0.257   0.647  21.203
 7398SOL     OW33821   1.829   4.724  26.965
 7398SOL    HW133822   1.823   4.733  26.870
 7398SOL    HW233823   1.799   4.636  26.984
 7399SOL     OW33824   4.583   1.293   8.055
 7399SOL    HW133825   4.613   1.245   8.131
 7399SOL    HW233826   4.497   1.327   8.080
 7400SOL     OW33827   3.791   0.885  21.033
 7400SOL    HW133828   3.774   0.971  21.071
 7400SOL    HW233829   3.868   0.898  20.977
 7401SOL     OW33830   3.715   4.697   1.332
 7401SOL    HW133831   3.798   4.716   1.288
 7401SOL    HW233832   3.737   4.634   1.400
 7402SOL     OW33833   4.524   0.415  11.349
 7402SOL    HW133834   4.505   0.506  11.374
 7402SOL    HW233835   4.616   0.403  11.372
 7403SOL     OW33836   1.153   1.917  27.820
 7403SOL    HW133837   1.124   2.008  27.828
 7403SOL    HW233838   1.138   1.895  27.728
 7404SOL     OW33839   2.782   4.514  20.925
 7404SOL    HW133840   2.795   4.451  20.995
 7404SOL    HW233841   2.866   4.558  20.915
 7405SOL     OW33842   3.662   3.839  22.778
 7405SOL    HW133843   3.643   3.749  22.804
 7405SOL    HW233844   3.721   3.873  22.846
 7406SOL     OW33845   1.207   3.162  28.432
 7406SOL    HW133846   1.255   3.187  28.353
 7406SOL    HW233847   1.256   3.089  28.468
 7407SOL     OW33848   2.817   2.183   7.812
 7407SOL    HW133849   2.870   2.258   7.785
 7407SOL    HW233850   2.870   2.106   7.789
 7408SOL     OW33851   2.498   3.312   2.227
 7408SOL    HW133852   2.429   3.378   2.230
 7408SOL    HW233853   2.561   3.344   2.163
 7409SOL     OW33854   2.149   1.214  18.752
 7409SOL    HW133855   2.098   1.292  18.730
 7409SOL    HW233856   2.237   1.234  18.721
 7410SOL     OW33857   2.929   3.971   7.081
 7410SOL    HW133858   2.876   3.892   7.089
 7410SOL    HW233859   3.010   3.950   7.129
 7411SOL     OW33860   4.538   4.321  24.125
 7411SOL    HW133861   4.531   4.359  24.212
 7411SOL    HW233862   4.469   4.255  24.121
 7412SOL     OW33863   4.119   1.915  11.695
 7412SOL    HW133864   4.057   1.983  11.668
 7412SOL    HW233865   4.106   1.908  11.790
 7413SOL     OW33866   0.414   1.223  27.324
 7413SOL    HW133867   0.460   1.180  27.251
 7413SOL    HW233868   0.324   1.189  27.319
 7414SOL     OW33869   1.733   1.252   1.220
 7414SOL    HW133870   1.698   1.176   1.267
 7414SOL    HW233871   1.655   1.303   1.196
 7415SOL     OW33872   1.640   0.923  22.648
 7415SOL    HW133873   1.580   0.961  22.584
 7415SOL    HW233874   1.614   0.831  22.653
 7416SOL     OW33875   3.373   3.375   9.798
 7416SOL    HW133876   3.280   3.392   9.813
 7416SOL    HW233877   3.381   3.280   9.800
 7417SOL     OW33878   2.153   2.777   1.349
 7417SOL    HW133879   2.211   2.705   1.373
 7417SOL    HW233880   2.188   2.852   1.396
 7418SOL     OW33881   1.161   1.697  21.874
 7418SOL    HW133882   1.247   1.718  21.910
 7418SOL    HW233883   1.172   1.705  21.779
 7419SOL     OW33884   3.830   2.262  23.807
 7419SOL    HW133885   3.890   2.296  23.874
 7419SOL    HW233886   3.844   2.168  23.806
 7420SOL     OW33887   1.878   2.927   9.058
 7420SOL    HW133888   1.914   3.015   9.069
 7420SOL    HW233889   1.829   2.911   9.139
 7421SOL     OW33890   0.955   3.782   8.828
 7421SOL    HW133891   0.860   3.774   8.831
 7421SOL    HW233892   0.985   3.731   8.903
 7422SOL     OW33893   2.945   4.203   6.789
 7422SOL    HW133894   2.895   4.175   6.866
 7422SOL    HW233895   2.969   4.121   6.745
 7423SOL     OW33896   1.356   3.056   5.966
 7423SOL    HW133897   1.342   2.983   6.027
 7423SOL    HW233898   1.345   3.134   6.020
 7424SOL     OW33899   1.541   4.480  12.696
 7424SOL    HW133900   1.456   4.506  12.730
 7424SOL    HW233901   1.588   4.445  12.772
 7425SOL     OW33902   0.529   3.981   5.701
 7425SOL    HW133903   0.540   3.894   5.740
 7425SOL    HW233904   0.617   4.018   5.700
 7426SOL     OW33905   0.930   4.279  22.876
 7426SOL    HW133906   0.986   4.357  22.885
 7426SOL    HW233907   0.844   4.308  22.905
 7427SOL     OW33908   1.665   4.500  22.544
 7427SOL    HW133909   1.646   4.450  22.465
 7427SOL    HW233910   1.632   4.446  22.616
 7428SOL     OW33911   1.227   2.694  22.542
 7428SOL    HW133912   1.213   2.785  22.515
 7428SOL    HW233913   1.209   2.643  22.463
 7429SOL     OW33914   2.616   0.044  22.353
 7429SOL    HW133915   2.662   0.069  22.272
 7429SOL    HW233916   2.684   0.004  22.407
 7430SOL     OW33917   1.201   0.200  19.001
 7430SOL    HW133918   1.252   0.280  18.994
 7430SOL    HW233919   1.138   0.205  18.929
 7431SOL     OW33920   0.349   2.663   9.384
 7431SOL    HW133921   0.440   2.692   9.386
 7431SOL    HW233922   0.330   2.640   9.475
 7432SOL     OW33923   0.182   2.526  22.519
 7432SOL    HW133924   0.242   2.562  22.453
 7432SOL    HW233925   0.098   2.565  22.498
 7433SOL     OW33926   3.005   3.652  24.463
 7433SOL    HW133927   2.985   3.571  24.509
 7433SOL    HW233928   3.100   3.662  24.471
 7434SOL     OW33929   0.362   4.701  25.967
 7434SOL    HW133930   0.365   4.665  26.056
 7434SOL    HW233931   0.416   4.642  25.915
 7435SOL     OW33932   1.775   0.907  23.768
 7435SOL    HW133933   1.783   0.812  23.770
 7435SOL    HW233934   1.682   0.924  23.779
 7436SOL     OW33935   0.685   4.643  21.907
 7436SOL    HW133936   0.717   4.679  21.824
 7436SOL    HW233937   0.757   4.587  21.938
 7437SOL     OW33938   2.990   1.395  26.545
 7437SOL    HW133939   3.007   1.309  26.508
 7437SOL    HW233940   3.036   1.396  26.629
 7438SOL     OW33941   2.023   4.124  21.976
 7438SOL    HW133942   1.992   4.036  21.998
 7438SOL    HW233943   2.026   4.125  21.880
 7439SOL     OW33944   2.092   1.865   3.691
 7439SOL    HW133945   2.180   1.825   3.695
 7439SOL    HW233946   2.109   1.958   3.674
 7440SOL     OW33947   1.632   4.234   7.957
 7440SOL    HW133948   1.672   4.237   7.870
 7440SOL    HW233949   1.702   4.262   8.016
 7441SOL     OW33950   0.537   0.845  24.273
 7441SOL    HW133951   0.599   0.897  24.223
 7441SOL    HW233952   0.452   0.886  24.257
 7442SOL     OW33953   4.491   1.827  21.603
 7442SOL    HW133954   4.576   1.812  21.645
 7442SOL    HW233955   4.495   1.777  21.522
 7443SOL     OW33956   3.002   0.361  26.960
 7443SOL    HW133957   2.982   0.330  27.048
 7443SOL    HW233958   3.056   0.439  26.974
 7444SOL     OW33959   1.420   1.213   3.719
 7444SOL    HW133960   1.440   1.207   3.812
 7444SOL    HW233961   1.393   1.124   3.695
 7445SOL     OW33962   1.932   2.116   9.371
 7445SOL    HW133963   1.939   2.040   9.428
 7445SOL    HW233964   1.870   2.174   9.415
 7446SOL     OW33965   2.658   2.667   4.593
 7446SOL    HW133966   2.591   2.668   4.525
 7446SOL    HW233967   2.657   2.755   4.630
 7447SOL     OW33968   3.726   3.482  24.261
 7447SOL    HW133969   3.736   3.389  24.238
 7447SOL    HW233970   3.729   3.527  24.176
 7448SOL     OW33971   3.095   0.360   6.922
 7448SOL    HW133972   3.111   0.451   6.948
 7448SOL    HW233973   3.158   0.345   6.851
 7449SOL     OW33974   2.328   4.033  10.333
 7449SOL    HW133975   2.346   4.069  10.246
 7449SOL    HW233976   2.328   4.109  10.391
 7450SOL     OW33977   1.826   2.887  21.823
 7450SOL    HW133978   1.765   2.842  21.764
 7450SOL    HW233979   1.848   2.822  21.889
 7451SOL     OW33980   4.623   1.174   9.133
 7451SOL    HW133981   4.539   1.215   9.156
 7451SOL    HW233982   4.689   1.240   9.158
 7452SOL     OW33983   3.351   1.952  17.803
 7452SOL    HW133984   3.282   2.018  17.812
 7452SOL    HW233985   3.423   1.998  17.759
 7453SOL     OW33986   1.681   1.240   6.635
 7453SOL    HW133987   1.615   1.287   6.584
 7453SOL    HW233988   1.636   1.212   6.714
 7454SOL     OW33989   3.234   0.001   7.405
 7454SOL    HW133990   3.215   0.014   7.313
 7454SOL    HW233991   3.179   4.710   7.432
 7455SOL     OW33992   2.240   4.650   8.793
 7455SOL    HW133993   2.323   4.677   8.755
 7455SOL    HW233994   2.177   4.714   8.761
 7456SOL     OW33995   2.444   4.237   0.778
 7456SOL    HW133996   2.511   4.305   0.786
 7456SOL    HW233997   2.409   4.227   0.867
 7457SOL     OW33998   4.761   1.796   2.974
 7457SOL    HW133999   4.772   1.841   3.057
 7457SOL    HW234000   0.067   1.769   2.949
 7458SOL     OW34001   0.008   1.970  19.085
 7458SOL    HW134002   4.726   2.038  19.105
 7458SOL    HW234003   4.779   1.905  19.153
 7459SOL     OW34004   1.489   1.211  27.826
 7459SOL    HW134005   1.519   1.203  27.735
 7459SOL    HW234006   1.459   1.302  27.833
 7460SOL     OW34007   0.141   1.429  25.704
 7460SOL    HW134008   0.121   1.454  25.614
 7460SOL    HW234009   0.181   1.342  25.697
 7461SOL     OW34010   1.446   3.181  26.949
 7461SOL    HW134011   1.540   3.174  26.932
 7461SOL    HW234012   1.427   3.274  26.935
 7462SOL     OW34013   0.221   0.211   8.415
 7462SOL    HW134014   0.257   0.185   8.330
 7462SOL    HW234015   0.253   0.144   8.476
 7463SOL     OW34016   3.850   1.738  23.511
 7463SOL    HW134017   3.823   1.811  23.567
 7463SOL    HW234018   3.772   1.683  23.503
 7464SOL     OW34019   3.591   4.224   6.326
 7464SOL    HW134020   3.597   4.319   6.316
 7464SOL    HW234021   3.568   4.211   6.418
 7465SOL     OW34022   4.711   3.687  25.811
 7465SOL    HW134023   4.733   3.609  25.759
 7465SOL    HW234024   4.619   3.704  25.790
 7466SOL     OW34025   0.225   2.076   2.544
 7466SOL    HW134026   0.178   2.059   2.625
 7466SOL    HW234027   0.215   2.170   2.529
 7467SOL     OW34028   4.451   4.128   0.829
 7467SOL    HW134029   4.497   4.044   0.839
 7467SOL    HW234030   4.426   4.130   0.737
 7468SOL     OW34031   3.615   4.539  18.509
 7468SOL    HW134032   3.579   4.533  18.421
 7468SOL    HW234033   3.709   4.527  18.498
 7469SOL     OW34034   1.021   3.327  21.813
 7469SOL    HW134035   0.953   3.284  21.865
 7469SOL    HW234036   0.975   3.397  21.767
 7470SOL     OW34037   2.263   0.408   9.381
 7470SOL    HW134038   2.298   0.353   9.311
 7470SOL    HW234039   2.281   0.498   9.352
 7471SOL     OW34040   4.462   0.468   9.083
 7471SOL    HW134041   4.458   0.373   9.083
 7471SOL    HW234042   4.383   0.496   9.130
 7472SOL     OW34043   0.696   1.968  18.717
 7472SOL    HW134044   0.757   2.032  18.756
 7472SOL    HW234045   0.752   1.911  18.665
 7473SOL     OW34046   1.427   0.320  19.891
 7473SOL    HW134047   1.418   0.356  19.803
 7473SOL    HW234048   1.509   0.357  19.924
 7474SOL     OW34049   2.013   2.007  10.443
 7474SOL    HW134050   1.965   1.999  10.360
 7474SOL    HW234051   2.008   1.919  10.481
 7475SOL     OW34052   2.371   4.007  10.890
 7475SOL    HW134053   2.281   4.020  10.921
 7475SOL    HW234054   2.425   4.018  10.969
 7476SOL     OW34055   0.707   0.603   1.458
 7476SOL    HW134056   0.788   0.604   1.408
 7476SOL    HW234057   0.695   0.693   1.487
 7477SOL     OW34058   2.659   0.307  26.436
 7477SOL    HW134059   2.732   0.354  26.395
 7477SOL    HW234060   2.675   0.215  26.416
 7478SOL     OW34061   3.453   0.233   5.549
 7478SOL    HW134062   3.506   0.250   5.471
 7478SOL    HW234063   3.457   0.315   5.599
 7479SOL     OW34064   1.812   2.417   7.086
 7479SOL    HW134065   1.720   2.444   7.076
 7479SOL    HW234066   1.814   2.327   7.053
 7480SOL     OW34067   0.290   3.248   3.954
 7480SOL    HW134068   0.228   3.300   3.902
 7480SOL    HW234069   0.261   3.258   4.044
 7481SOL     OW34070   2.871   2.564   5.277
 7481SOL    HW134071   2.803   2.497   5.278
 7481SOL    HW234072   2.874   2.594   5.186
 7482SOL     OW34073   0.501   3.279  25.688
 7482SOL    HW134074   0.415   3.272  25.647
 7482SOL    HW234075   0.493   3.231  25.770
 7483SOL     OW34076   2.560   2.131   2.598
 7483SOL    HW134077   2.519   2.095   2.676
 7483SOL    HW234078   2.529   2.221   2.593
 7484SOL     OW34079   0.748   3.203   0.657
 7484SOL    HW134080   0.830   3.187   0.610
 7484SOL    HW234081   0.739   3.128   0.716
 7485SOL     OW34082   0.353   0.796   7.941
 7485SOL    HW134083   0.317   0.710   7.919
 7485SOL    HW234084   0.446   0.789   7.919
 7486SOL     OW34085   4.763   3.272  23.024
 7486SOL    HW134086   0.060   3.300  22.977
 7486SOL    HW234087   4.697   3.261  22.956
 7487SOL     OW34088   1.240   4.683   8.841
 7487SOL    HW134089   1.248   4.657   8.749
 7487SOL    HW234090   1.296   4.622   8.889
 7488SOL     OW34091   4.782   0.313   3.630
 7488SOL    HW134092   0.046   0.234   3.602
 7488SOL    HW234093   0.019   0.320   3.723
 7489SOL     OW34094   0.438   1.389  24.812
 7489SOL    HW134095   0.390   1.453  24.865
 7489SOL    HW234096   0.381   1.372  24.737
 7490SOL     OW34097   0.020   0.534  24.056
 7490SOL    HW134098   4.746   0.507  24.129
 7490SOL    HW234099   0.106   0.498  24.078
 7491SOL     OW34100   4.052   1.349   2.782
 7491SOL    HW134101   3.971   1.322   2.826
 7491SOL    HW234102   4.023   1.386   2.699
 7492SOL     OW34103   3.829   4.708   3.834
 7492SOL    HW134104   3.888   4.758   3.778
 7492SOL    HW234105   3.760   4.769   3.857
 7493SOL     OW34106   2.468   0.673  27.652
 7493SOL    HW134107   2.545   0.675  27.708
 7493SOL    HW234108   2.496   0.624  27.574
 7494SOL     OW34109   0.366   1.463   5.256
 7494SOL    HW134110   0.426   1.537   5.269
 7494SOL    HW234111   0.380   1.437   5.165
 7495SOL     OW34112   1.669   2.089  23.133
 7495SOL    HW134113   1.659   2.182  23.112
 7495SOL    HW234114   1.628   2.043  23.060
 7496SOL     OW34115   0.012   3.003  23.796
 7496SOL    HW134116   4.744   3.061  23.854
 7496SOL    HW234117   4.728   2.963  23.740
 7497SOL     OW34118   0.818   1.340  10.170
 7497SOL    HW134119   0.897   1.366  10.217
 7497SOL    HW234120   0.840   1.350  10.078
 7498SOL     OW34121   4.214   2.880   1.405
 7498SOL    HW134122   4.171   2.898   1.321
 7498SOL    HW234123   4.180   2.795   1.432
 7499SOL     OW34124   1.739   2.778  23.443
 7499SOL    HW134125   1.781   2.695  23.464
 7499SOL    HW234126   1.724   2.774  23.349
 7500SOL     OW34127   1.145   0.273  21.071
 7500SOL    HW134128   1.218   0.214  21.048
 7500SOL    HW234129   1.162   0.297  21.162
 7501SOL     OW34130   2.062   0.506   5.557
 7501SOL    HW134131   2.099   0.439   5.500
 7501SOL    HW234132   2.048   0.461   5.641
 7502SOL     OW34133   4.289   4.330   3.861
 7502SOL    HW134134   4.280   4.389   3.936
 7502SOL    HW234135   4.379   4.343   3.831
 7503SOL     OW34136   3.012   4.156  25.334
 7503SOL    HW134137   3.041   4.199  25.253
 7503SOL    HW234138   3.065   4.195  25.403
 7504SOL     OW34139   2.953   4.113  25.648
 7504SOL    HW134140   2.920   4.199  25.623
 7504SOL    HW234141   3.036   4.104  25.601
 7505SOL     OW34142   4.227   2.785   7.867
 7505SOL    HW134143   4.252   2.701   7.905
 7505SOL    HW234144   4.150   2.766   7.814
 7506SOL     OW34145   3.964   2.741  22.037
 7506SOL    HW134146   3.958   2.739  21.941
 7506SOL    HW234147   3.927   2.657  22.064
 7507SOL     OW34148   1.905   3.163  19.794
 7507SOL    HW134149   1.842   3.206  19.737
 7507SOL    HW234150   1.921   3.226  19.865
 7508SOL     OW34151   0.786   2.201   7.418
 7508SOL    HW134152   0.860   2.142   7.430
 7508SOL    HW234153   0.823   2.278   7.375
 7509SOL     OW34154   2.991   2.370  22.085
 7509SOL    HW134155   3.028   2.342  22.169
 7509SOL    HW234156   3.060   2.424  22.046
 7510SOL     OW34157   2.399   3.748  25.915
 7510SOL    HW134158   2.383   3.658  25.885
 7510SOL    HW234159   2.312   3.780  25.939
 7511SOL     OW34160   0.421   0.201   2.778
 7511SOL    HW134161   0.461   0.284   2.805
 7511SOL    HW234162   0.388   0.163   2.859
 7512SOL     OW34163   1.953   3.113  19.347
 7512SOL    HW134164   1.905   3.196  19.343
 7512SOL    HW234165   2.003   3.110  19.265
 7513SOL     OW34166   0.680   0.528  10.797
 7513SOL    HW134167   0.722   0.500  10.716
 7513SOL    HW234168   0.674   0.448  10.850
 7514SOL     OW34169   1.544   3.799   6.942
 7514SOL    HW134170   1.501   3.861   7.000
 7514SOL    HW234171   1.579   3.732   7.001
 7515SOL     OW34172   0.740   3.842  23.994
 7515SOL    HW134173   0.731   3.913  23.931
 7515SOL    HW234174   0.650   3.816  24.014
 7516SOL     OW34175   4.200   4.240   4.298
 7516SOL    HW134176   4.136   4.251   4.228
 7516SOL    HW234177   4.176   4.159   4.342
 7517SOL     OW34178   2.499   2.585   5.397
 7517SOL    HW134179   2.540   2.617   5.478
 7517SOL    HW234180   2.535   2.641   5.329
 7518SOL     OW34181   4.338   3.024  19.253
 7518SOL    HW134182   4.275   3.001  19.185
 7518SOL    HW234183   4.415   3.055  19.205
 7519SOL     OW34184   2.291   3.644  28.369
 7519SOL    HW134185   2.202   3.676  28.380
 7519SOL    HW234186   2.342   3.721  28.345
 7520SOL     OW34187   1.649   0.860   1.965
 7520SOL    HW134188   1.588   0.822   1.902
 7520SOL    HW234189   1.717   0.794   1.976
 7521SOL     OW34190   4.284   1.871   7.270
 7521SOL    HW134191   4.212   1.821   7.309
 7521SOL    HW234192   4.363   1.832   7.308
 7522SOL     OW34193   3.199   3.229   6.005
 7522SOL    HW134194   3.204   3.141   6.043
 7522SOL    HW234195   3.169   3.214   5.915
 7523SOL     OW34196   0.771   1.755  25.614
 7523SOL    HW134197   0.695   1.814  25.611
 7523SOL    HW234198   0.838   1.799  25.563
 7524SOL     OW34199   1.530   4.362  11.842
 7524SOL    HW134200   1.573   4.291  11.889
 7524SOL    HW234201   1.522   4.433  11.906
 7525SOL     OW34202   1.381   1.194  25.436
 7525SOL    HW134203   1.401   1.100  25.442
 7525SOL    HW234204   1.427   1.223  25.357
 7526SOL     OW34205   4.373   0.489   7.325
 7526SOL    HW134206   4.422   0.407   7.332
 7526SOL    HW234207   4.430   0.546   7.273
 7527SOL     OW34208   0.728   2.377  10.230
 7527SOL    HW134209   0.806   2.432  10.237
 7527SOL    HW234210   0.655   2.438  10.223
 7528SOL     OW34211   0.154   3.768   5.969
 7528SOL    HW134212   0.227   3.729   5.920
 7528SOL    HW234213   0.081   3.768   5.907
 7529SOL     OW34214   1.134   1.896  23.956
 7529SOL    HW134215   1.227   1.912  23.938
 7529SOL    HW234216   1.131   1.874  24.049
 7530SOL     OW34217   3.744   4.494  26.053
 7530SOL    HW134218   3.691   4.438  26.110
 7530SOL    HW234219   3.758   4.441  25.975
 7531SOL     OW34220   1.946   1.488  21.678
 7531SOL    HW134221   1.994   1.450  21.752
 7531SOL    HW234222   1.992   1.456  21.601
 7532SOL     OW34223   4.381   3.813   9.091
 7532SOL    HW134224   4.330   3.732   9.097
 7532SOL    HW234225   4.421   3.822   9.177
 7533SOL     OW34226   3.008   4.579  21.334
 7533SOL    HW134227   2.951   4.653  21.315
 7533SOL    HW234228   3.046   4.555  21.249
 7534SOL     OW34229   4.173   3.167  27.374
 7534SOL    HW134230   4.147   3.149  27.284
 7534SOL    HW234231   4.212   3.085  27.405
 7535SOL     OW34232   2.463   2.960  26.056
 7535SOL    HW134233   2.392   3.020  26.033
 7535SOL    HW234234   2.424   2.873  26.052
 7536SOL     OW34235   0.102   3.935  21.652
 7536SOL    HW134236   0.080   3.851  21.612
 7536SOL    HW234237   0.198   3.938  21.649
 7537SOL     OW34238   1.885   4.036  21.238
 7537SOL    HW134239   1.971   4.047  21.197
 7537SOL    HW234240   1.851   3.954  21.202
 7538SOL     OW34241   0.218   3.392  22.339
 7538SOL    HW134242   0.154   3.321  22.348
 7538SOL    HW234243   0.269   3.370  22.262
 7539SOL     OW34244   1.125   0.020   1.101
 7539SOL    HW134245   1.067   4.751   1.157
 7539SOL    HW234246   1.068   0.051   1.030
 7540SOL     OW34247   2.036   2.203  22.755
 7540SOL    HW134248   2.067   2.291  22.776
 7540SOL    HW234249   1.942   2.206  22.773
 7541SOL     OW34250   4.702   0.687  25.302
 7541SOL    HW134251   4.781   0.645  25.336
 7541SOL    HW234252   4.732   0.733  25.223
 7542SOL     OW34253   1.651   1.192   8.094
 7542SOL    HW134254   1.742   1.177   8.065
 7542SOL    HW234255   1.607   1.228   8.017
 7543SOL     OW34256   3.995   2.731   3.305
 7543SOL    HW134257   3.967   2.701   3.391
 7543SOL    HW234258   4.001   2.826   3.313
 7544SOL     OW34259   0.780   0.343   3.744
 7544SOL    HW134260   0.724   0.390   3.682
 7544SOL    HW234261   0.746   0.253   3.744
 7545SOL     OW34262   2.319   1.203   1.697
 7545SOL    HW134263   2.361   1.281   1.733
 7545SOL    HW234264   2.390   1.155   1.654
 7546SOL     OW34265   3.727   2.355  11.409
 7546SOL    HW134266   3.717   2.437  11.458
 7546SOL    HW234267   3.643   2.310  11.421
 7547SOL     OW34268   3.870   2.124   1.285
 7547SOL    HW134269   3.835   2.204   1.325
 7547SOL    HW234270   3.934   2.093   1.348
 7548SOL     OW34271   2.560   0.697  28.422
 7548SOL    HW134272   2.543   0.711  28.515
 7548SOL    HW234273   2.530   0.608  28.405
 7549SOL     OW34274   1.330   2.568  27.071
 7549SOL    HW134275   1.312   2.660  27.091
 7549SOL    HW234276   1.317   2.560  26.977
 7550SOL     OW34277   2.688   0.199  26.792
 7550SOL    HW134278   2.728   0.162  26.871
 7550SOL    HW234279   2.732   0.282  26.779
 7551SOL     OW34280   3.056   2.763  27.562
 7551SOL    HW134281   3.058   2.858  27.552
 7551SOL    HW234282   3.117   2.730  27.496
 7552SOL     OW34283   3.203   3.981   3.262
 7552SOL    HW134284   3.241   4.068   3.250
 7552SOL    HW234285   3.157   3.986   3.346
 7553SOL     OW34286   0.768   3.036   8.607
 7553SOL    HW134287   0.863   3.033   8.607
 7553SOL    HW234288   0.746   3.111   8.663
 7554SOL     OW34289   1.831   4.214  26.588
 7554SOL    HW134290   1.794   4.280  26.529
 7554SOL    HW234291   1.925   4.222  26.575
 7555SOL     OW34292   2.090   0.330   5.774
 7555SOL    HW134293   2.161   0.274   5.805
 7555SOL    HW234294   2.010   0.284   5.800
 7556SOL     OW34295   2.720   2.497   6.233
 7556SOL    HW134296   2.630   2.483   6.264
 7556SOL    HW234297   2.734   2.590   6.244
 7557SOL     OW34298   4.456   3.786  24.971
 7557SOL    HW134299   4.372   3.830  24.955
 7557SOL    HW234300   4.454   3.765  25.064
 7558SOL     OW34301   3.617   4.355   8.991
 7558SOL    HW134302   3.697   4.350   8.939
 7558SOL    HW234303   3.549   4.318   8.935
 7559SOL     OW34304   2.432   3.009  23.634
 7559SOL    HW134305   2.371   3.082  23.629
 7559SOL    HW234306   2.471   3.004  23.547
 7560SOL     OW34307   1.261   3.030   7.270
 7560SOL    HW134308   1.242   2.937   7.258
 7560SOL    HW234309   1.260   3.043   7.365
 7561SOL     OW34310   0.550   2.089   1.413
 7561SOL    HW134311   0.556   2.063   1.321
 7561SOL    HW234312   0.549   2.006   1.461
 7562SOL     OW34313   2.642   3.848  25.926
 7562SOL    HW134314   2.682   3.876  25.844
 7562SOL    HW234315   2.552   3.826  25.902
 7563SOL     OW34316   1.088   1.495   6.936
 7563SOL    HW134317   1.148   1.543   6.879
 7563SOL    HW234318   1.023   1.560   6.963
 7564SOL     OW34319   0.977   0.710   2.962
 7564SOL    HW134320   1.041   0.694   3.031
 7564SOL    HW234321   0.897   0.735   3.008
 7565SOL     OW34322   0.183   2.086  20.673
 7565SOL    HW134323   0.127   2.120  20.742
 7565SOL    HW234324   0.186   2.155  20.607
 7566SOL     OW34325   2.962   3.441  28.215
 7566SOL    HW134326   2.984   3.514  28.273
 7566SOL    HW234327   2.868   3.427  28.230
 7567SOL     OW34328   4.446   4.578  22.864
 7567SOL    HW134329   4.411   4.561  22.777
 7567SOL    HW234330   4.488   4.664  22.856
 7568SOL     OW34331   3.701   2.519   7.654
 7568SOL    HW134332   3.738   2.453   7.596
 7568SOL    HW234333   3.727   2.492   7.742
 7569SOL     OW34334   3.380   3.947   2.510
 7569SOL    HW134335   3.419   3.862   2.487
 7569SOL    HW234336   3.408   3.962   2.601
 7570SOL     OW34337   1.302   2.055  20.248
 7570SOL    HW134338   1.266   1.968  20.262
 7570SOL    HW234339   1.248   2.112  20.302
 7571SOL     OW34340   2.101   1.481   4.225
 7571SOL    HW134341   2.180   1.430   4.242
 7571SOL    HW234342   2.093   1.539   4.301
 7572SOL     OW34343   4.217   1.687   6.356
 7572SOL    HW134344   4.311   1.688   6.377
 7572SOL    HW234345   4.175   1.725   6.433
 7573SOL     OW34346   3.781   3.995  24.415
 7573SOL    HW134347   3.865   3.962  24.446
 7573SOL    HW234348   3.803   4.049  24.339
 7574SOL     OW34349   1.528   2.683   1.652
 7574SOL    HW134350   1.441   2.675   1.692
 7574SOL    HW234351   1.562   2.594   1.649
 7575SOL     OW34352   4.182   2.269  26.828
 7575SOL    HW134353   4.249   2.226  26.882
 7575SOL    HW234354   4.172   2.356  26.866
 7576SOL     OW34355   1.488   1.000   1.154
 7576SOL    HW134356   1.507   1.066   1.087
 7576SOL    HW234357   1.470   1.051   1.233
 7577SOL     OW34358   4.453   3.713   7.573
 7577SOL    HW134359   4.440   3.618   7.568
 7577SOL    HW234360   4.546   3.725   7.555
 7578SOL     OW34361   2.657   3.415  11.028
 7578SOL    HW134362   2.722   3.369  10.975
 7578SOL    HW234363   2.680   3.508  11.018
 7579SOL     OW34364   0.537   3.111   2.696
 7579SOL    HW134365   0.545   3.176   2.627
 7579SOL    HW234366   0.447   3.081   2.691
 7580SOL     OW34367   1.272   3.719   7.634
 7580SOL    HW134368   1.259   3.642   7.579
 7580SOL    HW234369   1.341   3.693   7.695
 7581SOL     OW34370   3.726   0.780   7.886
 7581SOL    HW134371   3.734   0.870   7.855
 7581SOL    HW234372   3.774   0.779   7.969
 7582SOL     OW34373   4.132   1.081  22.123
 7582SOL    HW134374   4.093   1.066  22.208
 7582SOL    HW234375   4.221   1.111  22.142
 7583SOL     OW34376   2.757   3.237   6.821
 7583SOL    HW134377   2.673   3.221   6.779
 7583SOL    HW234378   2.816   3.171   6.783
 7584SOL     OW34379   0.023   2.094  10.104
 7584SOL    HW134380   0.117   2.077  10.098
 7584SOL    HW234381   0.014   2.162  10.170
 7585SOL     OW34382   3.965   3.731   0.695
 7585SOL    HW134383   3.887   3.751   0.644
 7585SOL    HW234384   4.026   3.803   0.676
 7586SOL     OW34385   4.346   0.943   6.671
 7586SOL    HW134386   4.256   0.954   6.701
 7586SOL    HW234387   4.380   1.032   6.661
 7587SOL     OW34388   1.661   2.447   1.638
 7587SOL    HW134389   1.744   2.490   1.660
 7587SOL    HW234390   1.677   2.406   1.553
 7588SOL     OW34391   0.863   1.699  26.256
 7588SOL    HW134392   0.865   1.735  26.167
 7588SOL    HW234393   0.840   1.607  26.243
 7589SOL     OW34394   3.114   1.427  22.184
 7589SOL    HW134395   3.197   1.382  22.203
 7589SOL    HW234396   3.052   1.391  22.248
 7590SOL     OW34397   0.424   3.813   8.927
 7590SOL    HW134398   0.518   3.797   8.937
 7590SOL    HW234399   0.416   3.908   8.928
 7591SOL     OW34400   1.348   3.250  23.175
 7591SOL    HW134401   1.396   3.267  23.256
 7591SOL    HW234402   1.305   3.333  23.154
 7592SOL     OW34403   0.110   0.546   1.264
 7592SOL    HW134404   0.097   0.454   1.288
 7592SOL    HW234405   0.042   0.593   1.313
 7593SOL     OW34406   3.152   4.214  21.228
 7593SOL    HW134407   3.212   4.169  21.288
 7593SOL    HW234408   3.140   4.152  21.155
 7594SOL     OW34409   0.522   0.141   6.171
 7594SOL    HW134410   0.516   0.107   6.082
 7594SOL    HW234411   0.451   0.205   6.177
 7595SOL     OW34412   0.889   2.981  23.611
 7595SOL    HW134413   0.901   3.055  23.670
 7595SOL    HW234414   0.931   2.907  23.656
 7596SOL     OW34415   4.413   1.757  25.236
 7596SOL    HW134416   4.358   1.679  25.226
 7596SOL    HW234417   4.462   1.741  25.317
 7597SOL     OW34418   3.437   0.825   2.301
 7597SOL    HW134419   3.371   0.848   2.366
 7597SOL    HW234420   3.392   0.767   2.240
 7598SOL     OW34421   2.381   1.888   6.517
 7598SOL    HW134422   2.302   1.936   6.542
 7598SOL    HW234423   2.386   1.898   6.422
 7599SOL     OW34424   1.521   0.543   7.945
 7599SOL    HW134425   1.581   0.597   7.996
 7599SOL    HW234426   1.578   0.491   7.888
 7600SOL     OW34427   1.985   1.991   7.103
 7600SOL    HW134428   2.069   2.034   7.087
 7600SOL    HW234429   2.008   1.910   7.149
 7601SOL     OW34430   3.616   3.189  19.468
 7601SOL    HW134431   3.558   3.209  19.542
 7601SOL    HW234432   3.689   3.141  19.507
 7602SOL     OW34433   3.498   2.060   2.346
 7602SOL    HW134434   3.553   2.070   2.269
 7602SOL    HW234435   3.523   1.976   2.384
 7603SOL     OW34436   4.570   3.657  23.989
 7603SOL    HW134437   4.513   3.678  24.062
 7603SOL    HW234438   4.659   3.660  24.026
 7604SOL     OW34439   2.331   2.932   4.532
 7604SOL    HW134440   2.406   2.991   4.519
 7604SOL    HW234441   2.321   2.888   4.448
 7605SOL     OW34442   3.092   4.508   0.847
 7605SOL    HW134443   3.016   4.565   0.833
 7605SOL    HW234444   3.158   4.566   0.887
 7606SOL     OW34445   4.346   1.518   1.209
 7606SOL    HW134446   4.341   1.560   1.123
 7606SOL    HW234447   4.396   1.438   1.193
 7607SOL     OW34448   1.097   1.127   3.890
 7607SOL    HW134449   1.130   1.164   3.808
 7607SOL    HW234450   1.060   1.201   3.937
 7608SOL     OW34451   3.387   4.110  23.511
 7608SOL    HW134452   3.349   4.060  23.583
 7608SOL    HW234453   3.475   4.134  23.541
 7609SOL     OW34454   4.347   3.295   2.707
 7609SOL    HW134455   4.317   3.352   2.778
 7609SOL    HW234456   4.398   3.352   2.650
 7610SOL     OW34457   0.867   0.848   7.498
 7610SOL    HW134458   0.868   0.781   7.430
 7610SOL    HW234459   0.953   0.888   7.495
 7611SOL     OW34460   3.615   3.848  19.327
 7611SOL    HW134461   3.543   3.900  19.363
 7611SOL    HW234462   3.573   3.769  19.293
 7612SOL     OW34463   2.226   2.801   2.893
 7612SOL    HW134464   2.246   2.707   2.896
 7612SOL    HW234465   2.177   2.812   2.812
 7613SOL     OW34466   4.260   4.770  27.268
 7613SOL    HW134467   4.262   4.676  27.287
 7613SOL    HW234468   4.285   0.029  27.351
 7614SOL     OW34469   3.807   4.655  22.149
 7614SOL    HW134470   3.816   4.628  22.058
 7614SOL    HW234471   3.731   4.608  22.181
 7615SOL     OW34472   0.682   0.121  26.521
 7615SOL    HW134473   0.616   0.189  26.508
 7615SOL    HW234474   0.762   0.169  26.543
 7616SOL     OW34475   3.748   0.621  10.236
 7616SOL    HW134476   3.681   0.680  10.202
 7616SOL    HW234477   3.829   0.671  10.228
 7617SOL     OW34478   1.366   3.652   2.278
 7617SOL    HW134479   1.409   3.636   2.362
 7617SOL    HW234480   1.322   3.570   2.257
 7618SOL     OW34481   2.281   2.272  10.697
 7618SOL    HW134482   2.354   2.334  10.687
 7618SOL    HW234483   2.287   2.215  10.621
 7619SOL     OW34484   1.751   0.739  24.081
 7619SOL    HW134485   1.722   0.717  23.993
 7619SOL    HW234486   1.761   0.834  24.081
 7620SOL     OW34487   0.605   3.974   8.578
 7620SOL    HW134488   0.541   4.033   8.619
 7620SOL    HW234489   0.676   3.969   8.642
 7621SOL     OW34490   1.834   3.891  10.145
 7621SOL    HW134491   1.815   3.964  10.086
 7621SOL    HW234492   1.929   3.893  10.155
 7622SOL     OW34493   1.809   4.065   1.733
 7622SOL    HW134494   1.714   4.065   1.722
 7622SOL    HW234495   1.823   4.026   1.820
 7623SOL     OW34496   4.574   4.651   2.950
 7623SOL    HW134497   4.656   4.635   2.903
 7623SOL    HW234498   4.574   4.745   2.968
 7624SOL     OW34499   2.173   0.445  26.605
 7624SOL    HW134500   2.242   0.499  26.566
 7624SOL    HW234501   2.138   0.395  26.531
 7625SOL     OW34502   2.378   1.878   4.260
 7625SOL    HW134503   2.473   1.875   4.273
 7625SOL    HW234504   2.349   1.952   4.314
 7626SOL     OW34505   0.618   1.248  12.762
 7626SOL    HW134506   0.550   1.254  12.829
 7626SOL    HW234507   0.654   1.160  12.773
 7627SOL     OW34508   3.079   1.270  22.926
 7627SOL    HW134509   3.025   1.204  22.881
 7627SOL    HW234510   3.015   1.332  22.962
 7628SOL     OW34511   2.109   3.257   2.085
 7628SOL    HW134512   2.166   3.198   2.134
 7628SOL    HW234513   2.137   3.249   1.994
 7629SOL     OW34514   2.570   1.118   8.639
 7629SOL    HW134515   2.538   1.142   8.552
 7629SOL    HW234516   2.661   1.147   8.640
 7630SOL     OW34517   2.758   4.506   9.422
 7630SOL    HW134518   2.675   4.465   9.446
 7630SOL    HW234519   2.759   4.589   9.470
 7631SOL     OW34520   2.293   4.089   0.990
 7631SOL    HW134521   2.313   3.996   0.976
 7631SOL    HW234522   2.207   4.101   0.950
 7632SOL     OW34523   1.810   2.604   1.869
 7632SOL    HW134524   1.869   2.569   1.936
 7632SOL    HW234525   1.855   2.681   1.835
 7633SOL     OW34526   4.592   3.011  20.815
 7633SOL    HW134527   4.639   3.087  20.782
 7633SOL    HW234528   4.569   3.035  20.905
 7634SOL     OW34529   1.023   2.149   0.238
 7634SOL    HW134530   0.948   2.195   0.276
 7634SOL    HW234531   1.082   2.133   0.312
 7635SOL     OW34532   1.259   0.900  20.825
 7635SOL    HW134533   1.235   0.960  20.897
 7635SOL    HW234534   1.223   0.816  20.852
 7636SOL     OW34535   1.345   1.889   8.210
 7636SOL    HW134536   1.317   1.804   8.243
 7636SOL    HW234537   1.282   1.910   8.141
 7637SOL     OW34538   1.064   4.621  20.281
 7637SOL    HW134539   1.075   4.639  20.374
 7637SOL    HW234540   1.129   4.677  20.238
 7638SOL     OW34541   2.934   1.059  22.760
 7638SOL    HW134542   2.913   0.966  22.754
 7638SOL    HW234543   2.850   1.103  22.767
 7639SOL     OW34544   4.602   1.462   5.456
 7639SOL    HW134545   4.626   1.397   5.522
 7639SOL    HW234546   4.668   1.530   5.465
 7640SOL     OW34547   1.305   0.209  25.836
 7640SOL    HW134548   1.261   0.214  25.752
 7640SOL    HW234549   1.359   0.288  25.839
 7641SOL     OW34550   3.863   2.056  18.762
 7641SOL    HW134551   3.788   2.047  18.820
 7641SOL    HW234552   3.830   2.032  18.676
 7642SOL     OW34553   4.579   2.116   0.613
 7642SOL    HW134554   4.510   2.182   0.603
 7642SOL    HW234555   4.535   2.040   0.651
 7643SOL     OW34556   2.665   0.978   0.893
 7643SOL    HW134557   2.680   0.936   0.808
 7643SOL    HW234558   2.650   1.070   0.870
 7644SOL     OW34559   0.143   4.612  24.444
 7644SOL    HW134560   0.194   4.683  24.481
 7644SOL    HW234561   0.067   4.604  24.501
 7645SOL     OW34562   4.340   3.551   1.784
 7645SOL    HW134563   4.273   3.484   1.787
 7645SOL    HW234564   4.314   3.615   1.850
 7646SOL     OW34565   3.321   1.089  24.490
 7646SOL    HW134566   3.282   1.066  24.574
 7646SOL    HW234567   3.414   1.068  24.501
 7647SOL     OW34568   2.949   0.429   0.002
 7647SOL    HW134569   2.927   0.522  28.527
 7647SOL    HW234570   2.934   0.407   0.094
 7648SOL     OW34571   3.918   4.507   7.024
 7648SOL    HW134572   3.862   4.429   7.026
 7648SOL    HW234573   4.001   4.475   6.987
 7649SOL     OW34574   2.058   2.913  19.976
 7649SOL    HW134575   2.012   2.988  19.940
 7649SOL    HW234576   2.022   2.902  20.064
 7650SOL     OW34577   2.411   1.373  18.963
 7650SOL    HW134578   2.334   1.352  19.016
 7650SOL    HW234579   2.385   1.355  18.873
 7651SOL     OW34580   2.746   0.044  26.221
 7651SOL    HW134581   2.796   4.766  26.277
 7651SOL    HW234582   2.766   0.015  26.132
 7652SOL     OW34583   4.432   1.661  17.319
 7652SOL    HW134584   4.440   1.598  17.247
 7652SOL    HW234585   4.385   1.735  17.281
 7653SOL     OW34586   0.761   0.935   2.392
 7653SOL    HW134587   0.779   0.952   2.300
 7653SOL    HW234588   0.670   0.904   2.393
 7654SOL     OW34589   2.756   1.348  18.983
 7654SOL    HW134590   2.731   1.413  19.048
 7654SOL    HW234591   2.766   1.397  18.902
 7655SOL     OW34592   3.124   4.593   6.470
 7655SOL    HW134593   3.191   4.604   6.538
 7655SOL    HW234594   3.174   4.568   6.391
 7656SOL     OW34595   0.721   1.045   0.492
 7656SOL    HW134596   0.781   0.985   0.447
 7656SOL    HW234597   0.683   1.098   0.422
 7657SOL     OW34598   1.573   2.779  23.909
 7657SOL    HW134599   1.498   2.828  23.875
 7657SOL    HW234600   1.593   2.820  23.993
 7658SOL     OW34601   0.004   3.116   0.061
 7658SOL    HW134602   4.740   3.149   0.138
 7658SOL    HW234603   0.096   3.136   0.077
 7659SOL     OW34604   0.139   3.652   3.857
 7659SOL    HW134605   0.219   3.604   3.833
 7659SOL    HW234606   0.145   3.734   3.808
 7660SOL     OW34607   3.094   4.617   2.346
 7660SOL    HW134608   3.042   4.566   2.284
 7660SOL    HW234609   3.078   4.575   2.430
 7661SOL     OW34610   4.344   3.557   9.326
 7661SOL    HW134611   4.428   3.520   9.298
 7661SOL    HW234612   4.278   3.495   9.293
 7662SOL     OW34613   0.686   3.400   6.643
 7662SOL    HW134614   0.646   3.370   6.725
 7662SOL    HW234615   0.612   3.433   6.592
 7663SOL     OW34616   2.078   1.812   4.133
 7663SOL    HW134617   2.167   1.836   4.110
 7663SOL    HW234618   2.056   1.869   4.207
 7664SOL     OW34619   1.342   2.964  25.493
 7664SOL    HW134620   1.392   3.025  25.439
 7664SOL    HW234621   1.372   2.877  25.467
 7665SOL     OW34622   1.611   0.198   6.105
 7665SOL    HW134623   1.546   0.223   6.039
 7665SOL    HW234624   1.653   0.120   6.069
 7666SOL     OW34625   4.345   4.100   0.575
 7666SOL    HW134626   4.414   4.034   0.568
 7666SOL    HW234627   4.367   4.165   0.507
 7667SOL     OW34628   1.108   3.749  23.023
 7667SOL    HW134629   1.077   3.830  23.064
 7667SOL    HW234630   1.045   3.682  23.052
 7668SOL     OW34631   4.194   4.681   8.777
 7668SOL    HW134632   4.279   4.724   8.786
 7668SOL    HW234633   4.132   4.753   8.764
 7669SOL     OW34634   0.580   2.748  22.789
 7669SOL    HW134635   0.616   2.755  22.700
 7669SOL    HW234636   0.655   2.769  22.845
 7670SOL     OW34637   0.713   0.434  25.722
 7670SOL    HW134638   0.781   0.501  25.717
 7670SOL    HW234639   0.631   0.483  25.721
 7671SOL     OW34640   1.835   3.978   9.216
 7671SOL    HW134641   1.853   3.956   9.124
 7671SOL    HW234642   1.855   4.071   9.223
 7672SOL     OW34643   2.953   4.575   4.000
 7672SOL    HW134644   3.002   4.523   4.063
 7672SOL    HW234645   3.016   4.595   3.931
 7673SOL     OW34646   1.705   3.194   3.353
 7673SOL    HW134647   1.699   3.282   3.391
 7673SOL    HW234648   1.795   3.167   3.372
 7674SOL     OW34649   0.335   3.149   8.802
 7674SOL    HW134650   0.393   3.207   8.851
 7674SOL    HW234651   0.315   3.198   8.722
 7675SOL     OW34652   3.552   3.868   3.396
 7675SOL    HW134653   3.639   3.889   3.362
 7675SOL    HW234654   3.511   3.817   3.325
 7676SOL     OW34655   2.113   4.729  22.490
 7676SOL    HW134656   2.126   0.035  22.457
 7676SOL    HW234657   2.058   4.687  22.423
 7677SOL     OW34658   1.383   2.108  23.975
 7677SOL    HW134659   1.473   2.106  23.942
 7677SOL    HW234660   1.341   2.177  23.924
 7678SOL     OW34661   1.180   1.825   8.775
 7678SOL    HW134662   1.166   1.731   8.762
 7678SOL    HW234663   1.262   1.843   8.728
 7679SOL     OW34664   2.194   4.605  10.660
 7679SOL    HW134665   2.207   4.689  10.705
 7679SOL    HW234666   2.155   4.549  10.727
 7680SOL     OW34667   1.977   4.352   0.295
 7680SOL    HW134668   2.013   4.374   0.381
 7680SOL    HW234669   2.012   4.264   0.277
 7681SOL     OW34670   1.353   0.279   2.795
 7681SOL    HW134671   1.344   0.352   2.856
 7681SOL    HW234672   1.291   0.214   2.826
 7682SOL     OW34673   0.025   1.697  18.133
 7682SOL    HW134674   0.024   1.739  18.218
 7682SOL    HW234675   0.116   1.671  18.120
 7683SOL     OW34676   2.003   0.746   6.929
 7683SOL    HW134677   1.940   0.675   6.943
 7683SOL    HW234678   2.054   0.718   6.853
 7684SOL     OW34679   3.385   4.651   3.459
 7684SOL    HW134680   3.376   4.746   3.453
 7684SOL    HW234681   3.460   4.630   3.405
 7685SOL     OW34682   2.732   4.679   1.498
 7685SOL    HW134683   2.799   4.674   1.430
 7685SOL    HW234684   2.658   4.723   1.455
 7686SOL     OW34685   0.466   3.913   7.601
 7686SOL    HW134686   0.502   3.988   7.649
 7686SOL    HW234687   0.493   3.926   7.511
 7687SOL     OW34688   4.553   3.817  26.252
 7687SOL    HW134689   4.644   3.789  26.259
 7687SOL    HW234690   4.551   3.874  26.176
 7688SOL     OW34691   3.661   0.480  25.090
 7688SOL    HW134692   3.606   0.471  25.012
 7688SOL    HW234693   3.607   0.447  25.161
 7689SOL     OW34694   2.628   1.794  22.667
 7689SOL    HW134695   2.547   1.831  22.703
 7689SOL    HW234696   2.643   1.715  22.719
 7690SOL     OW34697   0.093   2.015   3.264
 7690SOL    HW134698   0.180   2.055   3.263
 7690SOL    HW234699   0.042   2.069   3.203
 7691SOL     OW34700   3.292   0.365  20.594
 7691SOL    HW134701   3.274   0.387  20.685
 7691SOL    HW234702   3.384   0.389  20.582
 7692SOL     OW34703   4.132   1.689   8.444
 7692SOL    HW134704   4.208   1.637   8.417
 7692SOL    HW234705   4.128   1.676   8.539
 7693SOL     OW34706   1.358   4.472  20.888
 7693SOL    HW134707   1.358   4.392  20.836
 7693SOL    HW234708   1.412   4.533  20.839
 7694SOL     OW34709   4.223   2.066  20.924
 7694SOL    HW134710   4.206   1.984  20.970
 7694SOL    HW234711   4.185   2.134  20.980
 7695SOL     OW34712   1.864   1.240  24.714
 7695SOL    HW134713   1.902   1.174  24.655
 7695SOL    HW234714   1.812   1.189  24.776
 7696SOL     OW34715   2.898   0.104   0.215
 7696SOL    HW134716   2.845   0.134   0.141
 7696SOL    HW234717   2.865   0.155   0.289
 7697SOL     OW34718   1.269   0.296  24.175
 7697SOL    HW134719   1.318   0.215  24.159
 7697SOL    HW234720   1.248   0.328  24.087
 7698SOL     OW34721   1.678   2.613   7.737
 7698SOL    HW134722   1.630   2.558   7.799
 7698SOL    HW234723   1.770   2.589   7.750
 7699SOL     OW34724   3.343   3.752  19.870
 7699SOL    HW134725   3.419   3.800  19.837
 7699SOL    HW234726   3.271   3.778  19.812
 7700SOL     OW34727   3.229   2.074  18.452
 7700SOL    HW134728   3.207   2.156  18.408
 7700SOL    HW234729   3.155   2.057  18.510
 7701SOL     OW34730   0.405   3.569   3.888
 7701SOL    HW134731   0.425   3.502   3.823
 7701SOL    HW234732   0.448   3.539   3.968
 7702SOL     OW34733   3.084   0.694   3.315
 7702SOL    HW134734   3.041   0.659   3.393
 7702SOL    HW234735   3.164   0.734   3.348
 7703SOL     OW34736   3.104   1.167  23.743
 7703SOL    HW134737   3.093   1.139  23.653
 7703SOL    HW234738   3.176   1.113  23.776
 7704SOL     OW34739   2.873   4.383   0.086
 7704SOL    HW134740   2.850   4.465   0.129
 7704SOL    HW234741   2.924   4.410   0.009
 7705SOL     OW34742   2.912   1.735   2.571
 7705SOL    HW134743   2.858   1.744   2.492
 7705SOL    HW234744   2.939   1.644   2.571
 7706SOL     OW34745   3.560   3.376   3.958
 7706SOL    HW134746   3.488   3.436   3.979
 7706SOL    HW234747   3.630   3.433   3.925
 7707SOL     OW34748   3.320   1.376  26.312
 7707SOL    HW134749   3.234   1.334  26.303
 7707SOL    HW234750   3.328   1.431  26.235
 7708SOL     OW34751   1.461   0.769   2.195
 7708SOL    HW134752   1.473   0.756   2.289
 7708SOL    HW234753   1.536   0.822   2.167
 7709SOL     OW34754   1.285   1.390   0.086
 7709SOL    HW134755   1.374   1.365   0.063
 7709SOL    HW234756   1.278   1.374   0.180
 7710SOL     OW34757   4.331   0.502   7.839
 7710SOL    HW134758   4.247   0.462   7.817
 7710SOL    HW234759   4.393   0.462   7.779
 7711SOL     OW34760   1.808   1.381   3.545
 7711SOL    HW134761   1.830   1.411   3.457
 7711SOL    HW234762   1.874   1.421   3.601
 7712SOL     OW34763   0.070   0.079   5.662
 7712SOL    HW134764   0.058   0.106   5.571
 7712SOL    HW234765   0.155   0.117   5.687
 7713SOL     OW34766   2.632   2.877   4.774
 7713SOL    HW134767   2.561   2.835   4.823
 7713SOL    HW234768   2.594   2.958   4.741
 7714SOL     OW34769   1.442   4.402  25.027
 7714SOL    HW134770   1.402   4.316  25.032
 7714SOL    HW234771   1.525   4.388  24.982
 7715SOL     OW34772   3.251   2.318  25.107
 7715SOL    HW134773   3.248   2.405  25.146
 7715SOL    HW234774   3.160   2.299  25.084
 7716SOL     OW34775   4.772   3.038  20.291
 7716SOL    HW134776   4.679   3.040  20.311
 7716SOL    HW234777   0.031   3.003  20.370
 7717SOL     OW34778   2.629   0.605   2.021
 7717SOL    HW134779   2.538   0.633   2.026
 7717SOL    HW234780   2.626   0.517   1.985
 7718SOL     OW34781   4.127   1.367  20.342
 7718SOL    HW134782   4.147   1.444  20.289
 7718SOL    HW234783   4.161   1.387  20.428
 7719SOL     OW34784   4.497   1.631  19.773
 7719SOL    HW134785   4.582   1.592  19.753
 7719SOL    HW234786   4.500   1.717  19.732
 7720SOL     OW34787   2.514   4.469  11.617
 7720SOL    HW134788   2.496   4.524  11.541
 7720SOL    HW234789   2.471   4.514  11.690
 7721SOL     OW34790   0.280   1.357  11.076
 7721SOL    HW134791   0.268   1.330  11.168
 7721SOL    HW234792   0.192   1.376  11.045
 7722SOL     OW34793   2.508   0.961   5.553
 7722SOL    HW134794   2.576   0.988   5.615
 7722SOL    HW234795   2.556   0.921   5.480
 7723SOL     OW34796   4.695   1.211  24.896
 7723SOL    HW134797   4.701   1.166  24.812
 7723SOL    HW234798   4.618   1.174  24.938
 7724SOL     OW34799   0.455   3.256  20.658
 7724SOL    HW134800   0.518   3.241  20.587
 7724SOL    HW234801   0.503   3.312  20.720
 7725SOL     OW34802   2.073   3.186   5.230
 7725SOL    HW134803   2.165   3.213   5.235
 7725SOL    HW234804   2.072   3.117   5.164
 7726SOL     OW34805   0.925   4.450  21.359
 7726SOL    HW134806   0.972   4.420  21.436
 7726SOL    HW234807   0.864   4.380  21.339
 7727SOL     OW34808   0.878   2.431   0.724
 7727SOL    HW134809   0.932   2.481   0.785
 7727SOL    HW234810   0.803   2.401   0.775
 7728SOL     OW34811   3.983   2.148  25.623
 7728SOL    HW134812   3.923   2.112  25.689
 7728SOL    HW234813   3.927   2.170  25.549
 7729SOL     OW34814   1.596   1.778  24.479
 7729SOL    HW134815   1.609   1.858  24.529
 7729SOL    HW234816   1.680   1.762  24.436
 7730SOL     OW34817   2.614   0.110   8.487
 7730SOL    HW134818   2.662   0.050   8.545
 7730SOL    HW234819   2.525   0.110   8.520
 7731SOL     OW34820   4.034   1.200   7.539
 7731SOL    HW134821   3.998   1.271   7.486
 7731SOL    HW234822   3.986   1.204   7.622
 7732SOL     OW34823   3.498   0.104   4.783
 7732SOL    HW134824   3.546   0.187   4.778
 7732SOL    HW234825   3.407   0.128   4.768
 7733SOL     OW34826   1.485   0.096  20.040
 7733SOL    HW134827   1.569   0.063  20.007
 7733SOL    HW234828   1.458   0.161  19.976
 7734SOL     OW34829   4.618   4.466  12.991
 7734SOL    HW134830   4.626   4.498  13.081
 7734SOL    HW234831   4.707   4.444  12.965
 7735SOL     OW34832   1.964   3.687  26.766
 7735SOL    HW134833   1.955   3.621  26.697
 7735SOL    HW234834   1.879   3.686  26.811
 7736SOL     OW34835   2.967   0.478  22.773
 7736SOL    HW134836   2.998   0.432  22.695
 7736SOL    HW234837   2.872   0.470  22.769
 7737SOL     OW34838   4.569   3.603   8.136
 7737SOL    HW134839   4.552   3.687   8.094
 7737SOL    HW234840   4.630   3.558   8.077
 7738SOL     OW34841   4.252   3.843  26.841
 7738SOL    HW134842   4.159   3.866  26.831
 7738SOL    HW234843   4.269   3.781  26.770
 7739SOL     OW34844   0.936   3.198  17.630
 7739SOL    HW134845   0.982   3.234  17.554
 7739SOL    HW234846   0.934   3.103  17.615
 7740SOL     OW34847   1.968   4.547   0.712
 7740SOL    HW134848   1.913   4.613   0.671
 7740SOL    HW234849   1.971   4.572   0.805
 7741SOL     OW34850   0.060   0.456  20.738
 7741SOL    HW134851   0.027   0.543  20.759
 7741SOL    HW234852   0.153   0.459  20.764
 7742SOL     OW34853   2.885   0.009  22.884
 7742SOL    HW134854   2.966   4.752  22.917
 7742SOL    HW234855   2.843   0.046  22.962
 7743SOL     OW34856   2.610   3.105  26.672
 7743SOL    HW134857   2.601   3.189  26.718
 7743SOL    HW234858   2.613   3.129  26.579
 7744SOL     OW34859   3.273   2.372  27.928
 7744SOL    HW134860   3.337   2.376  28.000
 7744SOL    HW234861   3.212   2.444  27.946
 7745SOL     OW34862   2.945   2.637   6.490
 7745SOL    HW134863   2.982   2.597   6.412
 7745SOL    HW234864   2.941   2.565   6.554
 7746SOL     OW34865   1.194   1.080   6.495
 7746SOL    HW134866   1.154   1.009   6.545
 7746SOL    HW234867   1.122   1.118   6.445
 7747SOL     OW34868   0.805   3.970  25.443
 7747SOL    HW134869   0.769   3.896  25.490
 7747SOL    HW234870   0.834   3.934  25.359
 7748SOL     OW34871   1.053   2.466  10.068
 7748SOL    HW134872   1.034   2.492  10.158
 7748SOL    HW234873   1.146   2.482  10.058
 7749SOL     OW34874   4.189   1.218   1.379
 7749SOL    HW134875   4.246   1.144   1.399
 7749SOL    HW234876   4.175   1.212   1.285
 7750SOL     OW34877   2.079   1.979   4.342
 7750SOL    HW134878   1.993   1.958   4.378
 7750SOL    HW234879   2.087   2.074   4.354
 7751SOL     OW34880   3.005   1.823  26.659
 7751SOL    HW134881   3.009   1.825  26.564
 7751SOL    HW234882   2.953   1.745  26.679
 7752SOL     OW34883   1.490   1.927  21.077
 7752SOL    HW134884   1.501   2.000  21.138
 7752SOL    HW234885   1.471   1.968  20.993
 7753SOL     OW34886   2.408   0.385  23.162
 7753SOL    HW134887   2.428   0.472  23.195
 7753SOL    HW234888   2.358   0.343  23.232
 7754SOL     OW34889   4.481   2.253  20.987
 7754SOL    HW134890   4.433   2.335  20.984
 7754SOL    HW234891   4.414   2.185  20.991
 7755SOL     OW34892   2.178   3.740   5.454
 7755SOL    HW134893   2.091   3.706   5.475
 7755SOL    HW234894   2.192   3.717   5.362
 7756SOL     OW34895   0.741   1.629  28.524
 7756SOL    HW134896   0.695   1.635  28.440
 7756SOL    HW234897   0.685   1.678   0.054
 7757SOL     OW34898   3.408   2.604  24.461
 7757SOL    HW134899   3.490   2.570  24.496
 7757SOL    HW234900   3.345   2.591  24.532
 7758SOL     OW34901   2.419   1.182   0.021
 7758SOL    HW134902   2.422   1.121  28.479
 7758SOL    HW234903   2.401   1.267  28.512
 7759SOL     OW34904   2.793   0.535  27.656
 7759SOL    HW134905   2.778   0.457  27.601
 7759SOL    HW234906   2.808   0.606  27.593
 7760SOL     OW34907   2.328   0.174   1.072
 7760SOL    HW134908   2.341   0.088   1.032
 7760SOL    HW234909   2.412   0.218   1.061
 7761SOL     OW34910   2.606   2.348   8.697
 7761SOL    HW134911   2.693   2.348   8.657
 7761SOL    HW234912   2.615   2.294   8.775
 7762SOL     OW34913   2.561   4.080  11.826
 7762SOL    HW134914   2.480   4.053  11.783
 7762SOL    HW234915   2.577   4.014  11.893
 7763SOL     OW34916   1.382   0.766  26.177
 7763SOL    HW134917   1.476   0.772  26.160
 7763SOL    HW234918   1.371   0.798  26.266
 7764SOL     OW34919   3.205   4.694  26.470
 7764SOL    HW134920   3.280   4.749  26.449
 7764SOL    HW234921   3.178   4.723  26.558
 7765SOL     OW34922   4.426   4.554  28.522
 7765SOL    HW134923   4.509   4.507   0.000
 7765SOL    HW234924   4.439   4.635   0.041
 7766SOL     OW34925   3.629   4.774   8.423
 7766SOL    HW134926   3.543   0.033   8.432
 7766SOL    HW234927   3.610   4.680   8.421
 7767SOL     OW34928   1.640   2.347  23.072
 7767SOL    HW134929   1.692   2.425  23.054
 7767SOL    HW234930   1.551   2.372  23.051
 7768SOL     OW34931   2.646   0.602   9.333
 7768SOL    HW134932   2.644   0.531   9.396
 7768SOL    HW234933   2.697   0.569   9.260
 7769SOL     OW34934   0.932   3.204  20.460
 7769SOL    HW134935   0.914   3.136  20.395
 7769SOL    HW234936   0.974   3.157  20.532
 7770SOL     OW34937   0.264   1.291  27.737
 7770SOL    HW134938   0.345   1.298  27.687
 7770SOL    HW234939   0.256   1.375  27.783
 7771SOL     OW34940   3.192   2.549   8.171
 7771SOL    HW134941   3.167   2.460   8.198
 7771SOL    HW234942   3.118   2.580   8.120
 7772SOL     OW34943   2.819   2.836   7.372
 7772SOL    HW134944   2.828   2.915   7.425
 7772SOL    HW234945   2.725   2.816   7.375
 7773SOL     OW34946   3.747   0.959  23.243
 7773SOL    HW134947   3.700   1.016  23.184
 7773SOL    HW234948   3.793   0.897  23.186
 7774SOL     OW34949   2.999   2.502  17.196
 7774SOL    HW134950   2.921   2.453  17.221
 7774SOL    HW234951   2.973   2.594  17.205
 7775SOL     OW34952   4.662   2.755   8.812
 7775SOL    HW134953   4.716   2.678   8.831
 7775SOL    HW234954   4.596   2.724   8.751
 7776SOL     OW34955   3.083   2.110  17.377
 7776SOL    HW134956   3.127   2.190  17.348
 7776SOL    HW234957   3.019   2.091  17.309
 7777SOL     OW34958   1.973   1.815  23.341
 7777SOL    HW134959   2.044   1.762  23.305
 7777SOL    HW234960   1.894   1.784  23.297
 7778SOL     OW34961   1.144   0.666  26.049
 7778SOL    HW134962   1.212   0.702  26.106
 7778SOL    HW234963   1.173   0.576  26.031
 7779SOL     OW34964   1.011   0.854  22.476
 7779SOL    HW134965   1.081   0.849  22.541
 7779SOL    HW234966   1.057   0.870  22.393
 7780SOL     OW34967   1.008   4.124   0.666
 7780SOL    HW134968   1.015   4.047   0.611
 7780SOL    HW234969   0.914   4.135   0.681
 7781SOL     OW34970   0.643   1.801   5.526
 7781SOL    HW134971   0.700   1.729   5.499
 7781SOL    HW234972   0.621   1.846   5.444
 7782SOL     OW34973   1.631   0.527  19.981
 7782SOL    HW134974   1.593   0.610  19.954
 7782SOL    HW234975   1.702   0.552  20.041
 7783SOL     OW34976   4.376   0.469   1.293
 7783SOL    HW134977   4.459   0.427   1.270
 7783SOL    HW234978   4.317   0.446   1.221
 7784SOL     OW34979   4.574   0.355  21.956
 7784SOL    HW134980   4.510   0.335  21.888
 7784SOL    HW234981   4.652   0.306  21.932
 7785SOL     OW34982   0.923   2.366   3.887
 7785SOL    HW134983   0.972   2.303   3.940
 7785SOL    HW234984   0.872   2.416   3.951
 7786SOL     OW34985   3.766   1.283   7.772
 7786SOL    HW134986   3.671   1.298   7.780
 7786SOL    HW234987   3.798   1.360   7.725
 7787SOL     OW34988   0.764   3.349   7.151
 7787SOL    HW134989   0.841   3.395   7.185
 7787SOL    HW234990   0.791   3.258   7.146
 7788SOL     OW34991   1.420   2.297  22.460
 7788SOL    HW134992   1.448   2.273  22.372
 7788SOL    HW234993   1.459   2.383  22.475
 7789SOL     OW34994   3.995   4.558   8.144
 7789SOL    HW134995   4.075   4.558   8.196
 7789SOL    HW234996   3.955   4.643   8.162
 7790SOL     OW34997   1.928   2.986  26.372
 7790SOL    HW134998   2.001   3.024  26.420
 7790SOL    HW234999   1.889   3.060  26.325
 7791SOL     OW35000   4.557   4.061  21.208
 7791SOL    HW135001   4.541   4.021  21.122
 7791SOL    HW235002   4.494   4.133  21.213
 7792SOL     OW35003   3.998   4.497  26.429
 7792SOL    HW135004   3.996   4.585  26.391
 7792SOL    HW235005   3.961   4.508  26.517
 7793SOL     OW35006   4.535   2.602  24.007
 7793SOL    HW135007   4.502   2.592  24.096
 7793SOL    HW235008   4.574   2.690  24.006
 7794SOL     OW35009   1.790   1.532  24.577
 7794SOL    HW135010   1.801   1.494  24.490
 7794SOL    HW235011   1.778   1.456  24.634
 7795SOL     OW35012   2.115   2.883  22.666
 7795SOL    HW135013   2.119   2.933  22.748
 7795SOL    HW235014   2.052   2.813  22.683
 7796SOL     OW35015   2.980   1.166   9.889
 7796SOL    HW135016   2.911   1.229   9.908
 7796SOL    HW235017   2.948   1.084   9.926
 7797SOL     OW35018   0.844   4.055   8.440
 7797SOL    HW135019   0.760   4.092   8.468
 7797SOL    HW235020   0.878   4.117   8.376
 7798SOL     OW35021   3.331   1.721  22.979
 7798SOL    HW135022   3.395   1.739  23.047
 7798SOL    HW235023   3.251   1.698  23.026
 7799SOL     OW35024   2.032   0.490   3.655
 7799SOL    HW135025   2.028   0.510   3.748
 7799SOL    HW235026   1.941   0.491   3.626
 7800SOL     OW35027   2.572   2.248  21.764
 7800SOL    HW135028   2.607   2.186  21.828
 7800SOL    HW235029   2.648   2.298  21.736
 7801SOL     OW35030   1.712   4.451  21.480
 7801SOL    HW135031   1.804   4.467  21.458
 7801SOL    HW235032   1.667   4.531  21.455
 7802SOL     OW35033   1.356   0.552   0.063
 7802SOL    HW135034   1.353   0.563  28.499
 7802SOL    HW235035   1.387   0.462   0.076
 7803SOL     OW35036   1.602   1.340  24.334
 7803SOL    HW135037   1.557   1.421  24.354
 7803SOL    HW235038   1.542   1.293  24.276
 7804SOL     OW35039   1.212   1.079   6.208
 7804SOL    HW135040   1.141   1.015   6.198
 7804SOL    HW235041   1.235   1.075   6.301
 7805SOL     OW35042   2.104   3.108  25.194
 7805SOL    HW135043   2.130   3.017  25.182
 7805SOL    HW235044   2.054   3.129  25.115
 7806SOL     OW35045   2.506   0.579  26.075
 7806SOL    HW135046   2.486   0.529  26.155
 7806SOL    HW235047   2.601   0.580  26.071
 7807SOL     OW35048   1.454   4.150   4.770
 7807SOL    HW135049   1.454   4.055   4.755
 7807SOL    HW235050   1.501   4.161   4.852
 7808SOL     OW35051   2.387   2.303  20.949
 7808SOL    HW135052   2.425   2.361  21.015
 7808SOL    HW235053   2.292   2.312  20.960
 7809SOL     OW35054   1.608   1.545   7.659
 7809SOL    HW135055   1.674   1.479   7.681
 7809SOL    HW235056   1.622   1.614   7.724
 7810SOL     OW35057   1.358   2.471  24.058
 7810SOL    HW135058   1.320   2.559  24.052
 7810SOL    HW235059   1.348   2.435  23.970
 7811SOL     OW35060   2.282   4.095   0.280
 7811SOL    HW135061   2.309   4.180   0.244
 7811SOL    HW235062   2.273   4.038   0.204
 7812SOL     OW35063   1.655   2.345   0.744
 7812SOL    HW135064   1.577   2.397   0.764
 7812SOL    HW235065   1.729   2.400   0.771
 7813SOL     OW35066   2.839   3.277   4.935
 7813SOL    HW135067   2.866   3.223   5.009
 7813SOL    HW235068   2.888   3.242   4.861
 7814SOL     OW35069   2.711   2.676   4.054
 7814SOL    HW135070   2.626   2.639   4.030
 7814SOL    HW235071   2.697   2.771   4.052
 7815SOL     OW35072   2.347   3.777   3.156
 7815SOL    HW135073   2.377   3.867   3.168
 7815SOL    HW235074   2.296   3.779   3.075
 7816SOL     OW35075   0.991   0.079  24.644
 7816SOL    HW135076   0.942   0.017  24.698
 7816SOL    HW235077   1.067   0.102  24.696
 7817SOL     OW35078   0.216   4.072  23.319
 7817SOL    HW135079   0.216   4.030  23.233
 7817SOL    HW235080   0.254   4.159  23.304
 7818SOL     OW35081   3.922   4.579  17.206
 7818SOL    HW135082   3.848   4.557  17.263
 7818SOL    HW235083   3.998   4.578  17.265
 7819SOL     OW35084   3.248   4.625  21.476
 7819SOL    HW135085   3.175   4.607  21.417
 7819SOL    HW235086   3.308   4.551  21.463
 7820SOL     OW35087   2.413   0.449  26.391
 7820SOL    HW135088   2.481   0.408  26.444
 7820SOL    HW235089   2.420   0.408  26.305
 7821SOL     OW35090   1.664   1.193   0.608
 7821SOL    HW135091   1.674   1.248   0.531
 7821SOL    HW235092   1.724   1.230   0.672
 7822SOL     OW35093   1.124   3.682   5.081
 7822SOL    HW135094   1.165   3.741   5.017
 7822SOL    HW235095   1.066   3.627   5.028
 7823SOL     OW35096   1.562   0.104  26.192
 7823SOL    HW135097   1.548   0.059  26.109
 7823SOL    HW235098   1.494   0.171  26.196
 7824SOL     OW35099   2.696   1.029  21.157
 7824SOL    HW135100   2.677   1.088  21.084
 7824SOL    HW235101   2.631   0.959  21.150
 7825SOL     OW35102   2.623   3.256   2.727
 7825SOL    HW135103   2.556   3.234   2.662
 7825SOL    HW235104   2.678   3.321   2.683
 7826SOL     OW35105   1.774   0.607   4.355
 7826SOL    HW135106   1.725   0.684   4.326
 7826SOL    HW235107   1.744   0.537   4.296
 7827SOL     OW35108   1.371   1.896   2.170
 7827SOL    HW135109   1.450   1.949   2.181
 7827SOL    HW235110   1.364   1.847   2.252
 7828SOL     OW35111   1.837   3.215   6.998
 7828SOL    HW135112   1.872   3.301   7.022
 7828SOL    HW235113   1.877   3.155   7.061
 7829SOL     OW35114   4.255   3.735  27.797
 7829SOL    HW135115   4.275   3.818  27.840
 7829SOL    HW235116   4.166   3.746  27.764
 7830SOL     OW35117   0.339   1.980  12.832
 7830SOL    HW135118   0.262   1.953  12.882
 7830SOL    HW235119   0.413   1.960  12.891
 7831SOL     OW35120   1.519   3.230  24.951
 7831SOL    HW135121   1.436   3.276  24.937
 7831SOL    HW235122   1.565   3.282  25.017
 7832SOL     OW35123   1.348   2.301   4.841
 7832SOL    HW135124   1.274   2.248   4.812
 7832SOL    HW235125   1.424   2.244   4.830
 7833SOL     OW35126   3.596   3.779   3.969
 7833SOL    HW135127   3.610   3.714   3.900
 7833SOL    HW235128   3.681   3.820   3.981
 7834SOL     OW35129   4.289   3.341  21.331
 7834SOL    HW135130   4.236   3.347  21.410
 7834SOL    HW235131   4.331   3.427  21.324
 7835SOL     OW35132   2.001   0.104   2.193
 7835SOL    HW135133   1.950   0.151   2.259
 7835SOL    HW235134   1.936   0.058   2.140
 7836SOL     OW35135   1.537   1.116  26.240
 7836SOL    HW135136   1.444   1.121  26.215
 7836SOL    HW235137   1.574   1.050  26.181
 7837SOL     OW35138   3.927   2.289   7.778
 7837SOL    HW135139   3.853   2.336   7.816
 7837SOL    HW235140   3.989   2.278   7.850
 7838SOL     OW35141   1.782   1.232   5.662
 7838SOL    HW135142   1.804   1.239   5.755
 7838SOL    HW235143   1.864   1.253   5.617
 7839SOL     OW35144   0.920   1.925   8.757
 7839SOL    HW135145   1.005   1.898   8.792
 7839SOL    HW235146   0.936   1.940   8.664
 7840SOL     OW35147   0.549   1.971   2.553
 7840SOL    HW135148   0.472   1.938   2.507
 7840SOL    HW235149   0.572   1.900   2.614
 7841SOL     OW35150   3.987   1.870  20.276
 7841SOL    HW135151   4.080   1.859  20.296
 7841SOL    HW235152   3.982   1.867  20.181
 7842SOL     OW35153   2.695   2.015  25.361
 7842SOL    HW135154   2.782   2.036  25.327
 7842SOL    HW235155   2.656   1.959  25.294
 7843SOL     OW35156   1.672   1.843   5.432
 7843SOL    HW135157   1.585   1.807   5.450
 7843SOL    HW235158   1.654   1.930   5.397
 7844SOL     OW35159   4.293   3.323   2.420
 7844SOL    HW135160   4.369   3.381   2.423
 7844SOL    HW235161   4.224   3.372   2.465
 7845SOL     OW35162   1.731   0.599  24.603
 7845SOL    HW135163   1.657   0.595  24.664
 7845SOL    HW235164   1.786   0.670  24.638
 7846SOL     OW35165   1.847   3.294  21.954
 7846SOL    HW135166   1.858   3.315  22.046
 7846SOL    HW235167   1.808   3.372  21.916
 7847SOL     OW35168   4.087   1.465   7.477
 7847SOL    HW135169   4.098   1.453   7.382
 7847SOL    HW235170   4.172   1.498   7.507
 7848SOL     OW35171   3.176   2.335   5.841
 7848SOL    HW135172   3.238   2.407   5.849
 7848SOL    HW235173   3.090   2.377   5.850
 7849SOL     OW35174   0.281   0.376  20.976
 7849SOL    HW135175   0.237   0.429  21.043
 7849SOL    HW235176   0.253   0.286  20.994
 7850SOL     OW35177   3.330   0.944   6.963
 7850SOL    HW135178   3.387   0.867   6.964
 7850SOL    HW235179   3.241   0.908   6.963
 7851SOL     OW35180   1.022   0.295   8.082
 7851SOL    HW135181   1.006   0.339   8.166
 7851SOL    HW235182   0.988   0.355   8.016
 7852SOL     OW35183   3.359   3.053   3.576
 7852SOL    HW135184   3.368   3.146   3.557
 7852SOL    HW235185   3.296   3.049   3.648
 7853SOL     OW35186   2.240   0.911  23.364
 7853SOL    HW135187   2.317   0.952  23.402
 7853SOL    HW235188   2.224   0.960  23.283
 7854SOL     OW35189   3.244   0.151   7.672
 7854SOL    HW135190   3.236   0.103   7.589
 7854SOL    HW235191   3.320   0.111   7.715
 7855SOL     OW35192   3.488   1.882  23.297
 7855SOL    HW135193   3.424   1.853  23.361
 7855SOL    HW235194   3.552   1.933  23.347
 7856SOL     OW35195   2.181   0.426   1.340
 7856SOL    HW135196   2.140   0.368   1.404
 7856SOL    HW235197   2.144   0.512   1.359
 7857SOL     OW35198   0.590   3.851  20.714
 7857SOL    HW135199   0.553   3.763  20.706
 7857SOL    HW235200   0.559   3.897  20.636
 7858SOL     OW35201   1.916   4.488  21.816
 7858SOL    HW135202   2.006   4.518  21.822
 7858SOL    HW235203   1.920   4.408  21.764
 7859SOL     OW35204   0.480   2.500  22.179
 7859SOL    HW135205   0.389   2.477  22.196
 7859SOL    HW235206   0.477   2.554  22.100
 7860SOL     OW35207   1.341   0.042   7.925
 7860SOL    HW135208   1.309   0.011   7.840
 7860SOL    HW235209   1.322   0.136   7.925
 7861SOL     OW35210   2.531   3.443   0.333
 7861SOL    HW135211   2.476   3.488   0.398
 7861SOL    HW235212   2.519   3.494   0.253
 7862SOL     OW35213   1.579   3.294  23.347
 7862SOL    HW135214   1.531   3.306  23.429
 7862SOL    HW235215   1.654   3.240  23.371
 7863SOL     OW35216   0.161   4.779  20.724
 7863SOL    HW135217   0.197   0.067  20.670
 7863SOL    HW235218   0.238   4.738  20.764
 7864SOL     OW35219   2.377   4.278  11.355
 7864SOL    HW135220   2.429   4.359  11.359
 7864SOL    HW235221   2.289   4.307  11.333
 7865SOL     OW35222   3.520   4.505   3.687
 7865SOL    HW135223   3.613   4.505   3.666
 7865SOL    HW235224   3.481   4.566   3.624
 7866SOL     OW35225   1.728   0.472  12.438
 7866SOL    HW135226   1.792   0.423  12.489
 7866SOL    HW235227   1.654   0.483  12.497
 7867SOL     OW35228   3.123   2.163   8.880
 7867SOL    HW135229   3.126   2.099   8.950
 7867SOL    HW235230   3.179   2.126   8.811
 7868SOL     OW35231   4.662   1.365  27.409
 7868SOL    HW135232   4.641   1.451  27.373
 7868SOL    HW235233   4.724   1.382  27.479
 7869SOL     OW35234   1.074   3.305  25.455
 7869SOL    HW135235   1.126   3.293  25.375
 7869SOL    HW235236   0.985   3.278  25.430
 7870SOL     OW35237   0.288   2.482   2.528
 7870SOL    HW135238   0.319   2.569   2.553
 7870SOL    HW235239   0.349   2.421   2.571
 7871SOL     OW35240   2.819   2.367  21.706
 7871SOL    HW135241   2.880   2.422  21.657
 7871SOL    HW235242   2.864   2.283  21.715
 7872SOL     OW35243   1.351   1.380   6.828
 7872SOL    HW135244   1.278   1.318   6.828
 7872SOL    HW235245   1.348   1.420   6.915
 7873SOL     OW35246   4.134   0.860  25.871
 7873SOL    HW135247   4.073   0.890  25.939
 7873SOL    HW235248   4.160   0.772  25.899
 7874SOL     OW35249   1.406   1.451  21.735
 7874SOL    HW135250   1.416   1.453  21.830
 7874SOL    HW235251   1.462   1.523  21.703
 7875SOL     OW35252   1.073   0.450  25.228
 7875SOL    HW135253   1.100   0.497  25.149
 7875SOL    HW235254   0.980   0.467  25.236
 7876SOL     OW35255   3.287   0.664   3.031
 7876SOL    HW135256   3.378   0.655   3.006
 7876SOL    HW235257   3.281   0.753   3.067
 7877SOL     OW35258   1.917   1.971  27.355
 7877SOL    HW135259   1.884   2.061  27.359
 7877SOL    HW235260   1.896   1.942  27.266
 7878SOL     OW35261   1.450   3.333  24.665
 7878SOL    HW135262   1.507   3.303  24.595
 7878SOL    HW235263   1.505   3.330  24.744
 7879SOL     OW35264   1.919   1.979  20.578
 7879SOL    HW135265   1.855   1.910  20.561
 7879SOL    HW235266   1.935   1.975  20.673
 7880SOL     OW35267   2.912   3.080   4.038
 7880SOL    HW135268   2.965   3.151   4.001
 7880SOL    HW235269   2.976   3.015   4.068
 7881SOL     OW35270   3.534   2.459  20.048
 7881SOL    HW135271   3.510   2.384  19.995
 7881SOL    HW235272   3.609   2.498  20.003
 7882SOL     OW35273   0.527   1.858  27.186
 7882SOL    HW135274   0.531   1.954  27.195
 7882SOL    HW235275   0.530   1.825  27.276
 7883SOL     OW35276   1.556   2.406  22.765
 7883SOL    HW135277   1.599   2.482  22.805
 7883SOL    HW235278   1.524   2.439  22.681
 7884SOL     OW35279   3.200   2.617   9.864
 7884SOL    HW135280   3.148   2.691   9.833
 7884SOL    HW235281   3.138   2.545   9.871
 7885SOL     OW35282   4.109   0.743   8.097
 7885SOL    HW135283   4.113   0.681   8.170
 7885SOL    HW235284   4.182   0.803   8.113
 7886SOL     OW35285   1.339   1.200   1.314
 7886SOL    HW135286   1.266   1.254   1.285
 7886SOL    HW235287   1.395   1.259   1.365
 7887SOL     OW35288   4.427   2.401   8.153
 7887SOL    HW135289   4.391   2.412   8.241
 7887SOL    HW235290   4.365   2.445   8.095
 7888SOL     OW35291   0.531   0.978   3.190
 7888SOL    HW135292   0.606   1.024   3.153
 7888SOL    HW235293   0.495   0.928   3.116
 7889SOL     OW35294   4.334   2.013  28.447
 7889SOL    HW135295   4.347   2.071  28.372
 7889SOL    HW235296   4.241   2.021  28.467
 7890SOL     OW35297   3.558   1.926   4.677
 7890SOL    HW135298   3.524   2.006   4.718
 7890SOL    HW235299   3.480   1.883   4.641
 7891SOL     OW35300   3.039   2.943  19.419
 7891SOL    HW135301   3.093   3.020  19.437
 7891SOL    HW235302   3.053   2.886  19.495
 7892SOL     OW35303   4.110   4.539   5.953
 7892SOL    HW135304   4.176   4.573   5.893
 7892SOL    HW235305   4.077   4.460   5.911
 7893SOL     OW35306   1.308   3.578  28.292
 7893SOL    HW135307   1.289   3.499  28.242
 7893SOL    HW235308   1.294   3.650  28.231
 7894SOL     OW35309   1.275   0.938  21.196
 7894SOL    HW135310   1.236   0.963  21.112
 7894SOL    HW235311   1.243   1.003  21.258
 7895SOL     OW35312   3.876   0.287   6.469
 7895SOL    HW135313   3.818   0.241   6.408
 7895SOL    HW235314   3.871   0.235   6.549
 7896SOL     OW35315   0.245   1.820   2.850
 7896SOL    HW135316   0.204   1.904   2.831
 7896SOL    HW235317   0.322   1.818   2.792
 7897SOL     OW35318   1.038   3.515  27.510
 7897SOL    HW135319   1.043   3.602  27.551
 7897SOL    HW235320   0.954   3.515  27.465
 7898SOL     OW35321   0.701   2.216  28.420
 7898SOL    HW135322   0.610   2.242  28.405
 7898SOL    HW235323   0.695   2.147  28.486
 7899SOL     OW35324   2.385   4.113  26.646
 7899SOL    HW135325   2.393   4.143  26.736
 7899SOL    HW235326   2.475   4.105  26.614
 7900SOL     OW35327   2.725   4.580  10.548
 7900SOL    HW135328   2.815   4.547  10.542
 7900SOL    HW235329   2.711   4.594  10.641
 7901SOL     OW35330   4.375   4.033   8.126
 7901SOL    HW135331   4.328   4.116   8.134
 7901SOL    HW235332   4.461   4.051   8.163
 7902SOL     OW35333   1.737   1.543   8.943
 7902SOL    HW135334   1.654   1.590   8.941
 7902SOL    HW235335   1.801   1.607   8.974
 7903SOL     OW35336   4.652   3.968  23.084
 7903SOL    HW135337   4.727   3.911  23.100
 7903SOL    HW235338   4.602   3.922  23.016
 7904SOL     OW35339   3.385   0.773  27.933
 7904SOL    HW135340   3.339   0.743  28.011
 7904SOL    HW235341   3.476   0.747  27.947
 7905SOL     OW35342   0.448   1.826   9.043
 7905SOL    HW135343   0.399   1.787   8.970
 7905SOL    HW235344   0.464   1.916   9.015
 7906SOL     OW35345   0.286   3.857   3.171
 7906SOL    HW135346   0.333   3.775   3.156
 7906SOL    HW235347   0.332   3.921   3.116
 7907SOL     OW35348   1.986   3.884  21.500
 7907SOL    HW135349   1.926   3.818  21.464
 7907SOL    HW235350   1.937   3.966  21.495
 7908SOL     OW35351   2.772   0.707   4.952
 7908SOL    HW135352   2.713   0.683   5.024
 7908SOL    HW235353   2.714   0.745   4.886
 7909SOL     OW35354   1.403   3.869   6.048
 7909SOL    HW135355   1.463   3.847   6.120
 7909SOL    HW235356   1.409   3.795   5.988
 7910SOL     OW35357   1.712   4.263   7.166
 7910SOL    HW135358   1.636   4.279   7.221
 7910SOL    HW235359   1.785   4.252   7.227
 7911SOL     OW35360   4.096   2.500  25.101
 7911SOL    HW135361   4.140   2.586  25.102
 7911SOL    HW235362   4.008   2.519  25.068
 7912SOL     OW35363   0.700   1.934   4.782
 7912SOL    HW135364   0.607   1.940   4.802
 7912SOL    HW235365   0.732   1.862   4.836
 7913SOL     OW35366   4.322   3.792   8.339
 7913SOL    HW135367   4.368   3.756   8.415
 7913SOL    HW235368   4.343   3.885   8.339
 7914SOL     OW35369   3.434   2.525   4.488
 7914SOL    HW135370   3.361   2.557   4.435
 7914SOL    HW235371   3.474   2.457   4.435
 7915SOL     OW35372   0.246   3.047  23.692
 7915SOL    HW135373   0.160   3.030  23.730
 7915SOL    HW235374   0.234   3.035  23.598
 7916SOL     OW35375   1.513   1.001   5.940
 7916SOL    HW135376   1.430   1.040   5.912
 7916SOL    HW235377   1.515   0.915   5.897
 7917SOL     OW35378   1.348   3.276  18.886
 7917SOL    HW135379   1.434   3.314  18.908
 7917SOL    HW235380   1.366   3.184  18.868
 7918SOL     OW35381   1.544   1.201   0.901
 7918SOL    HW135382   1.587   1.118   0.882
 7918SOL    HW235383   1.458   1.195   0.859
 7919SOL     OW35384   0.448   4.426   8.793
 7919SOL    HW135385   0.524   4.465   8.837
 7919SOL    HW235386   0.441   4.473   8.710
 7920SOL     OW35387   2.235   0.258   5.461
 7920SOL    HW135388   2.235   0.289   5.371
 7920SOL    HW235389   2.211   0.165   5.454
 7921SOL     OW35390   4.604   0.626  11.541
 7921SOL    HW135391   4.684   0.677  11.554
 7921SOL    HW235392   4.602   0.564  11.613
 7922SOL     OW35393   3.143   3.312   7.446
 7922SOL    HW135394   3.232   3.339   7.469
 7922SOL    HW235395   3.132   3.340   7.355
 7923SOL     OW35396   0.183   2.794  23.883
 7923SOL    HW135397   0.153   2.885  23.891
 7923SOL    HW235398   0.262   2.791  23.936
 7924SOL     OW35399   1.609   3.035   1.307
 7924SOL    HW135400   1.597   2.990   1.223
 7924SOL    HW235401   1.520   3.046   1.341
 7925SOL     OW35402   4.455   3.431  25.952
 7925SOL    HW135403   4.438   3.466  26.040
 7925SOL    HW235404   4.421   3.497  25.893
 7926SOL     OW35405   4.096   3.980   9.922
 7926SOL    HW135406   4.138   4.029   9.992
 7926SOL    HW235407   4.013   3.951   9.960
 7927SOL     OW35408   4.259   2.261   4.247
 7927SOL    HW135409   4.290   2.351   4.243
 7927SOL    HW235410   4.338   2.210   4.265
 7928SOL     OW35411   4.438   3.941  20.034
 7928SOL    HW135412   4.423   3.996  19.958
 7928SOL    HW235413   4.511   3.983  20.080
 7929SOL     OW35414   2.036   2.414  25.914
 7929SOL    HW135415   1.972   2.401  25.985
 7929SOL    HW235416   2.081   2.495  25.937
 7930SOL     OW35417   1.736   0.129   2.837
 7930SOL    HW135418   1.706   0.047   2.875
 7930SOL    HW235419   1.736   0.190   2.911
 7931SOL     OW35420   2.708   2.588  27.265
 7931SOL    HW135421   2.613   2.578  27.273
 7931SOL    HW235422   2.725   2.576  27.171
 7932SOL     OW35423   0.930   2.992  21.386
 7932SOL    HW135424   0.861   3.014  21.322
 7932SOL    HW235425   0.886   2.937  21.450
 7933SOL     OW35426   3.447   2.709   2.785
 7933SOL    HW135427   3.504   2.644   2.744
 7933SOL    HW235428   3.504   2.785   2.801
 7934SOL     OW35429   2.903   3.640   3.335
 7934SOL    HW135430   2.859   3.696   3.271
 7934SOL    HW235431   2.832   3.605   3.389
 7935SOL     OW35432   0.126   1.419  21.216
 7935SOL    HW135433   0.138   1.452  21.305
 7935SOL    HW235434   0.099   1.496  21.165
 7936SOL     OW35435   2.267   4.525  21.029
 7936SOL    HW135436   2.244   4.618  21.026
 7936SOL    HW235437   2.305   4.507  20.943
 7937SOL     OW35438   2.894   0.629  18.913
 7937SOL    HW135439   2.867   0.538  18.908
 7937SOL    HW235440   2.850   0.671  18.839
 7938SOL     OW35441   2.237   3.301  27.996
 7938SOL    HW135442   2.305   3.235  27.988
 7938SOL    HW235443   2.182   3.271  28.068
 7939SOL     OW35444   0.505   4.030   1.913
 7939SOL    HW135445   0.424   3.980   1.925
 7939SOL    HW235446   0.554   4.018   1.994
 7940SOL     OW35447   3.725   2.024  17.959
 7940SOL    HW135448   3.791   1.958  17.939
 7940SOL    HW235449   3.657   2.011  17.894
 7941SOL     OW35450   2.805   4.696  22.498
 7941SOL    HW135451   2.857   4.759  22.547
 7941SOL    HW235452   2.859   4.617  22.495
 7942SOL     OW35453   2.557   3.626   7.427
 7942SOL    HW135454   2.634   3.602   7.479
 7942SOL    HW235455   2.501   3.548   7.430
 7943SOL     OW35456   2.825   0.517   9.097
 7943SOL    HW135457   2.896   0.576   9.125
 7943SOL    HW235458   2.794   0.556   9.015
 7944SOL     OW35459   0.736   3.449  24.415
 7944SOL    HW135460   0.691   3.369  24.390
 7944SOL    HW235461   0.712   3.513  24.348
 7945SOL     OW35462   4.172   0.195  26.957
 7945SOL    HW135463   4.194   0.227  27.045
 7945SOL    HW235464   4.254   0.199  26.909
 7946SOL     OW35465   1.524   4.535   5.638
 7946SOL    HW135466   1.494   4.612   5.590
 7946SOL    HW235467   1.568   4.571   5.715
 7947SOL     OW35468   3.113   4.031   2.416
 7947SOL    HW135469   3.198   3.995   2.439
 7947SOL    HW235470   3.116   4.122   2.444
 7948SOL     OW35471   3.235   2.423   0.851
 7948SOL    HW135472   3.262   2.506   0.892
 7948SOL    HW235473   3.306   2.402   0.791
 7949SOL     OW35474   0.032   1.812  27.753
 7949SOL    HW135475   0.108   1.771  27.713
 7949SOL    HW235476   4.741   1.757  27.726
 7950SOL     OW35477   4.195   0.499  18.336
 7950SOL    HW135478   4.131   0.436  18.370
 7950SOL    HW235479   4.274   0.482  18.387
 7951SOL     OW35480   4.089   4.315   0.749
 7951SOL    HW135481   4.160   4.258   0.720
 7951SOL    HW235482   4.115   4.345   0.836
 7952SOL     OW35483   1.243   0.827   0.759
 7952SOL    HW135484   1.311   0.889   0.733
 7952SOL    HW235485   1.216   0.785   0.678
 7953SOL     OW35486   0.620   1.260   9.163
 7953SOL    HW135487   0.700   1.246   9.112
 7953SOL    HW235488   0.597   1.351   9.146
 7954SOL     OW35489   4.319   1.708  19.994
 7954SOL    HW135490   4.374   1.783  20.018
 7954SOL    HW235491   4.359   1.674  19.914
 7955SOL     OW35492   0.518   1.073  25.333
 7955SOL    HW135493   0.523   1.056  25.427
 7955SOL    HW235494   0.607   1.100  25.309
 7956SOL     OW35495   0.661   4.132   2.688
 7956SOL    HW135496   0.663   4.039   2.667
 7956SOL    HW235497   0.665   4.176   2.603
 7957SOL     OW35498   1.852   4.705   8.733
 7957SOL    HW135499   1.845   4.615   8.765
 7957SOL    HW235500   1.762   4.735   8.725
 7958SOL     OW35501   1.755   3.939   0.467
 7958SOL    HW135502   1.681   3.990   0.435
 7958SOL    HW235503   1.781   3.885   0.393
 7959SOL     OW35504   3.201   3.192  24.049
 7959SOL    HW135505   3.200   3.272  24.100
 7959SOL    HW235506   3.111   3.184  24.016
 7960SOL     OW35507   3.341   2.983   7.956
 7960SOL    HW135508   3.381   3.065   7.984
 7960SOL    HW235509   3.249   3.006   7.939
 7961SOL     OW35510   2.053   2.017  22.518
 7961SOL    HW135511   1.969   1.978  22.497
 7961SOL    HW235512   2.038   2.066  22.598
 7962SOL     OW35513   0.399   1.088  10.407
 7962SOL    HW135514   0.348   1.040  10.342
 7962SOL    HW235515   0.357   1.068  10.490
 7963SOL     OW35516   1.160   0.346   9.254
 7963SOL    HW135517   1.226   0.280   9.274
 7963SOL    HW235518   1.085   0.323   9.309
 7964SOL     OW35519   3.996   0.839  20.422
 7964SOL    HW135520   3.933   0.791  20.476
 7964SOL    HW235521   3.949   0.858  20.341
 7965SOL     OW35522   3.910   0.560   9.116
 7965SOL    HW135523   3.974   0.492   9.095
 7965SOL    HW235524   3.832   0.513   9.145
 7966SOL     OW35525   3.412   1.366  24.620
 7966SOL    HW135526   3.477   1.341  24.685
 7966SOL    HW235527   3.373   1.283  24.591
 7967SOL     OW35528   1.278   3.727  27.762
 7967SOL    HW135529   1.200   3.776  27.735
 7967SOL    HW235530   1.291   3.663  27.692
 7968SOL     OW35531   3.865   3.330   5.059
 7968SOL    HW135532   3.861   3.425   5.066
 7968SOL    HW235533   3.789   3.307   5.006
 7969SOL     OW35534   4.478   3.185   2.200
 7969SOL    HW135535   4.482   3.280   2.190
 7969SOL    HW235536   4.566   3.160   2.229
 7970SOL     OW35537   0.379   3.039   0.587
 7970SOL    HW135538   0.364   2.954   0.628
 7970SOL    HW235539   0.431   3.018   0.509
 7971SOL     OW35540   2.647   0.135  27.054
 7971SOL    HW135541   2.596   0.133  26.973
 7971SOL    HW235542   2.589   0.176  27.118
 7972SOL     OW35543   2.966   4.314   3.084
 7972SOL    HW135544   2.947   4.294   2.992
 7972SOL    HW235545   2.882   4.304   3.128
 7973SOL     OW35546   2.622   3.281   0.713
 7973SOL    HW135547   2.600   3.375   0.711
 7973SOL    HW235548   2.648   3.261   0.623
 7974SOL     OW35549   2.721   1.375   2.384
 7974SOL    HW135550   2.691   1.390   2.294
 7974SOL    HW235551   2.642   1.350   2.432
 7975SOL     OW35552   0.282   0.714   6.654
 7975SOL    HW135553   0.293   0.809   6.653
 7975SOL    HW235554   0.365   0.681   6.688
 7976SOL     OW35555   3.556   3.533  27.337
 7976SOL    HW135556   3.495   3.588  27.287
 7976SOL    HW235557   3.639   3.580  27.332
 7977SOL     OW35558   2.032   2.501   8.802
 7977SOL    HW135559   2.113   2.513   8.752
 7977SOL    HW235560   2.044   2.554   8.881
 7978SOL     OW35561   1.682   0.933   9.653
 7978SOL    HW135562   1.721   0.928   9.565
 7978SOL    HW235563   1.594   0.968   9.638
 7979SOL     OW35564   0.727   1.746  22.524
 7979SOL    HW135565   0.706   1.688  22.451
 7979SOL    HW235566   0.755   1.828  22.482
 7980SOL     OW35567   4.234   3.308   7.045
 7980SOL    HW135568   4.161   3.356   7.084
 7980SOL    HW235569   4.300   3.304   7.114
 7981SOL     OW35570   4.515   3.120  28.450
 7981SOL    HW135571   4.610   3.128  28.456
 7981SOL    HW235572   4.500   3.078  28.366
 7982SOL     OW35573   1.687   2.058   3.782
 7982SOL    HW135574   1.592   2.046   3.777
 7982SOL    HW235575   1.713   2.074   3.691
 7983SOL     OW35576   0.433   2.826   6.702
 7983SOL    HW135577   0.349   2.856   6.735
 7983SOL    HW235578   0.428   2.730   6.706
 7984SOL     OW35579   3.886   2.413   1.804
 7984SOL    HW135580   3.829   2.372   1.868
 7984SOL    HW235581   3.888   2.506   1.829
 7985SOL     OW35582   3.062   2.346   3.801
 7985SOL    HW135583   3.125   2.286   3.841
 7985SOL    HW235584   3.039   2.305   3.717
 7986SOL     OW35585   0.876   1.927  25.956
 7986SOL    HW135586   0.957   1.917  26.005
 7986SOL    HW235587   0.857   1.838  25.924
 7987SOL     OW35588   0.214   3.115  24.039
 7987SOL    HW135589   0.130   3.160  24.032
 7987SOL    HW235590   0.259   3.136  23.957
 7988SOL     OW35591   1.807   1.859   4.570
 7988SOL    HW135592   1.745   1.874   4.642
 7988SOL    HW235593   1.779   1.917   4.500
 7989SOL     OW35594   4.156   3.847  10.339
 7989SOL    HW135595   4.087   3.913  10.346
 7989SOL    HW235596   4.205   3.855  10.420
 7990SOL     OW35597   1.093   4.517  26.265
 7990SOL    HW135598   1.045   4.468  26.198
 7990SOL    HW235599   1.107   4.604  26.227
 7991SOL     OW35600   1.583   0.131  24.104
 7991SOL    HW135601   1.510   0.074  24.081
 7991SOL    HW235602   1.571   0.149  24.197
 7992SOL     OW35603   1.166   1.962   6.471
 7992SOL    HW135604   1.157   1.917   6.387
 7992SOL    HW235605   1.256   1.942   6.499
 7993SOL     OW35606   2.391   0.809   9.591
 7993SOL    HW135607   2.388   0.715   9.606
 7993SOL    HW235608   2.308   0.830   9.548
 7994SOL     OW35609   1.305   3.527   4.457
 7994SOL    HW135610   1.355   3.602   4.423
 7994SOL    HW235611   1.371   3.468   4.491
 7995SOL     OW35612   0.261   1.276  21.059
 7995SOL    HW135613   0.220   1.328  21.128
 7995SOL    HW235614   0.189   1.249  21.003
 7996SOL     OW35615   4.289   0.179  19.465
 7996SOL    HW135616   4.331   0.239  19.527
 7996SOL    HW235617   4.252   0.236  19.397
 7997SOL     OW35618   2.157   4.642  23.599
 7997SOL    HW135619   2.084   4.589  23.568
 7997SOL    HW235620   2.157   4.719  23.543
 7998SOL     OW35621   3.350   1.497  27.557
 7998SOL    HW135622   3.279   1.558  27.534
 7998SOL    HW235623   3.408   1.548  27.613
 7999SOL     OW35624   0.560   3.245   3.853
 7999SOL    HW135625   0.525   3.205   3.773
 7999SOL    HW235626   0.497   3.223   3.921
 8000SOL     OW35627   1.003   4.624  27.365
 8000SOL    HW135628   1.026   4.681  27.292
 8000SOL    HW235629   0.957   4.682  27.427
 8001SOL     OW35630   0.719   0.007  23.385
 8001SOL    HW135631   0.710   0.063  23.462
 8001SOL    HW235632   0.790   4.729  23.406
 8002SOL     OW35633   0.805   3.052  21.767
 8002SOL    HW135634   0.827   3.107  21.843
 8002SOL    HW235635   0.781   2.967  21.805
 8003SOL     OW35636   2.369   3.935  22.796
 8003SOL    HW135637   2.436   3.995  22.829
 8003SOL    HW235638   2.331   3.981  22.721
 8004SOL     OW35639   1.469   1.326  22.149
 8004SOL    HW135640   1.400   1.371  22.199
 8004SOL    HW235641   1.544   1.323  22.209
 8005SOL     OW35642   0.198   3.219  21.900
 8005SOL    HW135643   0.116   3.246  21.942
 8005SOL    HW235644   0.187   3.242  21.808
 8006SOL     OW35645   1.032   1.555   1.130
 8006SOL    HW135646   1.011   1.468   1.162
 8006SOL    HW235647   1.122   1.549   1.099
 8007SOL     OW35648   3.091   0.248   8.239
 8007SOL    HW135649   3.141   0.320   8.200
 8007SOL    HW235650   3.018   0.235   8.179
 8008SOL     OW35651   0.218   2.715   7.840
 8008SOL    HW135652   0.245   2.658   7.769
 8008SOL    HW235653   0.287   2.782   7.845
 8009SOL     OW35654   4.289   3.903  23.507
 8009SOL    HW135655   4.352   3.860  23.450
 8009SOL    HW235656   4.321   3.992  23.516
 8010SOL     OW35657   4.415   2.919  22.473
 8010SOL    HW135658   4.510   2.929  22.464
 8010SOL    HW235659   4.400   2.825  22.471
 8011SOL     OW35660   2.928   1.145   0.435
 8011SOL    HW135661   2.837   1.170   0.448
 8011SOL    HW235662   2.973   1.229   0.421
 8012SOL     OW35663   0.772   0.032   0.332
 8012SOL    HW135664   0.789   0.094   0.261
 8012SOL    HW235665   0.728   4.741   0.291
 8013SOL     OW35666   1.079   3.073  23.963
 8013SOL    HW135667   1.169   3.054  23.933
 8013SOL    HW235668   1.033   3.099  23.883
 8014SOL     OW35669   0.654   4.688   1.246
 8014SOL    HW135670   0.627   4.597   1.236
 8014SOL    HW235671   0.596   4.723   1.313
 8015SOL     OW35672   2.393   0.542   1.693
 8015SOL    HW135673   2.415   0.593   1.615
 8015SOL    HW235674   2.349   0.464   1.659
 8016SOL     OW35675   1.047   3.688  21.561
 8016SOL    HW135676   0.992   3.684  21.482
 8016SOL    HW235677   1.134   3.661  21.531
 8017SOL     OW35678   0.418   2.124   4.850
 8017SOL    HW135679   0.442   2.199   4.795
 8017SOL    HW235680   0.413   2.160   4.939
 8018SOL     OW35681   0.309   2.270  22.398
 8018SOL    HW135682   0.348   2.182  22.402
 8018SOL    HW235683   0.371   2.326  22.444
 8019SOL     OW35684   4.729   3.998   5.464
 8019SOL    HW135685   4.726   4.080   5.415
 8019SOL    HW235686   4.771   4.021   5.547
 8020SOL     OW35687   1.385   3.632   3.105
 8020SOL    HW135688   1.303   3.641   3.153
 8020SOL    HW235689   1.440   3.703   3.137
 8021SOL     OW35690   0.781   0.849  28.474
 8021SOL    HW135691   0.753   0.759  28.463
 8021SOL    HW235692   0.741   0.878   0.025
 8022SOL     OW35693   4.628   4.064   1.949
 8022SOL    HW135694   4.623   4.013   2.030
 8022SOL    HW235695   4.628   4.155   1.979
 8023SOL     OW35696   1.870   4.599   1.379
 8023SOL    HW135697   1.957   4.613   1.418
 8023SOL    HW235698   1.834   4.687   1.371
 8024SOL     OW35699   3.238   1.255   8.692
 8024SOL    HW135700   3.230   1.167   8.729
 8024SOL    HW235701   3.231   1.241   8.597
 8025SOL     OW35702   0.174   0.931  23.638
 8025SOL    HW135703   0.215   0.934  23.725
 8025SOL    HW235704   0.107   0.863  23.646
 8026SOL     OW35705   0.958   2.184   1.236
 8026SOL    HW135706   0.938   2.164   1.327
 8026SOL    HW235707   0.996   2.271   1.238
 8027SOL     OW35708   2.148   0.472  20.111
 8027SOL    HW135709   2.188   0.517  20.185
 8027SOL    HW235710   2.196   0.390  20.102
 8028SOL     OW35711   1.613   3.184  25.571
 8028SOL    HW135712   1.578   3.158  25.486
 8028SOL    HW235713   1.548   3.245  25.606
 8029SOL     OW35714   2.157   2.056   3.880
 8029SOL    HW135715   2.088   1.991   3.894
 8029SOL    HW235716   2.140   2.090   3.792
 8030SOL     OW35717   1.861   2.302   7.349
 8030SOL    HW135718   1.835   2.380   7.396
 8030SOL    HW235719   1.838   2.321   7.257
 8031SOL     OW35720   3.333   1.183  19.721
 8031SOL    HW135721   3.410   1.231  19.753
 8031SOL    HW235722   3.363   1.144  19.638
 8032SOL     OW35723   2.876   3.349   3.327
 8032SOL    HW135724   2.803   3.365   3.386
 8032SOL    HW235725   2.858   3.404   3.251
 8033SOL     OW35726   3.476   4.622  21.775
 8033SOL    HW135727   3.391   4.664  21.791
 8033SOL    HW235728   3.531   4.651  21.849
 8034SOL     OW35729   1.602   3.820   1.590
 8034SOL    HW135730   1.572   3.883   1.525
 8034SOL    HW235731   1.657   3.759   1.541
 8035SOL     OW35732   2.611   0.167   7.457
 8035SOL    HW135733   2.573   0.079   7.459
 8035SOL    HW235734   2.667   0.168   7.380
 8036SOL     OW35735   4.351   1.299   3.615
 8036SOL    HW135736   4.282   1.316   3.551
 8036SOL    HW235737   4.339   1.368   3.681
 8037SOL     OW35738   4.330   3.777  10.876
 8037SOL    HW135739   4.425   3.783  10.860
 8037SOL    HW235740   4.322   3.713  10.946
 8038SOL     OW35741   3.335   2.405   2.367
 8038SOL    HW135742   3.359   2.498   2.363
 8038SOL    HW235743   3.348   2.381   2.458
 8039SOL     OW35744   3.382   0.488   8.662
 8039SOL    HW135745   3.356   0.557   8.723
 8039SOL    HW235746   3.299   0.447   8.636
 8040SOL     OW35747   1.069   0.550   3.427
 8040SOL    HW135748   1.070   0.501   3.509
 8040SOL    HW235749   0.976   0.560   3.406
 8041SOL     OW35750   4.416   0.433   5.438
 8041SOL    HW135751   4.465   0.389   5.369
 8041SOL    HW235752   4.386   0.515   5.398
 8042SOL     OW35753   1.364   1.128   7.135
 8042SOL    HW135754   1.351   1.033   7.132
 8042SOL    HW235755   1.358   1.150   7.228
 8043SOL     OW35756   2.439   4.104  24.726
 8043SOL    HW135757   2.390   4.171  24.678
 8043SOL    HW235758   2.522   4.146  24.747
 8044SOL     OW35759   2.992   2.886  18.512
 8044SOL    HW135760   3.005   2.914  18.422
 8044SOL    HW235761   2.970   2.966  18.559
 8045SOL     OW35762   4.071   4.216  26.832
 8045SOL    HW135763   4.047   4.305  26.859
 8045SOL    HW235764   4.040   4.210  26.742
 8046SOL     OW35765   0.531   4.002  10.839
 8046SOL    HW135766   0.500   4.082  10.796
 8046SOL    HW235767   0.451   3.955  10.863
 8047SOL     OW35768   2.864   0.319  11.232
 8047SOL    HW135769   2.836   0.234  11.266
 8047SOL    HW235770   2.809   0.382  11.277
 8048SOL     OW35771   0.172   1.000   1.837
 8048SOL    HW135772   0.229   1.069   1.870
 8048SOL    HW235773   0.128   0.966   1.915
 8049SOL     OW35774   2.333   1.298  22.582
 8049SOL    HW135775   2.306   1.388  22.567
 8049SOL    HW235776   2.416   1.305  22.630
 8050SOL     OW35777   1.108   1.920  17.407
 8050SOL    HW135778   1.185   1.964  17.443
 8050SOL    HW235779   1.124   1.827  17.423
 8051SOL     OW35780   1.371   0.456  21.257
 8051SOL    HW135781   1.287   0.452  21.303
 8051SOL    HW235782   1.358   0.523  21.190
 8052SOL     OW35783   2.832   3.302   6.210
 8052SOL    HW135784   2.921   3.268   6.223
 8052SOL    HW235785   2.818   3.362   6.284
 8053SOL     OW35786   0.420   2.831   0.078
 8053SOL    HW135787   0.413   2.759   0.016
 8053SOL    HW235788   0.501   2.876   0.054
 8054SOL     OW35789   4.273   1.449  20.560
 8054SOL    HW135790   4.212   1.523  20.566
 8054SOL    HW235791   4.303   1.436  20.650
 8055SOL     OW35792   1.821   3.441  23.239
 8055SOL    HW135793   1.763   3.374  23.204
 8055SOL    HW235794   1.762   3.508  23.275
 8056SOL     OW35795   3.915   4.234  26.396
 8056SOL    HW135796   3.957   4.281  26.325
 8056SOL    HW235797   3.862   4.299  26.442
 8057SOL     OW35798   2.874   0.648   4.451
 8057SOL    HW135799   2.903   0.668   4.540
 8057SOL    HW235800   2.783   0.620   4.460
 8058SOL     OW35801   0.418   2.718  23.608
 8058SOL    HW135802   0.374   2.791  23.652
 8058SOL    HW235803   0.383   2.719  23.519
 8059SOL     OW35804   3.096   1.465   1.424
 8059SOL    HW135805   3.074   1.472   1.331
 8059SOL    HW235806   3.096   1.556   1.455
 8060SOL     OW35807   4.660   0.412  24.263
 8060SOL    HW135808   4.575   0.376  24.239
 8060SOL    HW235809   4.668   0.395  24.357
 8061SOL     OW35810   2.347   2.403  22.520
 8061SOL    HW135811   2.274   2.369  22.572
 8061SOL    HW235812   2.425   2.362  22.557
 8062SOL     OW35813   3.240   3.154   1.277
 8062SOL    HW135814   3.306   3.148   1.208
 8062SOL    HW235815   3.189   3.231   1.255
 8063SOL     OW35816   1.743   1.783  23.177
 8063SOL    HW135817   1.654   1.781  23.143
 8063SOL    HW235818   1.787   1.852  23.127
 8064SOL     OW35819   3.707   2.417   6.090
 8064SOL    HW135820   3.729   2.510   6.103
 8064SOL    HW235821   3.745   2.373   6.166
 8065SOL     OW35822   1.725   4.039   0.740
 8065SOL    HW135823   1.773   3.990   0.673
 8065SOL    HW235824   1.641   4.061   0.699
 8066SOL     OW35825   4.348   3.297  25.618
 8066SOL    HW135826   4.270   3.308  25.673
 8066SOL    HW235827   4.338   3.210  25.581
 8067SOL     OW35828   4.093   4.229  25.651
 8067SOL    HW135829   4.064   4.171  25.721
 8067SOL    HW235830   4.043   4.309  25.663
 8068SOL     OW35831   2.203   1.977  20.553
 8068SOL    HW135832   2.182   2.055  20.605
 8068SOL    HW235833   2.121   1.928  20.549
 8069SOL     OW35834   0.999   0.386  27.991
 8069SOL    HW135835   0.908   0.413  27.990
 8069SOL    HW235836   1.049   0.468  27.995
 8070SOL     OW35837   3.423   3.327  28.438
 8070SOL    HW135838   3.347   3.310  28.383
 8070SOL    HW235839   3.491   3.269  28.403
 8071SOL     OW35840   4.414   2.200  17.338
 8071SOL    HW135841   4.402   2.165  17.250
 8071SOL    HW235842   4.346   2.158  17.390
 8072SOL     OW35843   1.893   1.323   1.450
 8072SOL    HW135844   1.966   1.371   1.412
 8072SOL    HW235845   1.847   1.286   1.374
 8073SOL     OW35846   3.353   2.313   6.783
 8073SOL    HW135847   3.411   2.243   6.753
 8073SOL    HW235848   3.404   2.360   6.848
 8074SOL     OW35849   4.512   2.739   4.162
 8074SOL    HW135850   4.606   2.728   4.176
 8074SOL    HW235851   4.481   2.784   4.241
 8075SOL     OW35852   1.079   3.557   0.500
 8075SOL    HW135853   1.164   3.559   0.456
 8075SOL    HW235854   1.015   3.564   0.430
 8076SOL     OW35855   3.353   3.630   7.953
 8076SOL    HW135856   3.438   3.599   7.984
 8076SOL    HW235857   3.343   3.590   7.867
 8077SOL     OW35858   2.764   2.483  20.142
 8077SOL    HW135859   2.733   2.571  20.118
 8077SOL    HW235860   2.843   2.499  20.194
 8078SOL     OW35861   3.916   3.590   7.729
 8078SOL    HW135862   3.932   3.561   7.819
 8078SOL    HW235863   4.001   3.582   7.686
 8079SOL     OW35864   1.959   2.380   9.166
 8079SOL    HW135865   1.970   2.306   9.225
 8079SOL    HW235866   1.891   2.434   9.205
 8080SOL     OW35867   1.881   0.508   1.637
 8080SOL    HW135868   1.840   0.550   1.713
 8080SOL    HW235869   1.975   0.515   1.654
 8081SOL     OW35870   3.130   4.002   1.803
 8081SOL    HW135871   3.058   4.036   1.750
 8081SOL    HW235872   3.087   3.957   1.876
 8082SOL     OW35873   1.314   1.403  27.690
 8082SOL    HW135874   1.293   1.365  27.605
 8082SOL    HW235875   1.272   1.489  27.689
 8083SOL     OW35876   2.341   4.482  27.954
 8083SOL    HW135877   2.363   4.531  28.033
 8083SOL    HW235878   2.407   4.509  27.890
 8084SOL     OW35879   4.471   2.139  19.562
 8084SOL    HW135880   4.519   2.210  19.606
 8084SOL    HW235881   4.516   2.128  19.478
 8085SOL     OW35882   0.701   1.708  18.175
 8085SOL    HW135883   0.705   1.758  18.257
 8085SOL    HW235884   0.615   1.665  18.177
 8086SOL     OW35885   4.237   1.749  24.080
 8086SOL    HW135886   4.195   1.824  24.039
 8086SOL    HW235887   4.175   1.718  24.145
 8087SOL     OW35888   3.689   3.054   9.698
 8087SOL    HW135889   3.749   3.121   9.728
 8087SOL    HW235890   3.604   3.080   9.735
 8088SOL     OW35891   0.571   3.338  10.491
 8088SOL    HW135892   0.554   3.337  10.397
 8088SOL    HW235893   0.497   3.291  10.529
 8089SOL     OW35894   1.319   1.986  27.518
 8089SOL    HW135895   1.306   1.958  27.427
 8089SOL    HW235896   1.398   1.940  27.546
 8090SOL     OW35897   3.162   0.134   8.662
 8090SOL    HW135898   3.088   0.167   8.611
 8090SOL    HW235899   3.168   0.195   8.736
 8091SOL     OW35900   3.916   0.981  19.553
 8091SOL    HW135901   3.866   1.013  19.477
 8091SOL    HW235902   3.953   1.060  19.592
 8092SOL     OW35903   4.118   2.735   0.805
 8092SOL    HW135904   4.092   2.713   0.715
 8092SOL    HW235905   4.063   2.680   0.860
 8093SOL     OW35906   4.162   3.987   8.900
 8093SOL    HW135907   4.212   3.924   8.952
 8093SOL    HW235908   4.202   4.072   8.918
 8094SOL     OW35909   3.687   2.583  21.865
 8094SOL    HW135910   3.727   2.581  21.952
 8094SOL    HW235911   3.623   2.655  21.870
 8095SOL     OW35912   3.120   0.164   4.137
 8095SOL    HW135913   3.123   0.184   4.043
 8095SOL    HW235914   3.026   0.161   4.157
 8096SOL     OW35915   1.595   3.918  21.547
 8096SOL    HW135916   1.668   3.868  21.511
 8096SOL    HW235917   1.544   3.945  21.471
 8097SOL     OW35918   4.013   2.869   2.673
 8097SOL    HW135919   4.089   2.821   2.706
 8097SOL    HW235920   4.049   2.949   2.636
 8098SOL     OW35921   2.901   2.778  25.301
 8098SOL    HW135922   2.958   2.785  25.378
 8098SOL    HW235923   2.894   2.684  25.285
 8099SOL     OW35924   0.021   1.063   7.793
 8099SOL    HW135925   4.780   1.014   7.714
 8099SOL    HW235926   0.116   1.073   7.787
 8100SOL     OW35927   4.257   2.553   8.006
 8100SOL    HW135928   4.162   2.554   8.020
 8100SOL    HW235929   4.269   2.503   7.926
 8101SOL     OW35930   2.788   4.590  25.417
 8101SOL    HW135931   2.742   4.521  25.370
 8101SOL    HW235932   2.869   4.603  25.367
 8102SOL     OW35933   3.587   3.726  18.381
 8102SOL    HW135934   3.567   3.776  18.460
 8102SOL    HW235935   3.652   3.662  18.409
 8103SOL     OW35936   3.396   3.740   9.536
 8103SOL    HW135937   3.486   3.768   9.554
 8103SOL    HW235938   3.401   3.645   9.529
 8104SOL     OW35939   2.338   2.100  25.239
 8104SOL    HW135940   2.350   2.005  25.249
 8104SOL    HW235941   2.333   2.133  25.329
 8105SOL     OW35942   4.566   0.705  19.699
 8105SOL    HW135943   4.651   0.710  19.742
 8105SOL    HW235944   4.503   0.730  19.767
 8106SOL     OW35945   2.516   3.569   7.046
 8106SOL    HW135946   2.601   3.552   7.004
 8106SOL    HW235947   2.499   3.662   7.029
 8107SOL     OW35948   2.338   3.189  10.076
 8107SOL    HW135949   2.355   3.279  10.049
 8107SOL    HW235950   2.311   3.144   9.995
 8108SOL     OW35951   4.759   2.334  26.273
 8108SOL    HW135952   0.052   2.393  26.267
 8108SOL    HW235953   4.779   2.264  26.211
 8109SOL     OW35954   0.214   3.916   1.943
 8109SOL    HW135955   0.184   3.831   1.975
 8109SOL    HW235956   0.152   3.939   1.874
 8110SOL     OW35957   4.280   3.015  26.284
 8110SOL    HW135958   4.252   2.951  26.219
 8110SOL    HW235959   4.229   3.094  26.263
 8111SOL     OW35960   0.958   3.841  10.207
 8111SOL    HW135961   1.026   3.848  10.273
 8111SOL    HW235962   0.956   3.928  10.166
 8112SOL     OW35963   2.427   1.544  26.359
 8112SOL    HW135964   2.459   1.479  26.423
 8112SOL    HW235965   2.361   1.497  26.308
 8113SOL     OW35966   3.956   4.262   7.435
 8113SOL    HW135967   3.948   4.342   7.487
 8113SOL    HW235968   3.950   4.191   7.499
 8114SOL     OW35969   0.807   4.618   5.061
 8114SOL    HW135970   0.795   4.639   5.154
 8114SOL    HW235971   0.786   4.699   5.015
 8115SOL     OW35972   2.895   1.166   3.129
 8115SOL    HW135973   2.855   1.081   3.108
 8115SOL    HW235974   2.989   1.149   3.124
 8116SOL     OW35975   0.696   1.759   6.076
 8116SOL    HW135976   0.742   1.842   6.063
 8116SOL    HW235977   0.605   1.779   6.058
 8117SOL     OW35978   3.293   2.274   3.219
 8117SOL    HW135979   3.377   2.315   3.241
 8117SOL    HW235980   3.244   2.343   3.174
 8118SOL     OW35981   2.495   0.295  24.724
 8118SOL    HW135982   2.539   0.263  24.645
 8118SOL    HW235983   2.489   0.390  24.711
 8119SOL     OW35984   1.546   4.399   4.084
 8119SOL    HW135985   1.580   4.487   4.071
 8119SOL    HW235986   1.451   4.408   4.080
 8120SOL     OW35987   2.578   1.645  28.022
 8120SOL    HW135988   2.501   1.668  27.970
 8120SOL    HW235989   2.625   1.580  27.969
 8121SOL     OW35990   0.535   2.446  20.098
 8121SOL    HW135991   0.557   2.353  20.089
 8121SOL    HW235992   0.442   2.446  20.122
 8122SOL     OW35993   4.610   2.097  24.277
 8122SOL    HW135994   4.592   2.004  24.264
 8122SOL    HW235995   4.525   2.140  24.265
 8123SOL     OW35996   2.634   1.357   6.986
 8123SOL    HW135997   2.725   1.332   7.004
 8123SOL    HW235998   2.604   1.398   7.068
 8124SOL     OW35999   0.537   4.520   3.568
 8124SOL    HW136000   0.443   4.541   3.569
 8124SOL    HW236001   0.557   4.491   3.657
 8125SOL     OW36002   0.485   2.157   0.218
 8125SOL    HW136003   0.506   2.198   0.135
 8125SOL    HW236004   0.418   2.214   0.257
 8126SOL     OW36005   1.431   2.676   0.285
 8126SOL    HW136006   1.367   2.624   0.237
 8126SOL    HW236007   1.516   2.639   0.260
 8127SOL     OW36008   0.889   1.884  21.695
 8127SOL    HW136009   0.927   1.890  21.607
 8127SOL    HW236010   0.811   1.939  21.691
 8128SOL     OW36011   1.568   3.323  23.928
 8128SOL    HW136012   1.511   3.364  23.993
 8128SOL    HW236013   1.569   3.385  23.855
 8129SOL     OW36014   2.218   1.755  22.887
 8129SOL    HW136015   2.238   1.662  22.876
 8129SOL    HW236016   2.243   1.796  22.804
 8130SOL     OW36017   2.112   3.623  27.279
 8130SOL    HW136018   2.195   3.627  27.326
 8130SOL    HW236019   2.136   3.624  27.186
 8131SOL     OW36020   3.682   3.795   9.542
 8131SOL    HW136021   3.735   3.724   9.578
 8131SOL    HW236022   3.682   3.862   9.611
 8132SOL     OW36023   0.564   0.001   5.358
 8132SOL    HW136024   0.512   0.058   5.301
 8132SOL    HW236025   0.508   4.707   5.372
 8133SOL     OW36026   2.882   0.216  19.613
 8133SOL    HW136027   2.944   0.289  19.623
 8133SOL    HW236028   2.903   0.158  19.686
 8134SOL     OW36029   3.835   1.528  20.869
 8134SOL    HW136030   3.867   1.438  20.875
 8134SOL    HW236031   3.873   1.572  20.946
 8135SOL     OW36032   3.581   3.428   1.474
 8135SOL    HW136033   3.490   3.437   1.447
 8135SOL    HW236034   3.631   3.477   1.409
 8136SOL     OW36035   0.605   0.727  21.902
 8136SOL    HW136036   0.688   0.732  21.950
 8136SOL    HW236037   0.631   0.716  21.811
 8137SOL     OW36038   0.156   0.841   3.112
 8137SOL    HW136039   0.230   0.788   3.143
 8137SOL    HW236040   0.111   0.784   3.050
 8138SOL     OW36041   2.112   4.465   1.021
 8138SOL    HW136042   2.164   4.443   1.099
 8138SOL    HW236043   2.044   4.398   1.018
 8139SOL     OW36044   2.927   3.053  28.188
 8139SOL    HW136045   2.878   2.971  28.185
 8139SOL    HW236046   2.995   3.037  28.253
 8140SOL     OW36047   4.596   1.408  11.260
 8140SOL    HW136048   4.627   1.337  11.317
 8140SOL    HW236049   4.501   1.399  11.259
 8141SOL     OW36050   2.562   1.951  23.635
 8141SOL    HW136051   2.608   2.032  23.659
 8141SOL    HW236052   2.509   1.930  23.711
 8142SOL     OW36053   4.109   2.803  25.454
 8142SOL    HW136054   4.182   2.855  25.487
 8142SOL    HW236055   4.149   2.722  25.423
 8143SOL     OW36056   1.157   4.239   0.124
 8143SOL    HW136057   1.124   4.171   0.066
 8143SOL    HW236058   1.081   4.263   0.178
 8144SOL     OW36059   0.398   1.559  19.551
 8144SOL    HW136060   0.437   1.570  19.464
 8144SOL    HW236061   0.473   1.543  19.608
 8145SOL     OW36062   0.913   2.126  25.757
 8145SOL    HW136063   0.886   2.062  25.822
 8145SOL    HW236064   1.008   2.131  25.765
 8146SOL     OW36065   4.564   0.049   9.194
 8146SOL    HW136066   4.585   4.746   9.230
 8146SOL    HW236067   4.612   0.111   9.249
 8147SOL     OW36068   0.340   4.520  23.832
 8147SOL    HW136069   0.310   4.570  23.908
 8147SOL    HW236070   0.306   4.432  23.846
 8148SOL     OW36071   0.189   3.202  20.624
 8148SOL    HW136072   0.284   3.208  20.610
 8148SOL    HW236073   0.163   3.124  20.576
 8149SOL     OW36074   1.627   4.266  28.060
 8149SOL    HW136075   1.630   4.303  27.971
 8149SOL    HW236076   1.663   4.178  28.050
 8150SOL     OW36077   0.645   0.796  26.345
 8150SOL    HW136078   0.560   0.753  26.353
 8150SOL    HW236079   0.653   0.849  26.424
 8151SOL     OW36080   0.815   0.916   1.832
 8151SOL    HW136081   0.903   0.899   1.864
 8151SOL    HW236082   0.827   0.940   1.740
 8152SOL     OW36083   0.901   3.203  19.660
 8152SOL    HW136084   0.979   3.171  19.705
 8152SOL    HW236085   0.890   3.144  19.586
 8153SOL     OW36086   2.633   4.411  28.060
 8153SOL    HW136087   2.658   4.345  28.124
 8153SOL    HW236088   2.595   4.482  28.111
 8154SOL     OW36089   2.731   3.391   3.855
 8154SOL    HW136090   2.794   3.456   3.824
 8154SOL    HW236091   2.687   3.360   3.776
 8155SOL     OW36092   0.999   1.779  22.278
 8155SOL    HW136093   1.066   1.816  22.221
 8155SOL    HW236094   0.917   1.788  22.228
 8156SOL     OW36095   3.876   4.499   3.314
 8156SOL    HW136096   3.834   4.520   3.231
 8156SOL    HW236097   3.931   4.575   3.333
 8157SOL     OW36098   4.677   2.467   0.947
 8157SOL    HW136099   4.676   2.382   0.991
 8157SOL    HW236100   4.758   2.467   0.896
 8158SOL     OW36101   0.839   2.180  27.280
 8158SOL    HW136102   0.792   2.097  27.280
 8158SOL    HW236103   0.779   2.242  27.321
 8159SOL     OW36104   1.205   1.152  21.386
 8159SOL    HW136105   1.164   1.221  21.335
 8159SOL    HW236106   1.254   1.198  21.455
 8160SOL     OW36107   2.966   4.623  27.162
 8160SOL    HW136108   2.910   4.548  27.181
 8160SOL    HW236109   3.052   4.585  27.144
 8161SOL     OW36110   2.939   3.226  26.410
 8161SOL    HW136111   2.957   3.135  26.435
 8161SOL    HW236112   2.846   3.238  26.426
 8162SOL     OW36113   2.530   3.665  26.981
 8162SOL    HW136114   2.512   3.577  27.014
 8162SOL    HW236115   2.600   3.698  27.037
 8163SOL     OW36116   3.297   0.775  21.532
 8163SOL    HW136117   3.220   0.769  21.476
 8163SOL    HW236118   3.302   0.868  21.556
 8164SOL     OW36119   1.048   3.939  27.409
 8164SOL    HW136120   1.100   3.932  27.329
 8164SOL    HW236121   0.957   3.944  27.379
 8165SOL     OW36122   3.775   2.832  28.389
 8165SOL    HW136123   3.771   2.855  28.297
 8165SOL    HW236124   3.794   2.915  28.434
 8166SOL     OW36125   4.000   3.767  23.730
 8166SOL    HW136126   4.020   3.674  23.715
 8166SOL    HW236127   3.931   3.787  23.667
 8167SOL     OW36128   1.569   1.571  23.607
 8167SOL    HW136129   1.624   1.604  23.678
 8167SOL    HW236130   1.527   1.649  23.571
 8168SOL     OW36131   2.819   2.165  18.612
 8168SOL    HW136132   2.869   2.246  18.616
 8168SOL    HW236133   2.769   2.171  18.531
 8169SOL     OW36134   4.475   0.423  27.299
 8169SOL    HW136135   4.570   0.407  27.299
 8169SOL    HW236136   4.457   0.462  27.214
 8170SOL     OW36137   4.315   4.079   3.213
 8170SOL    HW136138   4.357   3.996   3.191
 8170SOL    HW236139   4.292   4.071   3.306
 8171SOL     OW36140   1.005   0.974  28.320
 8171SOL    HW136141   0.986   0.948  28.230
 8171SOL    HW236142   0.921   0.970  28.365
 8172SOL     OW36143   4.157   4.680  22.845
 8172SOL    HW136144   4.201   4.751  22.797
 8172SOL    HW236145   4.086   4.652  22.788
 8173SOL     OW36146   4.118   0.751  26.361
 8173SOL    HW136147   4.143   0.699  26.437
 8173SOL    HW236148   4.091   0.836  26.398
 8174SOL     OW36149   0.265   3.327  28.263
 8174SOL    HW136150   0.272   3.234  28.241
 8174SOL    HW236151   0.353   3.351  28.293
 8175SOL     OW36152   0.947   1.216  26.537
 8175SOL    HW136153   0.924   1.222  26.630
 8175SOL    HW236154   1.004   1.291  26.522
 8176SOL     OW36155   3.925   2.685   7.014
 8176SOL    HW136156   3.934   2.718   7.103
 8176SOL    HW236157   3.927   2.764   6.959
 8177SOL     OW36158   0.795   2.279   4.280
 8177SOL    HW136159   0.817   2.324   4.199
 8177SOL    HW236160   0.844   2.326   4.348
 8178SOL     OW36161   4.004   0.337  22.048
 8178SOL    HW136162   4.021   0.410  22.108
 8178SOL    HW236163   4.091   0.299  22.033
 8179SOL     OW36164   0.855   0.253  21.328
 8179SOL    HW136165   0.835   0.162  21.349
 8179SOL    HW236166   0.806   0.270  21.247
 8180SOL     OW36167   1.546   4.219  25.389
 8180SOL    HW136168   1.622   4.219  25.331
 8180SOL    HW236169   1.499   4.300  25.367
 8181SOL     OW36170   3.794   2.164   3.717
 8181SOL    HW136171   3.865   2.111   3.751
 8181SOL    HW236172   3.822   2.188   3.628
 8182SOL     OW36173   3.172   2.387  22.828
 8182SOL    HW136174   3.098   2.403  22.770
 8182SOL    HW236175   3.139   2.325  22.893
 8183SOL     OW36176   2.724   1.930   6.182
 8183SOL    HW136177   2.718   2.024   6.166
 8183SOL    HW236178   2.798   1.920   6.242
 8184SOL     OW36179   3.314   1.782   4.557
 8184SOL    HW136180   3.285   1.691   4.555
 8184SOL    HW236181   3.234   1.833   4.569
 8185SOL     OW36182   0.204   1.479  12.224
 8185SOL    HW136183   0.277   1.418  12.210
 8185SOL    HW236184   0.178   1.505  12.135
 8186SOL     OW36185   0.858   3.262   6.478
 8186SOL    HW136186   0.804   3.275   6.400
 8186SOL    HW236187   0.821   3.323   6.543
 8187SOL     OW36188   3.615   1.505  12.009
 8187SOL    HW136189   3.538   1.472  11.963
 8187SOL    HW236190   3.588   1.513  12.100
 8188SOL     OW36191   1.098   3.256   3.376
 8188SOL    HW136192   1.154   3.286   3.448
 8188SOL    HW236193   1.136   3.173   3.348
 8189SOL     OW36194   2.835   0.290  10.253
 8189SOL    HW136195   2.887   0.348  10.309
 8189SOL    HW236196   2.770   0.347  10.212
 8190SOL     OW36197   0.013   4.730   4.515
 8190SOL    HW136198   0.005   4.636   4.500
 8190SOL    HW236199   4.708   4.765   4.499
 8191SOL     OW36200   2.897   0.996   6.443
 8191SOL    HW136201   2.949   1.073   6.466
 8191SOL    HW236202   2.832   0.989   6.513
 8192SOL     OW36203   2.441   4.454  10.556
 8192SOL    HW136204   2.385   4.517  10.602
 8192SOL    HW236205   2.518   4.504  10.530
 8193SOL     OW36206   3.514   2.484  22.613
 8193SOL    HW136207   3.483   2.574  22.598
 8193SOL    HW236208   3.607   2.486  22.590
 8194SOL     OW36209   2.921   3.526   2.776
 8194SOL    HW136210   2.851   3.514   2.712
 8194SOL    HW236211   3.002   3.523   2.724
 8195SOL     OW36212   3.757   1.645   3.256
 8195SOL    HW136213   3.772   1.575   3.320
 8195SOL    HW236214   3.668   1.676   3.274
 8196SOL     OW36215   2.444   2.282  24.543
 8196SOL    HW136216   2.376   2.246  24.600
 8196SOL    HW236217   2.525   2.275  24.593
 8197SOL     OW36218   4.409   4.755  27.619
 8197SOL    HW136219   4.423   4.748  27.714
 8197SOL    HW236220   4.419   4.666  27.586
 8198SOL     OW36221   2.408   0.191   9.264
 8198SOL    HW136222   2.486   0.194   9.208
 8198SOL    HW236223   2.442   0.206   9.353
 8199SOL     OW36224   4.138   0.035  21.290
 8199SOL    HW136225   4.215   0.031  21.347
 8199SOL    HW236226   4.163   4.766  21.213
 8200SOL     OW36227   2.839   2.060  20.727
 8200SOL    HW136228   2.788   2.082  20.806
 8200SOL    HW236229   2.897   2.135  20.715
 8201SOL     OW36230   4.501   1.454   3.104
 8201SOL    HW136231   4.439   1.400   3.056
 8201SOL    HW236232   4.526   1.401   3.179
 8202SOL     OW36233   4.324   4.565  19.699
 8202SOL    HW136234   4.408   4.519  19.699
 8202SOL    HW236235   4.258   4.496  19.701
 8203SOL     OW36236   1.609   4.248   7.503
 8203SOL    HW136237   1.554   4.324   7.483
 8203SOL    HW236238   1.675   4.282   7.563
 8204SOL     OW36239   4.667   3.327  27.365
 8204SOL    HW136240   4.593   3.273  27.335
 8204SOL    HW236241   4.660   3.407  27.314
 8205SOL     OW36242   0.327   0.848   2.101
 8205SOL    HW136243   0.253   0.906   2.121
 8205SOL    HW236244   0.309   0.817   2.012
 8206SOL     OW36245   2.364   1.885   5.931
 8206SOL    HW136246   2.367   1.834   5.850
 8206SOL    HW236247   2.425   1.841   5.989
 8207SOL     OW36248   2.852   2.354   8.618
 8207SOL    HW136249   2.874   2.363   8.710
 8207SOL    HW236250   2.937   2.357   8.573
 8208SOL     OW36251   1.425   4.150  20.308
 8208SOL    HW136252   1.494   4.155  20.241
 8208SOL    HW236253   1.440   4.066  20.351
 8209SOL     OW36254   0.702   1.116   8.285
 8209SOL    HW136255   0.716   1.202   8.246
 8209SOL    HW236256   0.668   1.134   8.372
 8210SOL     OW36257   1.214   4.764  22.166
 8210SOL    HW136258   1.127   4.756  22.126
 8210SOL    HW236259   1.267   0.024  22.098
 8211SOL     OW36260   1.474   0.083   3.274
 8211SOL    HW136261   1.489   0.100   3.367
 8211SOL    HW236262   1.550   0.031   3.247
 8212SOL     OW36263   0.720   3.059  25.590
 8212SOL    HW136264   0.740   2.991  25.655
 8212SOL    HW236265   0.639   3.099  25.621
 8213SOL     OW36266   3.603   1.759   2.238
 8213SOL    HW136267   3.674   1.713   2.193
 8213SOL    HW236268   3.524   1.714   2.209
 8214SOL     OW36269   4.481   1.149   5.711
 8214SOL    HW136270   4.495   1.066   5.664
 8214SOL    HW236271   4.434   1.123   5.791
 8215SOL     OW36272   0.670   1.362   1.558
 8215SOL    HW136273   0.622   1.422   1.501
 8215SOL    HW236274   0.685   1.413   1.638
 8216SOL     OW36275   2.621   3.313  20.451
 8216SOL    HW136276   2.715   3.323  20.436
 8216SOL    HW236277   2.581   3.383  20.399
 8217SOL     OW36278   2.275   2.643  20.892
 8217SOL    HW136279   2.224   2.596  20.826
 8217SOL    HW236280   2.333   2.700  20.841
 8218SOL     OW36281   0.989   1.144  27.131
 8218SOL    HW136282   1.023   1.209  27.069
 8218SOL    HW236283   0.979   1.191  27.213
 8219SOL     OW36284   4.737   4.128   1.528
 8219SOL    HW136285   4.687   4.158   1.452
 8219SOL    HW236286   0.014   4.201   1.548
 8220SOL     OW36287   0.456   4.452  10.528
 8220SOL    HW136288   0.543   4.480  10.498
 8220SOL    HW236289   0.474   4.392  10.601
 8221SOL     OW36290   2.559   1.243   3.046
 8221SOL    HW136291   2.549   1.188   2.969
 8221SOL    HW236292   2.569   1.181   3.118
 8222SOL     OW36293   1.132   3.730   2.909
 8222SOL    HW136294   1.197   3.792   2.877
 8222SOL    HW236295   1.125   3.749   3.003
 8223SOL     OW36296   2.176   4.657  20.345
 8223SOL    HW136297   2.147   4.587  20.287
 8223SOL    HW236298   2.261   4.684  20.310
 8224SOL     OW36299   4.475   1.718   4.142
 8224SOL    HW136300   4.501   1.641   4.191
 8224SOL    HW236301   4.417   1.766   4.201
 8225SOL     OW36302   0.345   3.602  22.955
 8225SOL    HW136303   0.314   3.558  22.876
 8225SOL    HW236304   0.318   3.693  22.944
 8226SOL     OW36305   0.173   0.332  21.413
 8226SOL    HW136306   0.213   0.392  21.476
 8226SOL    HW236307   0.092   0.304  21.455
 8227SOL     OW36308   4.076   2.626  27.368
 8227SOL    HW136309   4.072   2.533  27.342
 8227SOL    HW236310   4.166   2.652  27.349
 8228SOL     OW36311   2.518   1.265   2.524
 8228SOL    HW136312   2.539   1.198   2.589
 8228SOL    HW236313   2.439   1.232   2.480
 8229SOL     OW36314   4.116   1.776  21.416
 8229SOL    HW136315   4.026   1.793  21.444
 8229SOL    HW236316   4.117   1.683  21.395
 8230SOL     OW36317   3.229   0.276   2.954
 8230SOL    HW136318   3.176   0.274   3.033
 8230SOL    HW236319   3.249   0.184   2.937
 8231SOL     OW36320   1.749   0.326   2.097
 8231SOL    HW136321   1.840   0.354   2.105
 8231SOL    HW236322   1.742   0.250   2.155
 8232SOL     OW36323   0.895   1.879  19.487
 8232SOL    HW136324   0.841   1.956  19.466
 8232SOL    HW236325   0.977   1.894  19.440
 8233SOL     OW36326   0.751   2.841  21.122
 8233SOL    HW136327   0.730   2.859  21.030
 8233SOL    HW236328   0.678   2.789  21.154
 8234SOL     OW36329   4.394   0.511   9.521
 8234SOL    HW136330   4.439   0.431   9.546
 8234SOL    HW236331   4.393   0.564   9.600
 8235SOL     OW36332   3.445   1.133   2.252
 8235SOL    HW136333   3.516   1.173   2.203
 8235SOL    HW236334   3.488   1.072   2.311
 8236SOL     OW36335   3.196   2.389   7.426
 8236SOL    HW136336   3.284   2.375   7.391
 8236SOL    HW236337   3.186   2.324   7.495
 8237SOL     OW36338   1.264   1.726   3.203
 8237SOL    HW136339   1.193   1.720   3.267
 8237SOL    HW236340   1.220   1.746   3.120
 8238SOL     OW36341   1.130   3.990   8.392
 8238SOL    HW136342   1.089   3.969   8.476
 8238SOL    HW236343   1.078   3.940   8.328
 8239SOL     OW36344   1.172   4.405  10.254
 8239SOL    HW136345   1.243   4.358  10.209
 8239SOL    HW236346   1.115   4.433  10.183
 8240SOL     OW36347   1.358   1.709  26.504
 8240SOL    HW136348   1.297   1.783  26.505
 8240SOL    HW236349   1.427   1.733  26.565
 8241SOL     OW36350   0.265   2.300  11.062
 8241SOL    HW136351   0.279   2.314  11.156
 8241SOL    HW236352   0.262   2.388  11.024
 8242SOL     OW36353   2.949   4.695   8.174
 8242SOL    HW136354   3.025   4.682   8.231
 8242SOL    HW236355   2.877   4.650   8.218
 8243SOL     OW36356   0.194   2.172   1.751
 8243SOL    HW136357   0.206   2.232   1.825
 8243SOL    HW236358   0.117   2.206   1.705
 8244SOL     OW36359   3.772   1.915   2.840
 8244SOL    HW136360   3.785   1.936   2.748
 8244SOL    HW236361   3.860   1.901   2.875
 8245SOL     OW36362   0.958   3.496  24.190
 8245SOL    HW136363   1.010   3.560  24.239
 8245SOL    HW236364   1.015   3.470  24.118
 8246SOL     OW36365   4.709   1.459  24.551
 8246SOL    HW136366   4.724   1.545  24.511
 8246SOL    HW236367   4.749   1.397  24.489
 8247SOL     OW36368   0.331   1.609   4.945
 8247SOL    HW136369   0.338   1.611   4.849
 8247SOL    HW236370   0.352   1.698   4.972
 8248SOL     OW36371   3.252   2.364  10.814
 8248SOL    HW136372   3.161   2.334  10.812
 8248SOL    HW236373   3.303   2.285  10.834
 8249SOL     OW36374   4.420   1.479  26.559
 8249SOL    HW136375   4.464   1.490  26.474
 8249SOL    HW236376   4.349   1.543  26.557
 8250SOL     OW36377   0.190   3.337  26.625
 8250SOL    HW136378   0.209   3.317  26.533
 8250SOL    HW236379   0.098   3.313  26.636
 8251SOL     OW36380   4.425   1.549  17.085
 8251SOL    HW136381   4.363   1.585  17.021
 8251SOL    HW236382   4.509   1.587  17.060
 8252SOL     OW36383   2.136   0.824  25.312
 8252SOL    HW136384   2.180   0.782  25.386
 8252SOL    HW236385   2.106   0.751  25.257
 8253SOL     OW36386   4.643   1.274   3.284
 8253SOL    HW136387   4.581   1.204   3.262
 8253SOL    HW236388   4.651   1.269   3.379
 8254SOL     OW36389   4.612   0.869  26.705
 8254SOL    HW136390   4.683   0.919  26.666
 8254SOL    HW236391   4.538   0.929  26.707
 8255SOL     OW36392   3.874   1.540  26.144
 8255SOL    HW136393   3.842   1.606  26.206
 8255SOL    HW236394   3.798   1.485  26.125
 8256SOL     OW36395   0.524   3.498   1.157
 8256SOL    HW136396   0.549   3.539   1.239
 8256SOL    HW236397   0.526   3.569   1.093
 8257SOL     OW36398   1.052   2.328   4.951
 8257SOL    HW136399   1.107   2.360   4.880
 8257SOL    HW236400   1.018   2.407   4.993
 8258SOL     OW36401   1.221   3.673   3.916
 8258SOL    HW136402   1.175   3.638   3.839
 8258SOL    HW236403   1.203   3.609   3.985
 8259SOL     OW36404   1.130   4.163   9.010
 8259SOL    HW136405   1.096   4.078   9.039
 8259SOL    HW236406   1.078   4.227   9.058
 8260SOL     OW36407   2.005   4.450  20.909
 8260SOL    HW136408   2.021   4.544  20.909
 8260SOL    HW236409   2.045   4.419  20.990
 8261SOL     OW36410   1.944   4.393   6.855
 8261SOL    HW136411   1.983   4.374   6.940
 8261SOL    HW236412   1.967   4.319   6.800
 8262SOL     OW36413   4.718   1.780  10.499
 8262SOL    HW136414   4.770   1.705  10.471
 8262SOL    HW236415   4.779   1.833  10.551
 8263SOL     OW36416   2.200   1.454   7.364
 8263SOL    HW136417   2.259   1.516   7.408
 8263SOL    HW236418   2.212   1.471   7.271
 8264SOL     OW36419   1.583   3.521   4.951
 8264SOL    HW136420   1.670   3.510   4.914
 8264SOL    HW236421   1.572   3.616   4.957
 8265SOL     OW36422   3.533   2.967  26.344
 8265SOL    HW136423   3.522   2.911  26.267
 8265SOL    HW236424   3.622   2.948  26.375
 8266SOL     OW36425   2.582   1.110  18.316
 8266SOL    HW136426   2.572   1.181  18.252
 8266SOL    HW236427   2.495   1.101  18.355
 8267SOL     OW36428   2.993   4.088   3.779
 8267SOL    HW136429   2.948   4.172   3.786
 8267SOL    HW236430   2.990   4.052   3.867
 8268SOL     OW36431   4.484   4.333  24.412
 8268SOL    HW136432   4.466   4.425  24.431
 8268SOL    HW236433   4.565   4.314  24.458
 8269SOL     OW36434   0.802   3.030   0.446
 8269SOL    HW136435   0.720   3.028   0.397
 8269SOL    HW236436   0.868   3.004   0.381
 8270SOL     OW36437   1.632   4.202   9.002
 8270SOL    HW136438   1.627   4.115   9.043
 8270SOL    HW236439   1.540   4.229   8.994
 8271SOL     OW36440   0.505   1.028  16.816
 8271SOL    HW136441   0.417   1.062  16.800
 8271SOL    HW236442   0.508   0.945  16.767
 8272SOL     OW36443   2.310   2.277   0.677
 8272SOL    HW136444   2.362   2.356   0.662
 8272SOL    HW236445   2.257   2.269   0.598
 8273SOL     OW36446   4.658   1.948  24.018
 8273SOL    HW136447   4.612   1.922  24.098
 8273SOL    HW236448   4.737   1.992  24.049
 8274SOL     OW36449   3.779   0.052  23.932
 8274SOL    HW136450   3.710   4.771  23.948
 8274SOL    HW236451   3.859   4.782  23.922
 8275SOL     OW36452   0.385   3.540  26.945
 8275SOL    HW136453   0.428   3.582  27.019
 8275SOL    HW236454   0.423   3.452  26.941
 8276SOL     OW36455   1.772   0.471   3.570
 8276SOL    HW136456   1.737   0.513   3.648
 8276SOL    HW236457   1.695   0.449   3.518
 8277SOL     OW36458   4.391   2.990  28.153
 8277SOL    HW136459   4.374   3.005  28.060
 8277SOL    HW236460   4.366   3.072  28.195
 8278SOL     OW36461   0.490   0.568   8.998
 8278SOL    HW136462   0.538   0.485   8.991
 8278SOL    HW236463   0.537   0.618   9.064
 8279SOL     OW36464   4.033   0.072   5.100
 8279SOL    HW136465   3.993   0.110   5.022
 8279SOL    HW236466   4.058   0.147   5.154
 8280SOL     OW36467   4.219   4.261  24.542
 8280SOL    HW136468   4.309   4.254  24.511
 8280SOL    HW236469   4.165   4.232  24.469
 8281SOL     OW36470   4.129   3.836  25.112
 8281SOL    HW136471   4.219   3.842  25.145
 8281SOL    HW236472   4.075   3.833  25.191
 8282SOL     OW36473   3.146   2.101  26.432
 8282SOL    HW136474   3.051   2.118  26.436
 8282SOL    HW236475   3.154   2.021  26.380
 8283SOL     OW36476   2.048   0.507  19.860
 8283SOL    HW136477   2.111   0.436  19.842
 8283SOL    HW236478   2.060   0.526  19.954
 8284SOL     OW36479   0.853   3.090  27.556
 8284SOL    HW136480   0.761   3.116  27.548
 8284SOL    HW236481   0.901   3.173  27.553
 8285SOL     OW36482   2.255   2.134   2.789
 8285SOL    HW136483   2.320   2.203   2.775
 8285SOL    HW236484   2.307   2.053   2.797
 8286SOL     OW36485   4.174   0.660  26.620
 8286SOL    HW136486   4.097   0.715  26.637
 8286SOL    HW236487   4.230   0.674  26.696
 8287SOL     OW36488   4.351   2.481  21.032
 8287SOL    HW136489   4.350   2.517  21.121
 8287SOL    HW236490   4.377   2.555  20.977
 8288SOL     OW36491   4.301   1.162  24.684
 8288SOL    HW136492   4.283   1.070  24.664
 8288SOL    HW236493   4.216   1.206  24.677
 8289SOL     OW36494   0.014   3.282  24.616
 8289SOL    HW136495   4.714   3.326  24.639
 8289SOL    HW236496   0.002   3.192  24.645
 8290SOL     OW36497   4.291   2.391  24.601
 8290SOL    HW136498   4.383   2.416  24.609
 8290SOL    HW236499   4.282   2.316  24.659
 8291SOL     OW36500   4.498   4.008   4.579
 8291SOL    HW136501   4.461   3.960   4.653
 8291SOL    HW236502   4.429   4.007   4.512
 8292SOL     OW36503   2.107   3.124   9.123
 8292SOL    HW136504   2.157   3.043   9.129
 8292SOL    HW236505   2.163   3.183   9.072
 8293SOL     OW36506   2.998   2.676   4.681
 8293SOL    HW136507   3.072   2.644   4.732
 8293SOL    HW236508   2.985   2.766   4.710
 8294SOL     OW36509   0.720   1.012  22.742
 8294SOL    HW136510   0.768   0.936  22.776
 8294SOL    HW236511   0.673   0.979  22.665
 8295SOL     OW36512   1.808   4.368  11.976
 8295SOL    HW136513   1.827   4.445  12.029
 8295SOL    HW236514   1.821   4.397  11.886
 8296SOL     OW36515   3.069   0.912  27.575
 8296SOL    HW136516   3.072   0.996  27.620
 8296SOL    HW236517   3.125   0.923  27.499
 8297SOL     OW36518   1.377   1.200   2.627
 8297SOL    HW136519   1.358   1.115   2.667
 8297SOL    HW236520   1.350   1.190   2.536
 8298SOL     OW36521   1.923   0.737  19.681
 8298SOL    HW136522   1.958   0.671  19.741
 8298SOL    HW236523   1.901   0.812  19.737
 8299SOL     OW36524   0.885   4.365   9.733
 8299SOL    HW136525   0.902   4.405   9.648
 8299SOL    HW236526   0.830   4.428   9.779
 8300SOL     OW36527   1.370   0.762  20.626
 8300SOL    HW136528   1.335   0.818  20.695
 8300SOL    HW236529   1.438   0.815  20.584
 8301SOL     OW36530   1.022   0.380   3.641
 8301SOL    HW136531   1.022   0.314   3.572
 8301SOL    HW236532   0.935   0.374   3.681
 8302SOL     OW36533   1.527   2.287  26.386
 8302SOL    HW136534   1.478   2.366  26.362
 8302SOL    HW236535   1.617   2.306  26.363
 8303SOL     OW36536   3.382   1.398  20.307
 8303SOL    HW136537   3.446   1.327  20.305
 8303SOL    HW236538   3.361   1.409  20.400
 8304SOL     OW36539   0.708   0.930  18.363
 8304SOL    HW136540   0.799   0.934  18.392
 8304SOL    HW236541   0.660   0.897  18.439
 8305SOL     OW36542   2.860   4.519   5.315
 8305SOL    HW136543   2.782   4.574   5.308
 8305SOL    HW236544   2.890   4.507   5.225
 8306SOL     OW36545   0.149   3.311  21.606
 8306SOL    HW136546   0.218   3.376  21.592
 8306SOL    HW236547   0.146   3.262  21.524
 8307SOL     OW36548   1.376   4.480  20.403
 8307SOL    HW136549   1.297   4.456  20.450
 8307SOL    HW236550   1.396   4.404  20.349
 8308SOL     OW36551   0.150   3.636   2.034
 8308SOL    HW136552   0.238   3.608   2.057
 8308SOL    HW236553   0.095   3.560   2.054
 8309SOL     OW36554   1.284   4.600  25.986
 8309SOL    HW136555   1.365   4.651  25.987
 8309SOL    HW236556   1.312   4.510  25.967
 8310SOL     OW36557   2.660   2.802  10.333
 8310SOL    HW136558   2.705   2.725  10.297
 8310SOL    HW236559   2.580   2.809  10.280
 8311SOL     OW36560   2.731   2.843  28.238
 8311SOL    HW136561   2.661   2.868  28.298
 8311SOL    HW236562   2.693   2.854  28.150
 8312SOL     OW36563   0.620   3.741   4.827
 8312SOL    HW136564   0.580   3.824   4.851
 8312SOL    HW236565   0.583   3.678   4.888
 8313SOL     OW36566   2.590   1.172   7.447
 8313SOL    HW136567   2.527   1.175   7.375
 8313SOL    HW236568   2.560   1.101   7.503
 8314SOL     OW36569   3.467   4.259  25.305
 8314SOL    HW136570   3.542   4.235  25.360
 8314SOL    HW236571   3.507   4.292  25.224
 8315SOL     OW36572   1.544   1.202  22.711
 8315SOL    HW136573   1.484   1.148  22.659
 8315SOL    HW236574   1.491   1.229  22.786
 8316SOL     OW36575   0.902   3.431  20.345
 8316SOL    HW136576   0.983   3.478  20.368
 8316SOL    HW236577   0.918   3.341  20.373
 8317SOL     OW36578   0.749   0.044  21.697
 8317SOL    HW136579   0.775   0.001  21.616
 8317SOL    HW236580   0.803   0.124  21.700
 8318SOL     OW36581   3.939   1.340   3.901
 8318SOL    HW136582   3.905   1.344   3.990
 8318SOL    HW236583   3.970   1.251   3.891
 8319SOL     OW36584   2.856   1.960  27.924
 8319SOL    HW136585   2.873   2.054  27.928
 8319SOL    HW236586   2.828   1.937  28.013
 8320SOL     OW36587   3.691   2.920   4.825
 8320SOL    HW136588   3.731   3.007   4.816
 8320SOL    HW236589   3.643   2.907   4.743
 8321SOL     OW36590   1.094   3.573   7.962
 8321SOL    HW136591   1.093   3.533   7.875
 8321SOL    HW236592   1.002   3.582   7.987
 8322SOL     OW36593   1.250   2.875  23.224
 8322SOL    HW136594   1.206   2.804  23.177
 8322SOL    HW236595   1.195   2.952  23.209
 8323SOL     OW36596   1.541   0.855   7.758
 8323SOL    HW136597   1.579   0.858   7.670
 8323SOL    HW236598   1.465   0.798   7.749
 8324SOL     OW36599   3.438   2.958   6.072
 8324SOL    HW136600   3.521   2.981   6.113
 8324SOL    HW236601   3.372   2.990   6.133
 8325SOL     OW36602   0.444   0.135  11.014
 8325SOL    HW136603   0.353   0.154  10.992
 8325SOL    HW236604   0.439   0.065  11.079
 8326SOL     OW36605   1.520   2.448   7.896
 8326SOL    HW136606   1.524   2.361   7.934
 8326SOL    HW236607   1.436   2.449   7.849
 8327SOL     OW36608   3.031   0.901   5.904
 8327SOL    HW136609   3.068   0.971   5.849
 8327SOL    HW236610   3.081   0.906   5.985
 8328SOL     OW36611   2.534   1.848   4.628
 8328SOL    HW136612   2.606   1.908   4.646
 8328SOL    HW236613   2.473   1.862   4.701
 8329SOL     OW36614   1.623   3.648  24.195
 8329SOL    HW136615   1.528   3.641  24.201
 8329SOL    HW236616   1.640   3.673  24.104
 8330SOL     OW36617   0.159   0.093   7.409
 8330SOL    HW136618   0.070   0.076   7.439
 8330SOL    HW236619   0.148   0.154   7.335
 8331SOL     OW36620   2.245   0.383  11.246
 8331SOL    HW136621   2.294   0.369  11.327
 8331SOL    HW236622   2.157   0.352  11.266
 8332SOL     OW36623   4.166   0.630  10.259
 8332SOL    HW136624   4.228   0.595  10.322
 8332SOL    HW236625   4.161   0.564  10.190
 8333SOL     OW36626   1.949   1.948   5.040
 8333SOL    HW136627   1.915   1.887   5.106
 8333SOL    HW236628   2.044   1.939   5.047
 8334SOL     OW36629   4.585   3.556   7.144
 8334SOL    HW136630   4.499   3.521   7.169
 8334SOL    HW236631   4.636   3.552   7.225
 8335SOL     OW36632   3.436   4.187  24.497
 8335SOL    HW136633   3.459   4.097  24.473
 8335SOL    HW236634   3.352   4.202  24.455
 8336SOL     OW36635   0.388   2.147   5.147
 8336SOL    HW136636   0.348   2.141   5.234
 8336SOL    HW236637   0.470   2.195   5.162
 8337SOL     OW36638   1.267   4.728   5.771
 8337SOL    HW136639   1.213   4.700   5.697
 8337SOL    HW236640   1.209   4.721   5.846
 8338SOL     OW36641   0.669   2.171   1.066
 8338SOL    HW136642   0.730   2.162   1.139
 8338SOL    HW236643   0.605   2.100   1.080
 8339SOL     OW36644   1.206   3.930  11.334
 8339SOL    HW136645   1.139   3.978  11.285
 8339SOL    HW236646   1.163   3.905  11.416
 8340SOL     OW36647   4.106   4.220   7.167
 8340SOL    HW136648   4.066   4.159   7.104
 8340SOL    HW236649   4.033   4.248   7.223
 8341SOL     OW36650   4.635   2.785   4.528
 8341SOL    HW136651   4.616   2.782   4.621
 8341SOL    HW236652   4.559   2.830   4.489
 8342SOL     OW36653   3.922   2.771  12.110
 8342SOL    HW136654   3.879   2.763  12.195
 8342SOL    HW236655   4.009   2.806  12.129
 8343SOL     OW36656   4.633   1.904   6.913
 8343SOL    HW136657   4.670   1.852   6.984
 8343SOL    HW236658   4.548   1.933   6.946
 8344SOL     OW36659   0.248   3.946  23.060
 8344SOL    HW136660   0.176   3.893  23.026
 8344SOL    HW236661   0.270   4.005  22.988
 8345SOL     OW36662   3.050   2.592  25.730
 8345SOL    HW136663   3.105   2.577  25.653
 8345SOL    HW236664   3.051   2.508  25.776
 8346SOL     OW36665   2.735   3.866   6.689
 8346SOL    HW136666   2.665   3.801   6.695
 8346SOL    HW236667   2.689   3.949   6.672
 8347SOL     OW36668   1.985   4.076   0.573
 8347SOL    HW136669   2.075   4.051   0.553
 8347SOL    HW236670   1.932   4.030   0.508
 8348SOL     OW36671   1.814   4.164   6.294
 8348SOL    HW136672   1.833   4.133   6.206
 8348SOL    HW236673   1.802   4.084   6.346
 8349SOL     OW36674   3.745   0.823   6.834
 8349SOL    HW136675   3.678   0.793   6.894
 8349SOL    HW236676   3.823   0.773   6.858
 8350SOL     OW36677   1.888   4.074  10.763
 8350SOL    HW136678   1.887   4.152  10.819
 8350SOL    HW236679   1.928   4.006  10.817
 8351SOL     OW36680   3.895   3.239   3.769
 8351SOL    HW136681   3.847   3.208   3.846
 8351SOL    HW236682   3.836   3.223   3.696
 8352SOL     OW36683   2.436   3.341  21.558
 8352SOL    HW136684   2.461   3.335  21.650
 8352SOL    HW236685   2.394   3.427  21.549
 8353SOL     OW36686   0.957   3.524   4.947
 8353SOL    HW136687   0.970   3.436   4.912
 8353SOL    HW236688   0.916   3.573   4.875
 8354SOL     OW36689   0.022   0.230  23.365
 8354SOL    HW136690   0.062   0.154  23.323
 8354SOL    HW236691   0.040   0.302  23.304
 8355SOL     OW36692   0.917   0.306   6.976
 8355SOL    HW136693   0.891   0.261   6.896
 8355SOL    HW236694   0.940   0.395   6.948
 8356SOL     OW36695   3.167   0.672   8.354
 8356SOL    HW136696   3.227   0.746   8.353
 8356SOL    HW236697   3.148   0.658   8.446
 8357SOL     OW36698   0.619   1.310  18.857
 8357SOL    HW136699   0.708   1.276  18.844
 8357SOL    HW236700   0.562   1.242  18.820
 8358SOL     OW36701   0.327   4.782  24.586
 8358SOL    HW136702   0.399   0.034  24.638
 8358SOL    HW236703   0.299   4.704  24.633
 8359SOL     OW36704   4.354   1.302  11.436
 8359SOL    HW136705   4.439   1.276  11.471
 8359SOL    HW236706   4.293   1.288  11.509
 8360SOL     OW36707   4.151   4.301   6.549
 8360SOL    HW136708   4.109   4.332   6.629
 8360SOL    HW236709   4.116   4.213   6.535
 8361SOL     OW36710   3.679   1.233   1.034
 8361SOL    HW136711   3.648   1.295   1.100
 8361SOL    HW236712   3.649   1.148   1.066
 8362SOL     OW36713   4.133   3.372   9.808
 8362SOL    HW136714   4.153   3.459   9.843
 8362SOL    HW236715   4.194   3.361   9.736
 8363SOL     OW36716   2.775   0.498  26.821
 8363SOL    HW136717   2.859   0.492  26.865
 8363SOL    HW236718   2.742   0.584  26.845
 8364SOL     OW36719   0.308   2.987   2.634
 8364SOL    HW136720   0.235   3.004   2.575
 8364SOL    HW236721   0.281   2.911   2.685
 8365SOL     OW36722   3.556   0.472  20.622
 8365SOL    HW136723   3.652   0.464  20.626
 8365SOL    HW236724   3.540   0.564  20.644
 8366SOL     OW36725   3.889   0.807   0.172
 8366SOL    HW136726   3.912   0.818   0.264
 8366SOL    HW236727   3.926   0.883   0.129
 8367SOL     OW36728   2.789   0.758  26.901
 8367SOL    HW136729   2.698   0.779  26.922
 8367SOL    HW236730   2.838   0.838  26.918
 8368SOL     OW36731   3.315   4.229   7.819
 8368SOL    HW136732   3.334   4.239   7.912
 8368SOL    HW236733   3.312   4.134   7.805
 8369SOL     OW36734   0.351   4.644   7.087
 8369SOL    HW136735   0.404   4.644   7.007
 8369SOL    HW236736   0.262   4.664   7.057
 8370SOL     OW36737   1.943   2.733  27.537
 8370SOL    HW136738   1.984   2.818  27.558
 8370SOL    HW236739   1.850   2.751  27.536
 8371SOL     OW36740   2.713   0.773   1.096
 8371SOL    HW136741   2.634   0.734   1.058
 8371SOL    HW236742   2.725   0.854   1.046
 8372SOL     OW36743   1.098   1.058  21.741
 8372SOL    HW136744   1.134   1.129  21.689
 8372SOL    HW236745   1.121   0.978  21.693
 8373SOL     OW36746   1.507   2.453  11.952
 8373SOL    HW136747   1.601   2.459  11.933
 8373SOL    HW236748   1.502   2.447  12.047
 8374SOL     OW36749   2.488   3.299  22.662
 8374SOL    HW136750   2.502   3.349  22.743
 8374SOL    HW236751   2.523   3.355  22.593
 8375SOL     OW36752   1.695   2.854  10.486
 8375SOL    HW136753   1.691   2.819  10.398
 8375SOL    HW236754   1.676   2.780  10.543
 8376SOL     OW36755   2.173   1.636   1.894
 8376SOL    HW136756   2.163   1.571   1.824
 8376SOL    HW236757   2.248   1.689   1.867
 8377SOL     OW36758   2.764   3.737   3.977
 8377SOL    HW136759   2.680   3.700   3.952
 8377SOL    HW236760   2.748   3.779   4.062
 8378SOL     OW36761   3.582   2.891  27.100
 8378SOL    HW136762   3.524   2.965  27.081
 8378SOL    HW236763   3.669   2.930  27.105
 8379SOL     OW36764   1.858   2.715   5.574
 8379SOL    HW136765   1.841   2.763   5.655
 8379SOL    HW236766   1.925   2.767   5.529
 8380SOL     OW36767   4.084   1.992  18.390
 8380SOL    HW136768   4.097   1.898  18.405
 8380SOL    HW236769   4.152   2.016  18.328
 8381SOL     OW36770   0.794   4.558  24.604
 8381SOL    HW136771   0.723   4.496  24.584
 8381SOL    HW236772   0.762   4.642  24.571
 8382SOL     OW36773   2.781   1.447   9.684
 8382SOL    HW136774   2.853   1.511   9.681
 8382SOL    HW236775   2.786   1.411   9.773
 8383SOL     OW36776   4.358   1.835  22.287
 8383SOL    HW136777   4.368   1.858  22.379
 8383SOL    HW236778   4.271   1.794  22.282
 8384SOL     OW36779   2.866   0.805   4.022
 8384SOL    HW136780   2.946   0.836   3.979
 8384SOL    HW236781   2.898   0.758   4.099
 8385SOL     OW36782   1.126   3.354   1.668
 8385SOL    HW136783   1.173   3.435   1.647
 8385SOL    HW236784   1.122   3.353   1.764
 8386SOL     OW36785   2.276   1.473  24.150
 8386SOL    HW136786   2.290   1.458  24.057
 8386SOL    HW236787   2.359   1.448  24.192
 8387SOL     OW36788   3.501   0.761  24.404
 8387SOL    HW136789   3.546   0.717  24.332
 8387SOL    HW236790   3.445   0.826  24.362
 8388SOL     OW36791   0.823   4.298   2.868
 8388SOL    HW136792   0.748   4.249   2.834
 8388SOL    HW236793   0.886   4.298   2.797
 8389SOL     OW36794   3.142   4.214   9.489
 8389SOL    HW136795   3.195   4.250   9.418
 8389SOL    HW236796   3.122   4.125   9.460
 8390SOL     OW36797   2.724   1.729  18.219
 8390SOL    HW136798   2.791   1.677  18.263
 8390SOL    HW236799   2.760   1.747  18.132
 8391SOL     OW36800   0.093   3.715  26.026
 8391SOL    HW136801   0.055   3.670  26.102
 8391SOL    HW236802   0.035   3.691  25.954
 8392SOL     OW36803   4.118   1.601  10.870
 8392SOL    HW136804   4.084   1.565  10.952
 8392SOL    HW236805   4.071   1.554  10.802
 8393SOL     OW36806   0.022   0.429   7.360
 8393SOL    HW136807   0.083   0.489   7.318
 8393SOL    HW236808   0.044   0.432   7.453
 8394SOL     OW36809   4.658   3.155  21.446
 8394SOL    HW136810   4.749   3.126  21.441
 8394SOL    HW236811   4.607   3.083  21.407
 8395SOL     OW36812   1.154   3.116  25.653
 8395SOL    HW136813   1.219   3.063  25.605
 8395SOL    HW236814   1.119   3.176  25.587
 8396SOL     OW36815   2.713   4.624   2.199
 8396SOL    HW136816   2.791   4.677   2.180
 8396SOL    HW236817   2.658   4.682   2.252
 8397SOL     OW36818   1.392   2.122   8.315
 8397SOL    HW136819   1.364   2.107   8.405
 8397SOL    HW236820   1.379   2.038   8.271
 8398SOL     OW36821   2.365   2.696  25.981
 8398SOL    HW136822   2.361   2.733  25.893
 8398SOL    HW236823   2.274   2.688  26.008
 8399SOL     OW36824   2.091   3.983  18.544
 8399SOL    HW136825   2.070   4.045  18.475
 8399SOL    HW236826   2.016   3.924  18.547
 8400SOL     OW36827   2.227   0.088  12.406
 8400SOL    HW136828   2.152   0.039  12.440
 8400SOL    HW236829   2.212   0.178  12.436
 8401SOL     OW36830   4.426   2.636   6.256
 8401SOL    HW136831   4.490   2.566   6.252
 8401SOL    HW236832   4.367   2.611   6.327
 8402SOL     OW36833   0.336   2.701   7.031
 8402SOL    HW136834   0.255   2.651   7.039
 8402SOL    HW236835   0.381   2.662   6.956
 8403SOL     OW36836   1.792   2.731  20.874
 8403SOL    HW136837   1.834   2.711  20.791
 8403SOL    HW236838   1.843   2.682  20.939
 8404SOL     OW36839   1.313   0.120   0.714
 8404SOL    HW136840   1.244   0.056   0.732
 8404SOL    HW236841   1.346   0.144   0.800
 8405SOL     OW36842   3.368   4.202  27.318
 8405SOL    HW136843   3.290   4.257  27.308
 8405SOL    HW236844   3.339   4.128  27.372
 8406SOL     OW36845   1.311   1.652   7.983
 8406SOL    HW136846   1.320   1.741   7.947
 8406SOL    HW236847   1.298   1.597   7.906
 8407SOL     OW36848   3.231   3.526   0.009
 8407SOL    HW136849   3.267   3.461  28.479
 8407SOL    HW236850   3.158   3.566  28.492
 8408SOL     OW36851   2.391   4.649   3.653
 8408SOL    HW136852   2.412   4.596   3.729
 8408SOL    HW236853   2.300   4.674   3.665
 8409SOL     OW36854   3.868   0.326   2.973
 8409SOL    HW136855   3.797   0.387   2.992
 8409SOL    HW236856   3.889   0.341   2.881
 8410SOL     OW36857   4.450   2.958  10.033
 8410SOL    HW136858   4.414   3.043  10.008
 8410SOL    HW236859   4.408   2.896   9.974
 8411SOL     OW36860   2.495   2.949  24.425
 8411SOL    HW136861   2.411   2.976  24.462
 8411SOL    HW236862   2.473   2.915  24.338
 8412SOL     OW36863   3.759   2.409  20.250
 8412SOL    HW136864   3.788   2.323  20.219
 8412SOL    HW236865   3.672   2.421  20.212
 8413SOL     OW36866   1.418   1.192   5.472
 8413SOL    HW136867   1.474   1.117   5.451
 8413SOL    HW236868   1.478   1.265   5.484
 8414SOL     OW36869   1.608   4.718   9.091
 8414SOL    HW136870   1.579   4.636   9.053
 8414SOL    HW236871   1.577   0.003   9.030
 8415SOL     OW36872   1.445   1.740   7.530
 8415SOL    HW136873   1.477   1.705   7.447
 8415SOL    HW236874   1.431   1.663   7.585
 8416SOL     OW36875   3.255   0.280   6.235
 8416SOL    HW136876   3.309   0.294   6.313
 8416SOL    HW236877   3.232   0.368   6.205
 8417SOL     OW36878   1.817   3.218   1.036
 8417SOL    HW136879   1.734   3.182   1.006
 8417SOL    HW236880   1.793   3.280   1.105
 8418SOL     OW36881   4.682   3.194   3.243
 8418SOL    HW136882   4.735   3.191   3.322
 8418SOL    HW236883   4.707   3.117   3.193
 8419SOL     OW36884   0.167   0.716  22.946
 8419SOL    HW136885   0.186   0.726  23.039
 8419SOL    HW236886   0.073   0.698  22.943
 8420SOL     OW36887   1.894   0.406  24.483
 8420SOL    HW136888   1.922   0.486  24.438
 8420SOL    HW236889   1.843   0.437  24.557
 8421SOL     OW36890   0.776   0.388  12.192
 8421SOL    HW136891   0.780   0.432  12.277
 8421SOL    HW236892   0.837   0.315  12.200
 8422SOL     OW36893   4.564   3.265  22.836
 8422SOL    HW136894   4.566   3.307  22.750
 8422SOL    HW236895   4.485   3.211  22.835
 8423SOL     OW36896   2.388   1.506  21.742
 8423SOL    HW136897   2.473   1.548  21.750
 8423SOL    HW236898   2.358   1.495  21.832
 8424SOL     OW36899   2.812   2.277  25.996
 8424SOL    HW136900   2.819   2.181  25.992
 8424SOL    HW236901   2.718   2.293  26.003
 8425SOL     OW36902   3.102   3.011   7.780
 8425SOL    HW136903   3.121   2.919   7.798
 8425SOL    HW236904   3.019   3.028   7.825
 8426SOL     OW36905   2.637   0.609   5.193
 8426SOL    HW136906   2.624   0.515   5.182
 8426SOL    HW236907   2.618   0.625   5.285
 8427SOL     OW36908   2.055   2.643   8.313
 8427SOL    HW136909   2.043   2.653   8.219
 8427SOL    HW236910   2.096   2.557   8.323
 8428SOL     OW36911   0.111   2.367   5.247
 8428SOL    HW136912   0.042   2.426   5.217
 8428SOL    HW236913   0.108   2.294   5.185
 8429SOL     OW36914   1.381   2.749  11.618
 8429SOL    HW136915   1.322   2.751  11.543
 8429SOL    HW236916   1.373   2.660  11.652
 8430SOL     OW36917   0.367   2.187  19.827
 8430SOL    HW136918   0.417   2.157  19.903
 8430SOL    HW236919   0.276   2.182  19.855
 8431SOL     OW36920   2.949   1.576  19.657
 8431SOL    HW136921   2.996   1.495  19.636
 8431SOL    HW236922   3.011   1.646  19.638
 8432SOL     OW36923   0.037   3.655  21.515
 8432SOL    HW136924   0.120   3.627  21.554
 8432SOL    HW236925   4.752   3.619  21.573
 8433SOL     OW36926   1.143   3.057   4.966
 8433SOL    HW136927   1.058   3.094   4.946
 8433SOL    HW236928   1.153   2.983   4.905
 8434SOL     OW36929   3.833   3.654  11.334
 8434SOL    HW136930   3.873   3.651  11.421
 8434SOL    HW236931   3.804   3.564  11.318
 8435SOL     OW36932   1.939   0.305   1.187
 8435SOL    HW136933   1.858   0.256   1.200
 8435SOL    HW236934   2.003   0.260   1.241
 8436SOL     OW36935   4.079   2.453  12.151
 8436SOL    HW136936   4.004   2.446  12.210
 8436SOL    HW236937   4.154   2.429  12.206
 8437SOL     OW36938   2.649   3.287   3.627
 8437SOL    HW136939   2.628   3.376   3.599
 8437SOL    HW236940   2.620   3.232   3.554
 8438SOL     OW36941   4.510   2.402   0.336
 8438SOL    HW136942   4.529   2.381   0.244
 8438SOL    HW236943   4.595   2.423   0.374
 8439SOL     OW36944   2.851   0.140   9.719
 8439SOL    HW136945   2.940   0.109   9.737
 8439SOL    HW236946   2.799   0.105   9.791
 8440SOL     OW36947   1.011   1.459   9.090
 8440SOL    HW136948   1.099   1.447   9.126
 8440SOL    HW236949   0.965   1.512   9.155
 8441SOL     OW36950   1.285   3.957   0.832
 8441SOL    HW136951   1.314   3.920   0.748
 8441SOL    HW236952   1.306   4.050   0.824
 8442SOL     OW36953   2.236   1.590  25.234
 8442SOL    HW136954   2.213   1.507  25.190
 8442SOL    HW236955   2.156   1.616  25.278
 8443SOL     OW36956   0.239   1.767   9.222
 8443SOL    HW136957   0.150   1.777   9.188
 8443SOL    HW236958   0.295   1.790   9.148
 8444SOL     OW36959   4.066   1.285  21.205
 8444SOL    HW136960   3.987   1.251  21.247
 8444SOL    HW236961   4.117   1.207  21.183
 8445SOL     OW36962   1.651   4.356   0.210
 8445SOL    HW136963   1.638   4.328   0.119
 8445SOL    HW236964   1.739   4.326   0.232
 8446SOL     OW36965   2.648   0.150   1.675
 8446SOL    HW136966   2.728   0.101   1.693
 8446SOL    HW236967   2.583   0.115   1.736
 8447SOL     OW36968   3.357   3.732   1.049
 8447SOL    HW136969   3.287   3.756   0.988
 8447SOL    HW236970   3.312   3.699   1.126
 8448SOL     OW36971   0.819   3.143  19.282
 8448SOL    HW136972   0.854   3.067  19.328
 8448SOL    HW236973   0.724   3.138  19.296
 8449SOL     OW36974   4.393   0.722   5.197
 8449SOL    HW136975   4.324   0.788   5.195
 8449SOL    HW236976   4.464   0.760   5.146
 8450SOL     OW36977   1.541   2.908  24.704
 8450SOL    HW136978   1.537   2.817  24.733
 8450SOL    HW236979   1.461   2.947  24.738
 8451SOL     OW36980   4.589   2.884  10.291
 8451SOL    HW136981   4.679   2.916  10.290
 8451SOL    HW236982   4.552   2.913  10.208
 8452SOL     OW36983   2.505   0.332  14.318
 8452SOL    HW136984   2.499   0.424  14.295
 8452SOL    HW236985   2.547   0.291  14.242
 8453SOL     OW36986   4.297   3.835  10.568
 8453SOL    HW136987   4.326   3.866  10.653
 8453SOL    HW236988   4.225   3.775  10.587
 8454SOL     OW36989   0.817   4.559   0.791
 8454SOL    HW136990   0.846   4.524   0.875
 8454SOL    HW236991   0.896   4.558   0.736
 8455SOL     OW36992   0.179   0.571   7.193
 8455SOL    HW136993   0.232   0.491   7.188
 8455SOL    HW236994   0.224   0.633   7.134
 8456SOL     OW36995   0.081   1.983  21.795
 8456SOL    HW136996   0.094   1.983  21.890
 8456SOL    HW236997   4.777   1.944  21.782
 8457SOL     OW36998   1.570   4.507  24.067
 8457SOL    HW136999   1.517   4.532  23.992
 8457SOL    HW237000   1.653   4.476  24.030
 8458SOL     OW37001   4.265   2.961  10.401
 8458SOL    HW137002   4.343   2.940  10.453
 8458SOL    HW237003   4.264   3.057  10.396
 8459SOL     OW37004   3.179   0.157   7.968
 8459SOL    HW137005   3.269   0.144   8.000
 8459SOL    HW237006   3.189   0.182   7.876
 8460SOL     OW37007   3.009   1.617   9.725
 8460SOL    HW137008   3.029   1.709   9.743
 8460SOL    HW237009   3.057   1.569   9.793
 8461SOL     OW37010   3.713   4.639   7.971
 8461SOL    HW137011   3.682   4.549   7.979
 8461SOL    HW237012   3.751   4.660   8.056
 8462SOL     OW37013   2.161   4.003  23.474
 8462SOL    HW137014   2.129   3.982  23.387
 8462SOL    HW237015   2.256   4.006  23.466
 8463SOL     OW37016   2.992   3.763   5.092
 8463SOL    HW137017   3.064   3.818   5.062
 8463SOL    HW237018   2.919   3.784   5.033
 8464SOL     OW37019   3.304   4.174  20.809
 8464SOL    HW137020   3.272   4.261  20.832
 8464SOL    HW237021   3.360   4.189  20.732
 8465SOL     OW37022   3.633   1.978   3.868
 8465SOL    HW137023   3.664   1.905   3.814
 8465SOL    HW237024   3.651   2.056   3.816
 8466SOL     OW37025   4.549   2.601  10.348
 8466SOL    HW137026   4.554   2.694  10.326
 8466SOL    HW237027   4.568   2.556  10.266
 8467SOL     OW37028   4.637   0.530  18.757
 8467SOL    HW137029   4.558   0.517  18.809
 8467SOL    HW237030   4.691   0.453  18.775
 8468SOL     OW37031   3.189   1.908   4.835
 8468SOL    HW137032   3.118   1.861   4.790
 8468SOL    HW237033   3.233   1.841   4.887
 8469SOL     OW37034   3.935   0.302   5.527
 8469SOL    HW137035   3.915   0.379   5.580
 8469SOL    HW237036   3.849   0.268   5.502
 8470SOL     OW37037   4.716   0.552   8.049
 8470SOL    HW137038   4.779   0.600   7.995
 8470SOL    HW237039   4.759   0.468   8.068
 8471SOL     OW37040   4.232   1.592  24.736
 8471SOL    HW137041   4.255   1.564  24.648
 8471SOL    HW237042   4.312   1.581  24.787
 8472SOL     OW37043   0.046   1.494  23.605
 8472SOL    HW137044   0.087   1.560  23.661
 8472SOL    HW237045   4.774   1.544  23.545
 8473SOL     OW37046   0.958   1.174   5.265
 8473SOL    HW137047   0.901   1.251   5.264
 8473SOL    HW237048   1.034   1.200   5.212
 8474SOL     OW37049   3.110   2.624  23.597
 8474SOL    HW137050   3.065   2.658  23.675
 8474SOL    HW237051   3.095   2.529  23.601
 8475SOL     OW37052   4.703   0.558   5.821
 8475SOL    HW137053   4.781   0.535   5.871
 8475SOL    HW237054   4.704   0.498   5.746
 8476SOL     OW37055   4.256   2.559   1.676
 8476SOL    HW137056   4.171   2.602   1.693
 8476SOL    HW237057   4.319   2.631   1.676
 8477SOL     OW37058   2.917   3.286   7.637
 8477SOL    HW137059   2.952   3.323   7.718
 8477SOL    HW237060   2.993   3.249   7.593
 8478SOL     OW37061   4.089   0.269   5.299
 8478SOL    HW137062   4.174   0.294   5.334
 8478SOL    HW237063   4.032   0.266   5.377
 8479SOL     OW37064   3.463   3.512  10.478
 8479SOL    HW137065   3.471   3.539  10.570
 8479SOL    HW237066   3.467   3.417  10.480
 8480SOL     OW37067   3.474   3.895  10.987
 8480SOL    HW137068   3.529   3.837  11.038
 8480SOL    HW237069   3.389   3.892  11.030
 8481SOL     OW37070   2.079   0.934  24.357
 8481SOL    HW137071   2.143   1.004  24.374
 8481SOL    HW237072   2.079   0.924  24.262
 8482SOL     OW37073   3.933   3.643  11.598
 8482SOL    HW137074   3.848   3.635  11.641
 8482SOL    HW237075   3.995   3.603  11.660
 8483SOL     OW37076   4.445   1.246  21.559
 8483SOL    HW137077   4.453   1.305  21.634
 8483SOL    HW237078   4.444   1.303  21.483
 8484SOL     OW37079   1.889   3.033  10.569
 8484SOL    HW137080   1.960   2.991  10.618
 8484SOL    HW237081   1.814   2.976  10.582
 8485SOL     OW37082   2.316   4.744  22.940
 8485SOL    HW137083   2.283   0.044  22.905
 8485SOL    HW237084   2.281   4.677  22.881
 8486SOL     OW37085   0.951   3.856  12.141
 8486SOL    HW137086   1.025   3.859  12.202
 8486SOL    HW237087   0.891   3.793  12.181
 8487SOL     OW37088   0.812   3.928  11.882
 8487SOL    HW137089   0.740   3.884  11.836
 8487SOL    HW237090   0.768   3.991  11.939
 8488SOL     OW37091   4.142   3.829   3.596
 8488SOL    HW137092   4.058   3.836   3.549
 8488SOL    HW237093   4.177   3.918   3.595
 8489SOL     OW37094   2.387   2.309   4.565
 8489SOL    HW137095   2.324   2.296   4.636
 8489SOL    HW237096   2.367   2.239   4.503
 8490SOL     OW37097   4.664   1.819  19.317
 8490SOL    HW137098   4.596   1.769  19.272
 8490SOL    HW237099   4.741   1.763  19.316
 8491SOL     OW37100   4.317   0.296   2.668
 8491SOL    HW137101   4.352   0.382   2.690
 8491SOL    HW237102   4.280   0.307   2.580
 8492SOL     OW37103   3.585   4.728   5.252
 8492SOL    HW137104   3.654   4.719   5.317
 8492SOL    HW237105   3.529   4.651   5.265
 8493SOL     OW37106   2.031   3.881  23.038
 8493SOL    HW137107   2.093   3.857  23.107
 8493SOL    HW237108   2.055   3.825  22.964
 8494SOL     OW37109   3.743   1.275   4.914
 8494SOL    HW137110   3.827   1.290   4.870
 8494SOL    HW237111   3.750   1.324   4.996
 8495SOL     OW37112   4.739   2.015   8.809
 8495SOL    HW137113   4.674   2.082   8.787
 8495SOL    HW237114   0.024   2.063   8.859
 8496SOL     OW37115   3.253   3.341   5.063
 8496SOL    HW137116   3.175   3.390   5.087
 8496SOL    HW237117   3.325   3.388   5.106
 8497SOL     OW37118   1.046   0.276  22.483
 8497SOL    HW137119   1.115   0.256  22.420
 8497SOL    HW237120   1.000   0.193  22.496
 8498SOL     OW37121   3.468   4.693  11.801
 8498SOL    HW137122   3.481   4.602  11.774
 8498SOL    HW237123   3.463   4.689  11.897
 8499SOL     OW37124   3.932   0.453  12.870
 8499SOL    HW137125   3.943   0.493  12.956
 8499SOL    HW237126   3.908   0.362  12.888
 8500SOL     OW37127   3.830   3.656  13.323
 8500SOL    HW137128   3.911   3.705  13.337
 8500SOL    HW237129   3.803   3.630  13.411
 8501SOL     OW37130   0.299   4.186  12.483
 8501SOL    HW137131   0.233   4.253  12.463
 8501SOL    HW237132   0.381   4.236  12.494
 8502SOL     OW37133   2.493   0.439  11.758
 8502SOL    HW137134   2.494   0.495  11.835
 8502SOL    HW237135   2.444   0.489  11.692
 8503SOL     OW37136   4.495   2.891  10.547
 8503SOL    HW137137   4.534   2.884  10.460
 8503SOL    HW237138   4.449   2.808  10.559
 8504SOL     OW37139   2.910   2.263   6.626
 8504SOL    HW137140   2.941   2.345   6.664
 8504SOL    HW237141   2.903   2.281   6.532
 8505SOL     OW37142   3.958   3.903  10.137
 8505SOL    HW137143   3.953   3.841  10.210
 8505SOL    HW237144   3.924   3.985  10.173
 8506SOL     OW37145   4.099   0.892  12.472
 8506SOL    HW137146   4.006   0.883  12.495
 8506SOL    HW237147   4.111   0.985  12.456
 8507SOL     OW37148   3.620   2.779  11.710
 8507SOL    HW137149   3.689   2.830  11.751
 8507SOL    HW237150   3.592   2.717  11.777
 8508SOL     OW37151   4.358   3.002  11.552
 8508SOL    HW137152   4.384   3.076  11.608
 8508SOL    HW237153   4.420   3.004  11.479
 8509SOL     OW37154   4.547   4.625  12.779
 8509SOL    HW137155   4.567   4.580  12.861
 8509SOL    HW237156   4.469   4.676  12.799
 8510SOL     OW37157   3.705   2.591  12.857
 8510SOL    HW137158   3.652   2.566  12.932
 8510SOL    HW237159   3.695   2.687  12.852
 8511SOL     OW37160   4.676   3.362  11.541
 8511SOL    HW137161   4.646   3.324  11.623
 8511SOL    HW237162   4.743   3.302  11.509
 8512SOL     OW37163   4.630   4.512  12.531
 8512SOL    HW137164   4.725   4.522  12.539
 8512SOL    HW237165   4.596   4.540  12.616
 8513SOL     OW37166   4.075   4.658  12.172
 8513SOL    HW137167   4.012   4.599  12.130
 8513SOL    HW237168   4.154   4.605  12.182
 8514SOL     OW37169   1.233   3.640  13.434
 8514SOL    HW137170   1.239   3.733  13.456
 8514SOL    HW237171   1.319   3.618  13.399
 8515SOL     OW37172   0.474   2.298  12.233
 8515SOL    HW137173   0.527   2.350  12.293
 8515SOL    HW237174   0.411   2.253  12.289
 8516SOL     OW37175   4.060   3.994  11.708
 8516SOL    HW137176   4.117   4.055  11.660
 8516SOL    HW237177   4.033   4.043  11.786
 8517SOL     OW37178   3.902   3.702  12.858
 8517SOL    HW137179   3.834   3.715  12.924
 8517SOL    HW237180   3.920   3.608  12.860
 8518SOL     OW37181   3.475   3.841  11.354
 8518SOL    HW137182   3.455   3.750  11.379
 8518SOL    HW237183   3.557   3.834  11.304
 8519SOL     OW37184   0.109   3.356  12.364
 8519SOL    HW137185   0.179   3.421  12.372
 8519SOL    HW237186   0.155   3.274  12.344
 8520SOL     OW37187   0.358   3.668  13.124
 8520SOL    HW137188   0.288   3.647  13.062
 8520SOL    HW237189   0.313   3.707  13.199
 8521SOL     OW37190   0.153   4.394  12.343
 8521SOL    HW137191   0.174   4.431  12.257
 8521SOL    HW237192   0.064   4.363  12.335
 8522SOL     OW37193   4.111   2.625  11.043
 8522SOL    HW137194   4.058   2.603  11.119
 8522SOL    HW237195   4.189   2.668  11.080
 8523SOL     OW37196   4.566   3.702  12.939
 8523SOL    HW137197   4.516   3.769  12.892
 8523SOL    HW237198   4.619   3.660  12.871
 8524SOL     OW37199   0.489   4.030   3.675
 8524SOL    HW137200   0.481   4.113   3.628
 8524SOL    HW237201   0.514   3.967   3.607
 8525SOL     OW37202   4.602   3.626  11.548
 8525SOL    HW137203   4.524   3.618  11.603
 8525SOL    HW237204   4.628   3.536  11.531
 8526SOL     OW37205   1.179   4.632   6.404
 8526SOL    HW137206   1.207   4.619   6.494
 8526SOL    HW237207   1.248   4.686   6.365
 8527SOL     OW37208   3.831   2.842  11.113
 8527SOL    HW137209   3.858   2.751  11.131
 8527SOL    HW237210   3.833   2.885  11.199
 8528SOL     OW37211   4.700   3.616  12.716
 8528SOL    HW137212   4.722   3.707  12.697
 8528SOL    HW237213   4.679   3.578  12.631
 8529SOL     OW37214   4.540   3.716  13.230
 8529SOL    HW137215   4.537   3.716  13.135
 8529SOL    HW237216   4.471   3.777  13.256
 8530SOL     OW37217   3.837   0.552  11.879
 8530SOL    HW137218   3.765   0.520  11.824
 8530SOL    HW237219   3.871   0.473  11.922
 8531SOL     OW37220   3.876   4.406  12.108
 8531SOL    HW137221   3.923   4.355  12.175
 8531SOL    HW237222   3.818   4.342  12.067
 8532SOL     OW37223   3.790   4.092  12.652
 8532SOL    HW137224   3.850   4.018  12.658
 8532SOL    HW237225   3.846   4.169  12.657
 8533SOL     OW37226   4.322   2.012  13.027
 8533SOL    HW137227   4.237   2.025  13.068
 8533SOL    HW237228   4.373   2.088  13.054
 8534SOL     OW37229   3.945   3.771  12.397
 8534SOL    HW137230   3.952   3.800  12.488
 8534SOL    HW237231   3.966   3.678  12.400
 8535SOL     OW37232   1.346   0.093   1.234
 8535SOL    HW137233   1.264   0.067   1.192
 8535SOL    HW237234   1.414   0.057   1.178
 8536SOL     OW37235   3.954   3.323  12.246
 8536SOL    HW137236   4.008   3.254  12.284
 8536SOL    HW237237   3.958   3.394  12.310
 8537SOL     OW37238   3.966   3.437  12.918
 8537SOL    HW137239   3.888   3.397  12.880
 8537SOL    HW237240   3.955   3.427  13.013
 8538SOL     OW37241   3.658   4.331  12.747
 8538SOL    HW137242   3.690   4.242  12.733
 8538SOL    HW237243   3.584   4.320  12.807
 8539SOL     OW37244   3.745   4.160  12.020
 8539SOL    HW137245   3.681   4.103  11.977
 8539SOL    HW237246   3.761   4.118  12.105
 8540SOL     OW37247   3.335   4.092  12.699
 8540SOL    HW137248   3.363   4.140  12.777
 8540SOL    HW237249   3.316   4.159  12.634
 8541SOL     OW37250   1.115   2.834  19.838
 8541SOL    HW137251   1.126   2.846  19.932
 8541SOL    HW237252   1.122   2.922  19.801
 8542SOL     OW37253   3.759   3.746  13.082
 8542SOL    HW137254   3.790   3.704  13.162
 8542SOL    HW237255   3.769   3.840  13.099
 8543SOL     OW37256   4.687   3.528   9.396
 8543SOL    HW137257   4.739   3.557   9.321
 8543SOL    HW237258   4.637   3.453   9.363
 8544SOL     OW37259   3.030   3.516  12.674
 8544SOL    HW137260   3.061   3.438  12.719
 8544SOL    HW237261   3.013   3.579  12.744
 8545SOL     OW37262   3.543   2.241  12.989
 8545SOL    HW137263   3.630   2.280  12.988
 8545SOL    HW237264   3.483   2.316  12.993
 8546SOL     OW37265   3.642   2.522   0.884
 8546SOL    HW137266   3.640   2.571   0.801
 8546SOL    HW237267   3.701   2.572   0.940
 8547SOL     OW37268   3.655   2.868  12.862
 8547SOL    HW137269   3.669   2.959  12.834
 8547SOL    HW237270   3.587   2.874  12.929
 8548SOL     OW37271   3.369   4.579  13.353
 8548SOL    HW137272   3.407   4.667  13.356
 8548SOL    HW237273   3.444   4.521  13.366
 8549SOL     OW37274   3.376   3.795  12.012
 8549SOL    HW137275   3.393   3.848  12.090
 8549SOL    HW237276   3.381   3.705  12.043
 8550SOL     OW37277   4.380   1.903  12.764
 8550SOL    HW137278   4.320   1.963  12.719
 8550SOL    HW237279   4.370   1.924  12.857
 8551SOL     OW37280   0.479   3.119  11.768
 8551SOL    HW137281   0.545   3.052  11.752
 8551SOL    HW237282   0.525   3.188  11.815
 8552SOL     OW37283   4.164   4.246  11.610
 8552SOL    HW137284   4.077   4.269  11.577
 8552SOL    HW237285   4.216   4.326  11.597
 8553SOL     OW37286   4.114   4.238  14.292
 8553SOL    HW137287   4.047   4.203  14.234
 8553SOL    HW237288   4.188   4.259  14.235
 8554SOL     OW37289   4.736   0.535  13.474
 8554SOL    HW137290   4.645   0.509  13.488
 8554SOL    HW237291   4.763   0.574  13.557
 8555SOL     OW37292   0.925   0.833  13.077
 8555SOL    HW137293   1.008   0.826  13.123
 8555SOL    HW237294   0.926   0.760  13.015
 8556SOL     OW37295   3.800   0.603  15.316
 8556SOL    HW137296   3.895   0.596  15.308
 8556SOL    HW237297   3.766   0.552  15.242
 8557SOL     OW37298   3.426   2.817  11.519
 8557SOL    HW137299   3.492   2.814  11.589
 8557SOL    HW237300   3.477   2.812  11.438
 8558SOL     OW37301   0.256   4.672  14.478
 8558SOL    HW137302   0.294   4.655  14.393
 8558SOL    HW237303   0.330   4.667  14.539
 8559SOL     OW37304   0.315   4.183  14.092
 8559SOL    HW137305   0.296   4.164  14.000
 8559SOL    HW237306   0.263   4.261  14.112
 8560SOL     OW37307   4.123   3.328  14.304
 8560SOL    HW137308   4.185   3.287  14.364
 8560SOL    HW237309   4.060   3.372  14.361
 8561SOL     OW37310   4.193   0.071  15.246
 8561SOL    HW137311   4.161   0.118  15.323
 8561SOL    HW237312   4.169   0.127  15.172
 8562SOL     OW37313   0.222   3.148  14.810
 8562SOL    HW137314   0.279   3.098  14.868
 8562SOL    HW237315   0.142   3.162  14.861
 8563SOL     OW37316   4.348   3.857  13.322
 8563SOL    HW137317   4.294   3.935  13.310
 8563SOL    HW237318   4.353   3.847  13.417
 8564SOL     OW37319   0.168   3.578  13.898
 8564SOL    HW137320   0.210   3.493  13.909
 8564SOL    HW237321   0.182   3.622  13.981
 8565SOL     OW37322   0.854   1.774  12.936
 8565SOL    HW137323   0.879   1.686  12.964
 8565SOL    HW237324   0.866   1.828  13.015
 8566SOL     OW37325   3.502   3.358  13.078
 8566SOL    HW137326   3.431   3.363  13.142
 8566SOL    HW237327   3.459   3.363  12.993
 8567SOL     OW37328   4.525   4.251  14.222
 8567SOL    HW137329   4.439   4.263  14.181
 8567SOL    HW237330   4.575   4.202  14.157
 8568SOL     OW37331   3.501   3.712  14.149
 8568SOL    HW137332   3.515   3.734  14.241
 8568SOL    HW237333   3.521   3.793  14.102
 8569SOL     OW37334   0.428   3.829  14.986
 8569SOL    HW137335   0.397   3.825  14.895
 8569SOL    HW237336   0.383   3.904  15.023
 8570SOL     OW37337   3.894   4.127  15.057
 8570SOL    HW137338   3.889   4.050  15.000
 8570SOL    HW237339   3.927   4.197  14.999
 8571SOL     OW37340   0.113   3.310  14.170
 8571SOL    HW137341   0.160   3.335  14.090
 8571SOL    HW237342   0.182   3.297  14.235
 8572SOL     OW37343   3.698   0.170  14.019
 8572SOL    HW137344   3.637   0.101  13.993
 8572SOL    HW237345   3.665   0.200  14.104
 8573SOL     OW37346   2.764   3.488  13.839
 8573SOL    HW137347   2.853   3.486  13.876
 8573SOL    HW237348   2.769   3.554  13.769
 8574SOL     OW37349   4.075   3.128  14.955
 8574SOL    HW137350   4.002   3.125  15.017
 8574SOL    HW237351   4.132   3.056  14.981
 8575SOL     OW37352   3.876   4.605  14.508
 8575SOL    HW137353   3.914   4.692  14.499
 8575SOL    HW237354   3.783   4.621  14.524
 8576SOL     OW37355   4.466   3.414  14.314
 8576SOL    HW137356   4.485   3.405  14.221
 8576SOL    HW237357   4.423   3.499  14.322
 8577SOL     OW37358   4.101   2.990  12.201
 8577SOL    HW137359   4.141   2.999  12.114
 8577SOL    HW237360   4.139   3.062  12.252
 8578SOL     OW37361   1.852   1.984  14.164
 8578SOL    HW137362   1.911   1.951  14.232
 8578SOL    HW237363   1.769   1.999  14.209
 8579SOL     OW37364   3.909   3.430  13.191
 8579SOL    HW137365   3.878   3.496  13.254
 8579SOL    HW237366   3.835   3.371  13.180
 8580SOL     OW37367   4.646   0.090  12.650
 8580SOL    HW137368   4.612   0.150  12.717
 8580SOL    HW237369   4.641   0.004  12.691
 8581SOL     OW37370   4.674   3.891  13.627
 8581SOL    HW137371   4.581   3.870  13.633
 8581SOL    HW237372   4.685   3.928  13.540
 8582SOL     OW37373   4.761   0.024  12.988
 8582SOL    HW137374   0.044   0.086  13.021
 8582SOL    HW237375   0.003   4.723  13.026
 8583SOL     OW37376   4.181   4.073  13.309
 8583SOL    HW137377   4.119   4.000  13.300
 8583SOL    HW237378   4.145   4.126  13.381
 8584SOL     OW37379   4.049   0.280  14.238
 8584SOL    HW137380   4.116   0.301  14.173
 8584SOL    HW237381   4.098   0.258  14.317
 8585SOL     OW37382   0.722   2.689  12.561
 8585SOL    HW137383   0.715   2.593  12.555
 8585SOL    HW237384   0.656   2.713  12.625
 8586SOL     OW37385   4.217   4.650  15.041
 8586SOL    HW137386   4.184   4.692  15.121
 8586SOL    HW237387   4.308   4.680  15.034
 8587SOL     OW37388   4.109   4.220  13.520
 8587SOL    HW137389   4.127   4.314  13.530
 8587SOL    HW237390   4.080   4.193  13.607
 8588SOL     OW37391   4.614   3.337  13.062
 8588SOL    HW137392   4.675   3.351  12.990
 8588SOL    HW237393   4.651   3.387  13.135
 8589SOL     OW37394   4.111   3.452  14.068
 8589SOL    HW137395   4.160   3.412  13.996
 8589SOL    HW237396   4.131   3.397  14.144
 8590SOL     OW37397   4.655   3.391  14.094
 8590SOL    HW137398   4.671   3.469  14.041
 8590SOL    HW237399   4.742   3.362  14.121
 8591SOL     OW37400   0.273   3.329  13.943
 8591SOL    HW137401   0.244   3.271  13.872
 8591SOL    HW237402   0.333   3.275  13.994
 8592SOL     OW37403   4.042   2.699  15.080
 8592SOL    HW137404   3.961   2.730  15.121
 8592SOL    HW237405   4.015   2.625  15.025
 8593SOL     OW37406   4.569   4.379  15.713
 8593SOL    HW137407   4.636   4.323  15.752
 8593SOL    HW237408   4.617   4.439  15.657
 8594SOL     OW37409   4.304   2.992  16.088
 8594SOL    HW137410   4.342   2.953  16.167
 8594SOL    HW237411   4.362   2.964  16.017
 8595SOL     OW37412   0.360   4.750  14.890
 8595SOL    HW137413   0.383   4.733  14.798
 8595SOL    HW237414   0.265   4.742  14.892
 8596SOL     OW37415   4.506   2.104  18.582
 8596SOL    HW137416   4.478   2.014  18.598
 8596SOL    HW237417   4.521   2.108  18.488
 8597SOL     OW37418   4.759   0.704  16.712
 8597SOL    HW137419   4.701   0.779  16.717
 8597SOL    HW237420   4.758   0.678  16.620
 8598SOL     OW37421   0.648   4.292  15.420
 8598SOL    HW137422   0.627   4.383  15.402
 8598SOL    HW237423   0.726   4.274  15.368
 8599SOL     OW37424   3.729   3.229  17.247
 8599SOL    HW137425   3.797   3.288  17.280
 8599SOL    HW237426   3.687   3.278  17.176
 8600SOL     OW37427   4.043   0.242  15.414
 8600SOL    HW137428   4.037   0.326  15.369
 8600SOL    HW237429   4.048   0.264  15.507
 8601SOL     OW37430   4.271   4.238  14.891
 8601SOL    HW137431   4.183   4.243  14.854
 8601SOL    HW237432   4.296   4.146  14.881
 8602SOL     OW37433   4.200   4.558  14.790
 8602SOL    HW137434   4.195   4.599  14.876
 8602SOL    HW237435   4.293   4.557  14.769
 8603SOL     OW37436   4.699   0.929  14.363
 8603SOL    HW137437   4.673   0.960  14.450
 8603SOL    HW237438   4.670   0.998  14.303
 8604SOL     OW37439   0.144   3.227  15.360
 8604SOL    HW137440   0.187   3.168  15.299
 8604SOL    HW237441   0.070   3.263  15.311
 8605SOL     OW37442   0.949   4.545  16.025
 8605SOL    HW137443   0.938   4.507  15.938
 8605SOL    HW237444   0.872   4.514  16.074
 8606SOL     OW37445   4.541   3.845  14.848
 8606SOL    HW137446   4.537   3.753  14.824
 8606SOL    HW237447   4.631   3.858  14.879
 8607SOL     OW37448   0.721   4.654  15.550
 8607SOL    HW137449   0.653   4.699  15.499
 8607SOL    HW237450   0.802   4.672  15.503
 8608SOL     OW37451   4.700   3.537  15.276
 8608SOL    HW137452   4.639   3.515  15.347
 8608SOL    HW237453   4.735   3.453  15.247
 8609SOL     OW37454   3.990   0.095  14.549
 8609SOL    HW137455   4.078   0.124  14.523
 8609SOL    HW237456   3.939   0.101  14.468
 8610SOL     OW37457   0.680   0.278  14.836
 8610SOL    HW137458   0.634   0.227  14.903
 8610SOL    HW237459   0.769   0.288  14.871
 8611SOL     OW37460   3.544   2.369  18.399
 8611SOL    HW137461   3.505   2.408  18.321
 8611SOL    HW237462   3.638   2.381  18.388
 8612SOL     OW37463   3.761   0.297  16.092
 8612SOL    HW137464   3.741   0.329  16.180
 8612SOL    HW237465   3.742   0.372  16.035
 8613SOL     OW37466   0.104   2.808  15.240
 8613SOL    HW137467   0.012   2.821  15.215
 8613SOL    HW237468   0.108   2.717  15.269
 8614SOL     OW37469   3.756   4.321  15.414
 8614SOL    HW137470   3.808   4.372  15.352
 8614SOL    HW237471   3.668   4.319  15.377
 8615SOL     OW37472   4.142   1.821  15.048
 8615SOL    HW137473   4.072   1.843  15.109
 8615SOL    HW237474   4.177   1.906  15.019
 8616SOL     OW37475   4.175   2.929  15.078
 8616SOL    HW137476   4.117   2.856  15.057
 8616SOL    HW237477   4.263   2.892  15.075
 8617SOL     OW37478   0.046   3.587  16.428
 8617SOL    HW137479   0.105   3.649  16.385
 8617SOL    HW237480   0.025   3.628  16.512
 8618SOL     OW37481   0.117   0.376  14.508
 8618SOL    HW137482   0.027   0.406  14.521
 8618SOL    HW237483   0.114   0.283  14.530
 8619SOL     OW37484   4.149   4.371  15.102
 8619SOL    HW137485   4.166   4.464  15.086
 8619SOL    HW237486   4.176   4.329  15.020
 8620SOL     OW37487   4.269   3.148  15.580
 8620SOL    HW137488   4.247   3.124  15.489
 8620SOL    HW237489   4.252   3.242  15.584
 8621SOL     OW37490   3.820   3.882  14.979
 8621SOL    HW137491   3.764   3.810  14.949
 8621SOL    HW237492   3.905   3.865  14.939
 8622SOL     OW37493   0.866   4.265  15.265
 8622SOL    HW137494   0.817   4.247  15.185
 8622SOL    HW237495   0.931   4.194  15.270
 8623SOL     OW37496   1.388   3.561  15.034
 8623SOL    HW137497   1.368   3.512  14.954
 8623SOL    HW237498   1.468   3.610  15.012
 8624SOL     OW37499   4.389   3.655  15.755
 8624SOL    HW137500   4.472   3.699  15.732
 8624SOL    HW237501   4.321   3.715  15.724
 8625SOL     OW37502   3.198   1.705  18.539
 8625SOL    HW137503   3.169   1.663  18.620
 8625SOL    HW237504   3.278   1.752  18.563
 8626SOL     OW37505   0.006   4.638  14.986
 8626SOL    HW137506   0.034   4.651  14.895
 8626SOL    HW237507   0.053   4.560  15.015
 8627SOL     OW37508   0.106   3.347  16.356
 8627SOL    HW137509   0.075   3.438  16.360
 8627SOL    HW237510   0.072   3.313  16.273
 8628SOL     OW37511   4.435   0.485  16.587
 8628SOL    HW137512   4.528   0.466  16.600
 8628SOL    HW237513   4.410   0.433  16.510
 8629SOL     OW37514   4.538   4.346  14.888
 8629SOL    HW137515   4.528   4.431  14.931
 8629SOL    HW237516   4.450   4.309  14.887
 8630SOL     OW37517   0.311   2.924  15.360
 8630SOL    HW137518   0.324   3.009  15.318
 8630SOL    HW237519   0.261   2.873  15.297
 8631SOL     OW37520   4.320   3.961  14.930
 8631SOL    HW137521   4.335   3.937  15.022
 8631SOL    HW237522   4.396   3.926  14.884
 8632SOL     OW37523   4.520   3.573  15.471
 8632SOL    HW137524   4.437   3.529  15.489
 8632SOL    HW237525   4.512   3.658  15.514
 8633SOL     OW37526   0.386   3.249  14.605
 8633SOL    HW137527   0.317   3.215  14.662
 8633SOL    HW237528   0.443   3.174  14.591
 8634SOL     OW37529   1.541   3.765  14.922
 8634SOL    HW137530   1.626   3.763  14.878
 8634SOL    HW237531   1.483   3.811  14.862
 8635SOL     OW37532   4.762   3.127  14.947
 8635SOL    HW137533   4.683   3.142  14.894
 8635SOL    HW237534   4.763   3.033  14.962
 8636SOL     OW37535   4.165   3.807  15.712
 8636SOL    HW137536   4.166   3.842  15.801
 8636SOL    HW237537   4.084   3.841  15.673
 8637SOL     OW37538   4.047   4.413  14.613
 8637SOL    HW137539   3.965   4.457  14.590
 8637SOL    HW237540   4.087   4.470  14.680
 8638SOL     OW37541   4.276   2.585  15.117
 8638SOL    HW137542   4.189   2.622  15.103
 8638SOL    HW237543   4.330   2.660  15.142
 8639SOL     OW37544   1.280   4.523  17.604
 8639SOL    HW137545   1.316   4.576  17.533
 8639SOL    HW237546   1.206   4.574  17.637
 8640SOL     OW37547   0.154   1.508  15.464
 8640SOL    HW137548   0.240   1.537  15.494
 8640SOL    HW237549   0.170   1.466  15.380
 8641SOL     OW37550   0.108   0.099  14.541
 8641SOL    HW137551   0.149   0.013  14.535
 8641SOL    HW237552   0.014   0.081  14.528
 8642SOL     OW37553   3.912   0.025  16.655
 8642SOL    HW137554   3.840   0.067  16.702
 8642SOL    HW237555   3.929   0.082  16.581
 8643SOL     OW37556   4.653   0.943  15.499
 8643SOL    HW137557   4.600   1.016  15.467
 8643SOL    HW237558   4.684   0.899  15.420
 8644SOL     OW37559   4.302   0.381  15.150
 8644SOL    HW137560   4.208   0.375  15.160
 8644SOL    HW237561   4.316   0.463  15.101
 8645SOL     OW37562   0.218   3.818  15.754
 8645SOL    HW137563   0.169   3.827  15.672
 8645SOL    HW237564   0.190   3.734  15.789
 8646SOL     OW37565   4.058   3.882  14.855
 8646SOL    HW137566   4.135   3.898  14.909
 8646SOL    HW237567   4.094   3.859  14.769
 8647SOL     OW37568   4.394   3.386  15.795
 8647SOL    HW137569   4.381   3.468  15.749
 8647SOL    HW237570   4.307   3.361  15.827
 8648SOL     OW37571   1.050   3.285  14.602
 8648SOL    HW137572   1.133   3.262  14.561
 8648SOL    HW237573   1.057   3.249  14.691
 8649SOL     OW37574   0.035   3.912  15.494
 8649SOL    HW137575   0.006   3.877  15.410
 8649SOL    HW237576   0.118   3.955  15.476
 8650SOL     OW37577   4.713   3.820  15.255
 8650SOL    HW137578   4.681   3.729  15.249
 8650SOL    HW237579   4.744   3.840  15.166
 8651SOL     OW37580   3.819   0.114  14.337
 8651SOL    HW137581   3.870   0.143  14.261
 8651SOL    HW237582   3.731   0.147  14.320
 8652SOL     OW37583   3.372   2.932  15.030
 8652SOL    HW137584   3.284   2.937  15.067
 8652SOL    HW237585   3.426   2.894  15.099
 8653SOL     OW37586   3.459   2.981  14.787
 8653SOL    HW137587   3.544   3.022  14.796
 8653SOL    HW237588   3.424   2.979  14.877
 8654SOL     OW37589   0.281   4.688  15.358
 8654SOL    HW137590   0.339   4.667  15.285
 8654SOL    HW237591   0.198   4.645  15.337
 8655SOL     OW37592   4.588   3.284  15.632
 8655SOL    HW137593   4.620   3.370  15.604
 8655SOL    HW237594   4.519   3.304  15.695
 8656SOL     OW37595   0.037   3.819  14.965
 8656SOL    HW137596   0.030   3.724  14.956
 8656SOL    HW237597   0.088   3.846  14.890
 8657SOL     OW37598   0.039   3.997  16.658
 8657SOL    HW137599   0.131   3.976  16.673
 8657SOL    HW237600   0.042   4.079  16.609
 8658SOL     OW37601   0.102   1.221  15.889
 8658SOL    HW137602   0.185   1.184  15.918
 8658SOL    HW237603   0.105   1.212  15.793
 8659SOL     OW37604   2.581   0.442  17.046
 8659SOL    HW137605   2.576   0.462  17.140
 8659SOL    HW237606   2.625   0.518  17.008
 8660SOL     OW37607   4.133   4.452  15.404
 8660SOL    HW137608   4.091   4.411  15.328
 8660SOL    HW237609   4.082   4.532  15.419
 8661SOL     OW37610   0.273   2.943  18.294
 8661SOL    HW137611   0.282   2.890  18.373
 8661SOL    HW237612   0.363   2.959  18.266
 8662SOL     OW37613   0.611   0.266  16.136
 8662SOL    HW137614   0.530   0.240  16.092
 8662SOL    HW237615   0.663   0.186  16.138
 8663SOL     OW37616   1.221   3.942  16.947
 8663SOL    HW137617   1.289   4.006  16.969
 8663SOL    HW237618   1.263   3.883  16.884
 8664SOL     OW37619   3.493   2.425  22.312
 8664SOL    HW137620   3.556   2.447  22.243
 8664SOL    HW237621   3.473   2.508  22.355
 8665SOL     OW37622   4.490   1.128  17.386
 8665SOL    HW137623   4.477   1.050  17.331
 8665SOL    HW237624   4.448   1.198  17.336
 8666SOL     OW37625   0.107   4.019  17.564
 8666SOL    HW137626   0.198   4.003  17.538
 8666SOL    HW237627   0.060   3.940  17.538
 8667SOL     OW37628   1.352   2.019  16.237
 8667SOL    HW137629   1.360   2.076  16.160
 8667SOL    HW237630   1.264   1.983  16.232
 8668SOL     OW37631   0.709   3.525   8.390
 8668SOL    HW137632   0.696   3.524   8.485
 8668SOL    HW237633   0.753   3.609   8.373
 8669SOL     OW37634   4.484   4.408  18.410
 8669SOL    HW137635   4.553   4.386  18.473
 8669SOL    HW237636   4.531   4.452  18.338
 8670SOL     OW37637   3.142   3.456  15.917
 8670SOL    HW137638   3.189   3.381  15.955
 8670SOL    HW237639   3.211   3.519  15.896
 8671SOL     OW37640   1.003   1.744  19.866
 8671SOL    HW137641   0.967   1.799  19.936
 8671SOL    HW237642   1.035   1.806  19.801
 8672SOL     OW37643   1.789   1.559   0.212
 8672SOL    HW137644   1.762   1.540   0.122
 8672SOL    HW237645   1.725   1.623   0.243
 8673SOL     OW37646   2.529   2.490  28.167
 8673SOL    HW137647   2.502   2.461  28.080
 8673SOL    HW237648   2.519   2.585  28.166
 8674SOL     OW37649   3.713   3.877  16.689
 8674SOL    HW137650   3.769   3.803  16.715
 8674SOL    HW237651   3.653   3.888  16.762
 8675SOL     OW37652   3.131   3.895  15.978
 8675SOL    HW137653   3.222   3.869  15.992
 8675SOL    HW237654   3.129   3.925  15.888
 8676SOL     OW37655   3.540   0.029  24.379
 8676SOL    HW137656   3.598   0.057  24.308
 8676SOL    HW237657   3.599   0.001  24.448
 8677SOL     OW37658   2.224   0.796   2.294
 8677SOL    HW137659   2.148   0.803   2.352
 8677SOL    HW237660   2.293   0.843   2.340
 8678SOL     OW37661   4.432   3.860  17.030
 8678SOL    HW137662   4.490   3.787  17.009
 8678SOL    HW237663   4.429   3.913  16.950
 8679SOL     OW37664   4.498   4.624  14.936
 8679SOL    HW137665   4.530   4.625  15.026
 8679SOL    HW237666   4.576   4.632  14.882
 8680SOL     OW37667   3.556   2.044  19.648
 8680SOL    HW137668   3.600   2.116  19.693
 8680SOL    HW237669   3.515   1.993  19.718
 8681SOL     OW37670   4.586   2.667  16.931
 8681SOL    HW137671   4.674   2.703  16.916
 8681SOL    HW237672   4.587   2.642  17.023
 8682SOL     OW37673   4.600   3.866  27.784
 8682SOL    HW137674   4.505   3.869  27.784
 8682SOL    HW237675   4.622   3.797  27.721
 8683SOL     OW37676   2.653   3.001  17.637
 8683SOL    HW137677   2.703   3.064  17.689
 8683SOL    HW237678   2.581   3.052  17.600
 8684SOL     OW37679   0.158   4.470  18.140
 8684SOL    HW137680   0.118   4.476  18.227
 8684SOL    HW237681   0.145   4.378  18.114
 8685SOL     OW37682   2.698   0.739   2.266
 8685SOL    HW137683   2.793   0.742   2.250
 8685SOL    HW237684   2.663   0.687   2.194
 8686SOL     OW37685   3.624   3.306  23.625
 8686SOL    HW137686   3.538   3.265  23.626
 8686SOL    HW237687   3.608   3.395  23.595
 8687SOL     OW37688   2.751   4.700  15.731
 8687SOL    HW137689   2.717   4.621  15.689
 8687SOL    HW237690   2.835   4.674  15.768
 8688SOL     OW37691   3.816   1.419  17.601
 8688SOL    HW137692   3.809   1.370  17.683
 8688SOL    HW237693   3.780   1.360  17.535
 8689SOL     OW37694   0.340   3.257  17.929
 8689SOL    HW137695   0.334   3.302  18.013
 8689SOL    HW237696   0.407   3.307  17.881
 8690SOL     OW37697   4.461   4.018  16.526
 8690SOL    HW137698   4.443   4.109  16.503
 8690SOL    HW237699   4.505   3.982  16.448
 8691SOL     OW37700   4.374   3.998  16.792
 8691SOL    HW137701   4.314   4.072  16.782
 8691SOL    HW237702   4.410   3.984  16.705
 8692SOL     OW37703   3.676   0.167  26.534
 8692SOL    HW137704   3.616   0.162  26.608
 8692SOL    HW237705   3.735   0.239  26.555
 8693SOL     OW37706   2.483   4.749  26.574
 8693SOL    HW137707   2.425   4.708  26.510
 8693SOL    HW237708   2.441   0.049  26.597
 8694SOL     OW37709   1.627   4.197  18.267
 8694SOL    HW137710   1.554   4.174  18.211
 8694SOL    HW237711   1.602   4.280  18.308
 8695SOL     OW37712   1.499   0.936  16.181
 8695SOL    HW137713   1.514   1.020  16.137
 8695SOL    HW237714   1.543   0.871  16.127
 8696SOL     OW37715   4.613   3.746  20.320
 8696SOL    HW137716   4.666   3.768  20.396
 8696SOL    HW237717   4.620   3.823  20.263
 8697SOL     OW37718   4.757   1.613  14.830
 8697SOL    HW137719   4.712   1.687  14.788
 8697SOL    HW237720   4.754   1.543  14.765
 8698SOL     OW37721   3.541   3.163  15.967
 8698SOL    HW137722   3.635   3.156  15.982
 8698SOL    HW237723   3.514   3.075  15.941
 8699SOL     OW37724   4.756   3.049  17.951
 8699SOL    HW137725   0.030   3.050  18.028
 8699SOL    HW237726   4.678   3.097  17.978
 8700SOL     OW37727   3.214   4.735  21.790
 8700SOL    HW137728   3.139   4.743  21.732
 8700SOL    HW237729   3.263   0.034  21.778
 8701SOL     OW37730   1.132   3.765  17.139
 8701SOL    HW137731   1.153   3.680  17.101
 8701SOL    HW237732   1.151   3.828  17.069
 8702SOL     OW37733   4.281   0.450  16.810
 8702SOL    HW137734   4.342   0.423  16.880
 8702SOL    HW237735   4.335   0.451  16.731
 8703SOL     OW37736   4.687   2.453   9.190
 8703SOL    HW137737   4.602   2.411   9.203
 8703SOL    HW237738   4.750   2.381   9.189
 8704SOL     OW37739   2.468   0.067   1.501
 8704SOL    HW137740   2.457   4.779   1.564
 8704SOL    HW237741   2.534   0.124   1.540
 8705SOL     OW37742   0.053   0.876  21.641
 8705SOL    HW137743   0.082   0.950  21.694
 8705SOL    HW237744   0.034   0.807  21.705
 8706SOL     OW37745   1.322   3.293  17.122
 8706SOL    HW137746   1.391   3.273  17.185
 8706SOL    HW237747   1.255   3.227  17.139
 8707SOL     OW37748   3.456   1.748  21.739
 8707SOL    HW137749   3.546   1.718  21.753
 8707SOL    HW237750   3.453   1.835  21.778
 8708SOL     OW37751   0.369   1.843  18.335
 8708SOL    HW137752   0.353   1.793  18.254
 8708SOL    HW237753   0.333   1.930  18.317
 8709SOL     OW37754   2.182   0.872  16.878
 8709SOL    HW137755   2.272   0.846  16.862
 8709SOL    HW237756   2.171   0.865  16.973
 8710SOL     OW37757   0.188   3.602  18.660
 8710SOL    HW137758   0.174   3.635  18.572
 8710SOL    HW237759   0.104   3.616  18.704
 8711SOL     OW37760   3.376   3.981  16.736
 8711SOL    HW137761   3.407   4.054  16.682
 8711SOL    HW237762   3.450   3.959  16.793
 8712SOL     OW37763   2.951   2.582  18.100
 8712SOL    HW137764   2.885   2.518  18.126
 8712SOL    HW237765   2.956   2.573  18.005
 8713SOL     OW37766   2.201   1.812   0.477
 8713SOL    HW137767   2.203   1.862   0.395
 8713SOL    HW237768   2.127   1.752   0.467
 8714SOL     OW37769   1.806   1.006  15.624
 8714SOL    HW137770   1.893   0.978  15.593
 8714SOL    HW237771   1.765   1.045  15.548
 8715SOL     OW37772   3.724   3.468  27.537
 8715SOL    HW137773   3.637   3.450  27.501
 8715SOL    HW237774   3.734   3.563  27.529
 8716SOL     OW37775   4.245   2.898  26.848
 8716SOL    HW137776   4.230   2.868  26.759
 8716SOL    HW237777   4.291   2.981  26.838
 8717SOL     OW37778   2.960   4.303  16.439
 8717SOL    HW137779   2.901   4.229  16.422
 8717SOL    HW237780   2.948   4.323  16.531
 8718SOL     OW37781   1.204   2.151  20.491
 8718SOL    HW137782   1.199   2.246  20.502
 8718SOL    HW237783   1.121   2.119  20.526
 8719SOL     OW37784   2.345   3.574  21.456
 8719SOL    HW137785   2.279   3.528  21.405
 8719SOL    HW237786   2.314   3.665  21.459
 8720SOL     OW37787   3.866   1.620  16.376
 8720SOL    HW137788   3.799   1.622  16.307
 8720SOL    HW237789   3.895   1.529  16.377
 8721SOL     OW37790   4.126   2.023  14.703
 8721SOL    HW137791   4.112   2.066  14.619
 8721SOL    HW237792   4.071   2.071  14.764
 8722SOL     OW37793   4.056   0.328  25.281
 8722SOL    HW137794   4.001   0.279  25.220
 8722SOL    HW237795   4.144   0.322  25.245
 8723SOL     OW37796   4.709   3.772  16.994
 8723SOL    HW137797   4.691   3.865  16.977
 8723SOL    HW237798   4.738   3.737  16.910
 8724SOL     OW37799   1.829   1.557   1.166
 8724SOL    HW137800   1.753   1.586   1.116
 8724SOL    HW237801   1.801   1.474   1.206
 8725SOL     OW37802   2.340   3.814   0.985
 8725SOL    HW137803   2.357   3.746   1.050
 8725SOL    HW237804   2.420   3.817   0.932
 8726SOL     OW37805   3.301   0.084  17.092
 8726SOL    HW137806   3.232   0.037  17.140
 8726SOL    HW237807   3.254   0.146  17.037
 8727SOL     OW37808   0.076   0.119   4.871
 8727SOL    HW137809   0.057   0.033   4.833
 8727SOL    HW237810   4.775   0.164   4.871
 8728SOL     OW37811   1.701   1.895  16.650
 8728SOL    HW137812   1.695   1.878  16.556
 8728SOL    HW237813   1.795   1.907  16.667
 8729SOL     OW37814   1.990   3.627  21.692
 8729SOL    HW137815   2.063   3.582  21.735
 8729SOL    HW237816   2.028   3.705  21.653
 8730SOL     OW37817   0.695   1.603  19.764
 8730SOL    HW137818   0.734   1.596  19.677
 8730SOL    HW237819   0.752   1.551  19.821
 8731SOL     OW37820   3.380   1.609  17.788
 8731SOL    HW137821   3.380   1.514  17.788
 8731SOL    HW237822   3.469   1.633  17.761
 8732SOL     OW37823   3.307   0.763  16.156
 8732SOL    HW137824   3.352   0.846  16.135
 8732SOL    HW237825   3.302   0.763  16.252
 8733SOL     OW37826   1.858   1.466  16.601
 8733SOL    HW137827   1.769   1.433  16.602
 8733SOL    HW237828   1.913   1.388  16.601
 8734SOL     OW37829   2.704   2.255   3.250
 8734SOL    HW137830   2.715   2.160   3.250
 8734SOL    HW237831   2.681   2.277   3.160
 8735SOL     OW37832   4.135   3.195  16.189
 8735SOL    HW137833   4.151   3.241  16.107
 8735SOL    HW237834   4.192   3.118  16.185
 8736SOL     OW37835   4.066   0.695  18.202
 8736SOL    HW137836   4.122   0.685  18.125
 8736SOL    HW237837   4.106   0.638  18.268
 8737SOL     OW37838   1.940   3.150  15.448
 8737SOL    HW137839   1.919   3.086  15.516
 8737SOL    HW237840   2.020   3.117  15.407
 8738SOL     OW37841   1.652   4.003  25.883
 8738SOL    HW137842   1.736   4.036  25.851
 8738SOL    HW237843   1.670   3.971  25.971
 8739SOL     OW37844   0.844   4.756  23.733
 8739SOL    HW137845   0.876   4.708  23.809
 8739SOL    HW237846   0.879   0.062  23.745
 8740SOL     OW37847   1.814   3.900  26.983
 8740SOL    HW137848   1.762   3.821  26.973
 8740SOL    HW237849   1.750   3.969  27.000
 8741SOL     OW37850   2.400   3.467  25.836
 8741SOL    HW137851   2.397   3.423  25.752
 8741SOL    HW237852   2.356   3.406  25.896
 8742SOL     OW37853   1.528   2.985   5.301
 8742SOL    HW137854   1.526   3.045   5.375
 8742SOL    HW237855   1.498   3.037   5.227
 8743SOL     OW37856   3.013   0.718  21.910
 8743SOL    HW137857   3.000   0.658  21.837
 8743SOL    HW237858   2.924   0.738  21.941
 8744SOL     OW37859   4.136   3.837   5.955
 8744SOL    HW137860   4.097   3.777   5.891
 8744SOL    HW237861   4.210   3.877   5.909
 8745SOL     OW37862   2.934   0.900   2.016
 8745SOL    HW137863   2.991   0.864   2.083
 8745SOL    HW237864   2.911   0.987   2.049
 8746SOL     OW37865   0.652   2.596  27.983
 8746SOL    HW137866   0.677   2.674  28.032
 8746SOL    HW237867   0.732   2.543  27.979
 8747SOL     OW37868   3.846   3.618   6.260
 8747SOL    HW137869   3.859   3.691   6.199
 8747SOL    HW237870   3.837   3.660   6.346
 8748SOL     OW37871   3.259   1.202   1.788
 8748SOL    HW137872   3.234   1.265   1.855
 8748SOL    HW237873   3.302   1.132   1.836
 8749SOL     OW37874   2.870   0.216  27.190
 8749SOL    HW137875   2.858   0.124  27.216
 8749SOL    HW237876   2.804   0.231  27.122
 8750SOL     OW37877   4.354   3.624  26.310
 8750SOL    HW137878   4.289   3.634  26.240
 8750SOL    HW237879   4.407   3.704  26.305
 8751SOL     OW37880   2.299   2.804  21.765
 8751SOL    HW137881   2.247   2.828  21.688
 8751SOL    HW237882   2.379   2.855  21.757
 8752SOL     OW37883   0.524   3.861   3.471
 8752SOL    HW137884   0.582   3.801   3.518
 8752SOL    HW237885   0.581   3.904   3.407
 8753SOL     OW37886   3.561   0.953   5.739
 8753SOL    HW137887   3.533   0.972   5.829
 8753SOL    HW237888   3.497   0.998   5.684
 8754SOL     OW37889   1.601   1.979   7.957
 8754SOL    HW137890   1.670   2.025   7.910
 8754SOL    HW237891   1.647   1.916   8.012
 8755SOL     OW37892   0.903   0.209   6.039
 8755SOL    HW137893   0.966   0.165   6.096
 8755SOL    HW237894   0.828   0.227   6.096
 8756SOL     OW37895   0.926   1.629  24.010
 8756SOL    HW137896   0.875   1.548  24.011
 8756SOL    HW237897   0.890   1.679  23.937
 8757SOL     OW37898   0.059   2.797  21.817
 8757SOL    HW137899   0.005   2.718  21.815
 8757SOL    HW237900   0.098   2.797  21.905
 8758SOL     OW37901   4.781   2.468  18.415
 8758SOL    HW137902   0.053   2.530  18.464
 8758SOL    HW237903   4.764   2.397  18.477
 8759SOL     OW37904   4.766   1.568   8.361
 8759SOL    HW137905   0.020   1.645   8.404
 8759SOL    HW237906   4.673   1.571   8.381
 8760SOL     OW37907   0.716   0.282  22.929
 8760SOL    HW137908   0.695   0.357  22.873
 8760SOL    HW237909   0.791   0.311  22.981
 8761SOL     OW37910   4.245   0.162  17.586
 8761SOL    HW137911   4.298   0.113  17.523
 8761SOL    HW237912   4.162   0.114  17.589
 8762SOL     OW37913   1.236   1.699   0.354
 8762SOL    HW137914   1.181   1.659   0.287
 8762SOL    HW237915   1.185   1.691   0.434
 8763SOL     OW37916   0.780   3.507  20.636
 8763SOL    HW137917   0.795   3.597  20.666
 8763SOL    HW237918   0.852   3.457  20.673
 8764SOL     OW37919   4.522   1.453   7.637
 8764SOL    HW137920   4.597   1.504   7.666
 8764SOL    HW237921   4.536   1.366   7.674
 8765SOL     OW37922   1.262   1.166  19.387
 8765SOL    HW137923   1.278   1.212  19.469
 8765SOL    HW237924   1.350   1.153  19.350
 8766SOL     OW37925   4.314   1.930   2.324
 8766SOL    HW137926   4.360   1.883   2.255
 8766SOL    HW237927   4.345   1.890   2.406
 8767SOL     OW37928   2.795   2.973   3.118
 8767SOL    HW137929   2.793   2.972   3.214
 8767SOL    HW237930   2.705   2.957   3.092
 8768SOL     OW37931   4.466   2.583   1.133
 8768SOL    HW137932   4.529   2.538   1.077
 8768SOL    HW237933   4.408   2.629   1.072
 8769SOL     OW37934   1.038   3.083   0.949
 8769SOL    HW137935   1.030   3.171   0.911
 8769SOL    HW237936   1.044   3.098   1.043
 8770SOL     OW37937   4.327   3.583  18.736
 8770SOL    HW137938   4.408   3.531  18.734
 8770SOL    HW237939   4.259   3.523  18.706
 8771SOL     OW37940   3.740   2.911   3.317
 8771SOL    HW137941   3.805   2.903   3.387
 8771SOL    HW237942   3.701   2.824   3.310
 8772SOL     OW37943   3.405   0.838  21.223
 8772SOL    HW137944   3.376   0.749  21.206
 8772SOL    HW237945   3.329   0.882  21.262
 8773SOL     OW37946   2.119   3.817  26.378
 8773SOL    HW137947   2.172   3.769  26.441
 8773SOL    HW237948   2.081   3.889  26.429
 8774SOL     OW37949   3.484   3.378   2.424
 8774SOL    HW137950   3.558   3.437   2.414
 8774SOL    HW237951   3.521   3.300   2.467
 8775SOL     OW37952   0.895   0.893   4.076
 8775SOL    HW137953   0.876   0.830   4.145
 8775SOL    HW237954   0.926   0.971   4.122
 8776SOL     OW37955   0.800   3.807  21.084
 8776SOL    HW137956   0.870   3.770  21.031
 8776SOL    HW237957   0.779   3.890  21.042
 8777SOL     OW37958   4.296   2.397   6.919
 8777SOL    HW137959   4.380   2.440   6.935
 8777SOL    HW237960   4.251   2.401   7.003
 8778SOL     OW37961   1.589   1.291  15.588
 8778SOL    HW137962   1.498   1.268  15.570
 8778SOL    HW237963   1.637   1.260  15.511
 8779SOL     OW37964   3.297   3.084   6.342
 8779SOL    HW137965   3.354   3.160   6.347
 8779SOL    HW237966   3.293   3.051   6.432
 8780SOL     OW37967   3.612   0.951  18.516
 8780SOL    HW137968   3.624   0.915  18.428
 8780SOL    HW237969   3.577   0.878  18.567
 8781SOL     OW37970   0.950   3.847   8.173
 8781SOL    HW137971   1.020   3.892   8.127
 8781SOL    HW237972   0.906   3.795   8.106
 8782SOL     OW37973   2.053   0.720   9.738
 8782SOL    HW137974   2.048   0.813   9.715
 8782SOL    HW237975   1.971   0.701   9.782
 8783SOL     OW37976   2.980   2.242  23.501
 8783SOL    HW137977   2.930   2.282  23.573
 8783SOL    HW237978   3.072   2.256  23.525
 8784SOL     OW37979   2.571   0.292   0.608
 8784SOL    HW137980   2.490   0.331   0.572
 8784SOL    HW237981   2.548   0.267   0.697
 8785SOL     OW37982   4.689   3.882  27.444
 8785SOL    HW137983   4.697   3.952  27.510
 8785SOL    HW237984   4.686   3.802  27.496
 8786SOL     OW37985   1.671   1.635  27.728
 8786SOL    HW137986   1.616   1.618  27.805
 8786SOL    HW237987   1.756   1.597  27.751
 8787SOL     OW37988   4.636   0.490   2.798
 8787SOL    HW137989   4.627   0.521   2.708
 8787SOL    HW237990   4.627   0.395   2.792
 8788SOL     OW37991   4.326   3.220   9.967
 8788SOL    HW137992   4.259   3.265   9.914
 8788SOL    HW237993   4.336   3.275  10.044
 8789SOL     OW37994   1.630   1.652  19.229
 8789SOL    HW137995   1.596   1.562  19.233
 8789SOL    HW237996   1.645   1.676  19.320
 8790SOL     OW37997   4.159   3.111  27.795
 8790SOL    HW137998   4.115   3.143  27.716
 8790SOL    HW237999   4.231   3.173  27.809
 8791SOL     OW38000   0.271   0.990  27.376
 8791SOL    HW138001   0.257   0.896  27.362
 8791SOL    HW238002   0.188   1.022  27.409
 8792SOL     OW38003   3.137   3.850   5.428
 8792SOL    HW138004   3.073   3.915   5.459
 8792SOL    HW238005   3.098   3.766   5.452
 8793SOL     OW38006   4.502   2.978   8.222
 8793SOL    HW138007   4.564   3.046   8.197
 8793SOL    HW238008   4.520   2.906   8.162
 8794SOL     OW38009   3.240   1.430   9.588
 8794SOL    HW138010   3.209   1.341   9.608
 8794SOL    HW238011   3.208   1.483   9.660
 8795SOL     OW38012   2.673   0.517  11.396
 8795SOL    HW138013   2.725   0.473  11.464
 8795SOL    HW238014   2.713   0.603  11.388
 8796SOL     OW38015   1.263   3.259   1.412
 8796SOL    HW138016   1.231   3.328   1.354
 8796SOL    HW238017   1.222   3.277   1.497
 8797SOL     OW38018   2.193   3.123   9.752
 8797SOL    HW138019   2.220   3.109   9.661
 8797SOL    HW238020   2.192   3.218   9.762
 8798SOL     OW38021   1.040   1.429  20.609
 8798SOL    HW138022   1.112   1.444  20.670
 8798SOL    HW238023   1.052   1.495  20.541
 8799SOL     OW38024   3.687   4.360   4.027
 8799SOL    HW138025   3.731   4.405   4.099
 8799SOL    HW238026   3.608   4.323   4.066
 8800SOL     OW38027   0.491   4.098  28.243
 8800SOL    HW138028   0.478   4.136  28.156
 8800SOL    HW238029   0.491   4.173  28.302
 8801SOL     OW38030   4.367   0.620  27.479
 8801SOL    HW138031   4.356   0.549  27.415
 8801SOL    HW238032   4.410   0.690  27.430
 8802SOL     OW38033   4.583   2.864   6.103
 8802SOL    HW138034   4.557   2.822   6.185
 8802SOL    HW238035   4.659   2.918   6.126
 8803SOL     OW38036   3.321   2.577   4.210
 8803SOL    HW138037   3.368   2.660   4.213
 8803SOL    HW238038   3.233   2.600   4.180
 8804SOL     OW38039   3.472   4.410   6.948
 8804SOL    HW138040   3.455   4.333   7.002
 8804SOL    HW238041   3.403   4.409   6.882
 8805SOL     OW38042   1.540   2.197  25.028
 8805SOL    HW138043   1.514   2.106  25.013
 8805SOL    HW238044   1.623   2.191  25.075
 8806SOL     OW38045   0.839   1.679   4.166
 8806SOL    HW138046   0.782   1.607   4.192
 8806SOL    HW238047   0.926   1.654   4.196
 8807SOL     OW38048   3.077   0.411   0.329
 8807SOL    HW138049   2.983   0.392   0.335
 8807SOL    HW238050   3.115   0.367   0.405
 8808SOL     OW38051   3.846   0.944   0.733
 8808SOL    HW138052   3.775   0.890   0.767
 8808SOL    HW238053   3.805   1.026   0.706
 8809SOL     OW38054   4.207   1.503  18.592
 8809SOL    HW138055   4.118   1.519  18.623
 8809SOL    HW238056   4.213   1.551  18.510
 8810SOL     OW38057   2.696   3.086   1.944
 8810SOL    HW138058   2.669   3.162   1.893
 8810SOL    HW238059   2.748   3.034   1.882
 8811SOL     OW38060   2.891   1.147   0.054
 8811SOL    HW138061   2.830   1.198   0.107
 8811SOL    HW238062   2.835   1.101  28.522
 8812SOL     OW38063   0.467   0.867   8.303
 8812SOL    HW138064   0.521   0.893   8.228
 8812SOL    HW238065   0.377   0.881   8.274
 8813SOL     OW38066   1.916   3.285  10.305
 8813SOL    HW138067   1.826   3.281  10.336
 8813SOL    HW238068   1.935   3.196  10.275
 8814SOL     OW38069   0.014   0.438  11.122
 8814SOL    HW138070   0.029   0.425  11.216
 8814SOL    HW238071   0.077   0.506  11.097
 8815SOL     OW38072   4.016   2.376  28.414
 8815SOL    HW138073   4.067   2.385  28.494
 8815SOL    HW238074   3.973   2.461  28.403
 8816SOL     OW38075   1.070   0.471  22.178
 8816SOL    HW138076   1.004   0.444  22.115
 8816SOL    HW238077   1.094   0.560  22.151
 8817SOL     OW38078   3.671   3.223  21.890
 8817SOL    HW138079   3.672   3.129  21.911
 8817SOL    HW238080   3.692   3.227  21.797
 8818SOL     OW38081   3.967   0.290  28.011
 8818SOL    HW138082   4.027   0.226  27.972
 8818SOL    HW238083   3.921   0.241  28.079
 8819SOL     OW38084   1.575   4.164  15.235
 8819SOL    HW138085   1.588   4.076  15.200
 8819SOL    HW238086   1.572   4.153  15.330
 8820SOL     OW38087   2.328   0.495   3.674
 8820SOL    HW138088   2.303   0.547   3.751
 8820SOL    HW238089   2.255   0.505   3.613
 8821SOL     OW38090   1.217   1.937  27.009
 8821SOL    HW138091   1.270   1.956  27.086
 8821SOL    HW238092   1.280   1.924  26.938
 8822SOL     OW38093   4.736   4.595  27.274
 8822SOL    HW138094   4.694   4.680  27.285
 8822SOL    HW238095   4.759   4.568  27.363
 8823SOL     OW38096   1.288   4.104   1.103
 8823SOL    HW138097   1.312   4.026   1.052
 8823SOL    HW238098   1.207   4.134   1.062
 8824SOL     OW38099   2.791   3.009  24.001
 8824SOL    HW138100   2.763   2.929  24.046
 8824SOL    HW238101   2.791   3.076  24.070
 8825SOL     OW38102   0.473   2.805   2.172
 8825SOL    HW138103   0.395   2.856   2.196
 8825SOL    HW238104   0.454   2.716   2.204
 8826SOL     OW38105   4.416   2.224  23.714
 8826SOL    HW138106   4.378   2.136  23.707
 8826SOL    HW238107   4.378   2.272  23.641
 8827SOL     OW38108   4.037   2.232   5.398
 8827SOL    HW138109   4.014   2.323   5.381
 8827SOL    HW238110   4.132   2.233   5.413
 8828SOL     OW38111   1.901   1.876   8.330
 8828SOL    HW138112   1.820   1.926   8.316
 8828SOL    HW238113   1.971   1.939   8.313
 8829SOL     OW38114   1.760   4.392   5.664
 8829SOL    HW138115   1.732   4.312   5.618
 8829SOL    HW238116   1.679   4.441   5.678
 8830SOL     OW38117   2.645   0.468   4.901
 8830SOL    HW138118   2.623   0.481   4.994
 8830SOL    HW238119   2.618   0.378   4.883
 8831SOL     OW38120   1.571   1.281  21.299
 8831SOL    HW138121   1.553   1.226  21.375
 8831SOL    HW238122   1.506   1.255  21.234
 8832SOL     OW38123   2.043   1.128   7.249
 8832SOL    HW138124   2.030   1.039   7.217
 8832SOL    HW238125   2.104   1.168   7.188
 8833SOL     OW38126   0.465   3.109   5.434
 8833SOL    HW138127   0.555   3.119   5.402
 8833SOL    HW238128   0.416   3.179   5.392
 8834SOL     OW38129   1.027   0.174  21.852
 8834SOL    HW138130   1.015   0.266  21.831
 8834SOL    HW238131   1.067   0.137  21.773
 8835SOL     OW38132   0.689   2.888  27.396
 8835SOL    HW138133   0.651   2.963  27.442
 8835SOL    HW238134   0.773   2.874  27.439
 8836SOL     OW38135   1.703   4.658   3.790
 8836SOL    HW138136   1.661   4.582   3.751
 8836SOL    HW238137   1.673   4.658   3.881
 8837SOL     OW38138   1.116   2.415  20.871
 8837SOL    HW138139   1.048   2.456  20.924
 8837SOL    HW238140   1.111   2.462  20.787
 8838SOL     OW38141   1.393   2.592   3.075
 8838SOL    HW138142   1.309   2.569   3.035
 8838SOL    HW238143   1.439   2.642   3.008
 8839SOL     OW38144   3.029   2.511  27.210
 8839SOL    HW138145   3.045   2.537  27.119
 8839SOL    HW238146   2.983   2.586  27.248
 8840SOL     OW38147   2.133   3.955  25.932
 8840SOL    HW138148   2.090   3.922  26.011
 8840SOL    HW238149   2.063   3.999  25.884
 8841SOL     OW38150   2.321   4.221  22.310
 8841SOL    HW138151   2.365   4.287  22.363
 8841SOL    HW238152   2.383   4.149  22.306
 8842SOL     OW38153   2.918   2.356   6.371
 8842SOL    HW138154   2.846   2.389   6.318
 8842SOL    HW238155   2.995   2.363   6.315
 8843SOL     OW38156   4.754   2.867  16.906
 8843SOL    HW138157   4.736   2.942  16.850
 8843SOL    HW238158   0.061   2.842  16.885
 8844SOL     OW38159   3.197   3.074   6.620
 8844SOL    HW138160   3.232   3.026   6.696
 8844SOL    HW238161   3.138   3.011   6.578
 8845SOL     OW38162   2.715   1.991   7.322
 8845SOL    HW138163   2.710   1.925   7.392
 8845SOL    HW238164   2.794   1.967   7.273
 8846SOL     OW38165   2.275   3.127  25.804
 8846SOL    HW138166   2.224   3.194  25.759
 8846SOL    HW238167   2.211   3.081  25.859
 8847SOL     OW38168   0.125   1.244   2.668
 8847SOL    HW138169   0.070   1.262   2.744
 8847SOL    HW238170   0.063   1.225   2.597
 8848SOL     OW38171   4.393   0.079   5.206
 8848SOL    HW138172   4.386   0.167   5.170
 8848SOL    HW238173   4.443   0.029   5.141
 8849SOL     OW38174   0.227   0.498  17.438
 8849SOL    HW138175   0.259   0.578  17.397
 8849SOL    HW238176   0.306   0.456  17.472
 8850SOL     OW38177   1.861   0.004   6.118
 8850SOL    HW138178   1.812   0.017   6.199
 8850SOL    HW238179   1.899   4.699   6.127
 8851SOL     OW38180   4.316   0.626   0.613
 8851SOL    HW138181   4.234   0.579   0.599
 8851SOL    HW238182   4.344   0.599   0.701
 8852SOL     OW38183   3.849   3.328   4.482
 8852SOL    HW138184   3.776   3.267   4.479
 8852SOL    HW238185   3.826   3.390   4.552
 8853SOL     OW38186   0.436   4.731  26.479
 8853SOL    HW138187   0.460   0.036  26.509
 8853SOL    HW238188   0.341   4.732  26.474
 8854SOL     OW38189   2.448   4.412   1.145
 8854SOL    HW138190   2.514   4.361   1.192
 8854SOL    HW238191   2.436   4.491   1.198
 8855SOL     OW38192   1.379   1.779   5.845
 8855SOL    HW138193   1.429   1.712   5.891
 8855SOL    HW238194   1.364   1.848   5.910
 8856SOL     OW38195   3.211   1.460   3.626
 8856SOL    HW138196   3.202   1.525   3.556
 8856SOL    HW238197   3.283   1.493   3.679
 8857SOL     OW38198   2.591   4.149  26.425
 8857SOL    HW138199   2.537   4.124  26.350
 8857SOL    HW238200   2.665   4.197  26.387
 8858SOL     OW38201   0.375   3.059  25.457
 8858SOL    HW138202   0.389   2.977  25.503
 8858SOL    HW238203   0.363   3.034  25.366
 8859SOL     OW38204   4.214   3.049   5.059
 8859SOL    HW138205   4.176   3.098   5.131
 8859SOL    HW238206   4.302   3.027   5.090
 8860SOL     OW38207   0.124   0.226  27.010
 8860SOL    HW138208   0.215   0.241  27.033
 8860SOL    HW238209   0.127   0.197  26.919
 8861SOL     OW38210   3.382   3.616  15.876
 8861SOL    HW138211   3.462   3.570  15.900
 8861SOL    HW238212   3.395   3.706  15.906
 8862SOL     OW38213   0.034   2.258   7.210
 8862SOL    HW138214   0.026   2.179   7.263
 8862SOL    HW238215   0.015   2.230   7.121
 8863SOL     OW38216   2.270   3.324   1.217
 8863SOL    HW138217   2.186   3.283   1.195
 8863SOL    HW238218   2.334   3.275   1.166
 8864SOL     OW38219   3.748   1.708  20.326
 8864SOL    HW138220   3.702   1.691  20.408
 8864SOL    HW238221   3.786   1.795  20.337
 8865SOL     OW38222   3.982   4.007   7.035
 8865SOL    HW138223   4.032   3.939   6.990
 8865SOL    HW238224   3.892   3.995   7.003
 8866SOL     OW38225   2.555   4.002  28.132
 8866SOL    HW138226   2.594   3.915  28.131
 8866SOL    HW238227   2.479   3.994  28.190
 8867SOL     OW38228   1.863   4.163   2.200
 8867SOL    HW138229   1.800   4.094   2.179
 8867SOL    HW238230   1.948   4.119   2.204
 8868SOL     OW38231   2.201   3.029   1.734
 8868SOL    HW138232   2.185   3.118   1.764
 8868SOL    HW238233   2.249   2.987   1.806
 8869SOL     OW38234   1.472   0.707   4.022
 8869SOL    HW138235   1.418   0.628   4.022
 8869SOL    HW238236   1.419   0.772   4.069
 8870SOL     OW38237   0.137   4.066  25.605
 8870SOL    HW138238   0.116   3.987  25.556
 8870SOL    HW238239   0.102   4.050  25.693
 8871SOL     OW38240   1.500   0.775   3.651
 8871SOL    HW138241   1.427   0.834   3.635
 8871SOL    HW238242   1.518   0.736   3.565
 8872SOL     OW38243   3.321   1.909   6.490
 8872SOL    HW138244   3.231   1.932   6.512
 8872SOL    HW238245   3.319   1.889   6.396
 8873SOL     OW38246   4.447   2.041  20.738
 8873SOL    HW138247   4.456   1.947  20.755
 8873SOL    HW238248   4.380   2.070  20.800
 8874SOL     OW38249   0.157   0.778  10.063
 8874SOL    HW138250   0.164   0.844   9.994
 8874SOL    HW238251   0.176   0.695  10.019
 8875SOL     OW38252   0.002   3.246   6.397
 8875SOL    HW138253   4.756   3.187   6.467
 8875SOL    HW238254   0.094   3.262   6.414
 8876SOL     OW38255   3.497   3.166   7.698
 8876SOL    HW138256   3.465   3.188   7.785
 8876SOL    HW238257   3.434   3.100   7.666
 8877SOL     OW38258   0.872   3.909   6.556
 8877SOL    HW138259   0.943   3.917   6.493
 8877SOL    HW238260   0.877   3.819   6.587
 8878SOL     OW38261   2.846   0.015   0.604
 8878SOL    HW138262   2.881   0.097   0.638
 8878SOL    HW238263   2.922   4.750   0.571
 8879SOL     OW38264   2.162   2.042  16.608
 8879SOL    HW138265   2.138   2.048  16.516
 8879SOL    HW238266   2.080   2.023  16.653
 8880SOL     OW38267   2.970   1.467   2.521
 8880SOL    HW138268   2.889   1.438   2.480
 8880SOL    HW238269   3.038   1.416   2.479
 8881SOL     OW38270   3.727   1.646   9.717
 8881SOL    HW138271   3.751   1.697   9.794
 8881SOL    HW238272   3.698   1.562   9.752
 8882SOL     OW38273   1.983   4.211   4.964
 8882SOL    HW138274   2.060   4.188   4.912
 8882SOL    HW238275   2.005   4.297   5.002
 8883SOL     OW38276   0.622   1.541   5.060
 8883SOL    HW138277   0.679   1.470   5.092
 8883SOL    HW238278   0.570   1.500   4.991
 8884SOL     OW38279   4.738   3.098   2.254
 8884SOL    HW138280   4.774   3.118   2.168
 8884SOL    HW238281   0.009   3.026   2.287
 8885SOL     OW38282   4.233   4.623   9.521
 8885SOL    HW138283   4.312   4.673   9.537
 8885SOL    HW238284   4.249   4.579   9.438
 8886SOL     OW38285   1.457   1.999  26.620
 8886SOL    HW138286   1.539   1.965  26.585
 8886SOL    HW238287   1.432   1.937  26.688
 8887SOL     OW38288   1.795   4.564   9.497
 8887SOL    HW138289   1.803   4.624   9.423
 8887SOL    HW238290   1.856   4.599   9.562
 8888SOL     OW38291   2.506   4.485   3.459
 8888SOL    HW138292   2.467   4.547   3.520
 8888SOL    HW238293   2.494   4.400   3.501
 8889SOL     OW38294   2.443   4.055  23.997
 8889SOL    HW138295   2.450   4.045  23.902
 8889SOL    HW238296   2.534   4.064  24.026
 8890SOL     OW38297   1.275   4.427  24.044
 8890SOL    HW138298   1.277   4.493  23.975
 8890SOL    HW238299   1.310   4.472  24.121
 8891SOL     OW38300   2.388   1.856  23.450
 8891SOL    HW138301   2.453   1.884  23.514
 8891SOL    HW238302   2.313   1.913  23.466
 8892SOL     OW38303   2.382   0.240   6.066
 8892SOL    HW138304   2.440   0.304   6.107
 8892SOL    HW238305   2.394   0.160   6.117
 8893SOL     OW38306   4.755   1.869  26.768
 8893SOL    HW138307   0.049   1.840  26.818
 8893SOL    HW238308   4.745   1.803  26.700
 8894SOL     OW38309   1.966   0.439  20.409
 8894SOL    HW138310   1.904   0.407  20.342
 8894SOL    HW238311   1.981   0.530  20.385
 8895SOL     OW38312   2.739   0.976   5.768
 8895SOL    HW138313   2.814   0.917   5.770
 8895SOL    HW238314   2.671   0.929   5.817
 8896SOL     OW38315   2.757   4.768  21.807
 8896SOL    HW138316   2.785   4.711  21.736
 8896SOL    HW238317   2.663   4.752  21.815
 8897SOL     OW38318   3.830   0.965  18.045
 8897SOL    HW138319   3.792   0.967  17.957
 8897SOL    HW238320   3.904   1.025  18.040
 8898SOL     OW38321   2.556   0.471  26.678
 8898SOL    HW138322   2.617   0.489  26.750
 8898SOL    HW238323   2.597   0.401  26.628
 8899SOL     OW38324   0.726   1.696   0.468
 8899SOL    HW138325   0.808   1.703   0.419
 8899SOL    HW238326   0.670   1.764   0.431
 8900SOL     OW38327   2.409   2.360  20.662
 8900SOL    HW138328   2.366   2.311  20.732
 8900SOL    HW238329   2.460   2.427  20.709
 8901SOL     OW38330   0.151   0.183  11.543
 8901SOL    HW138331   0.207   0.240  11.595
 8901SOL    HW238332   0.118   0.118  11.605
 8902SOL     OW38333   1.418   1.973  19.958
 8902SOL    HW138334   1.377   1.912  20.018
 8902SOL    HW238335   1.352   2.041  19.944
 8903SOL     OW38336   1.434   1.873  25.096
 8903SOL    HW138337   1.470   1.899  25.181
 8903SOL    HW238338   1.427   1.778  25.101
 8904SOL     OW38339   1.641   0.228   4.746
 8904SOL    HW138340   1.686   0.252   4.827
 8904SOL    HW238341   1.658   0.134   4.736
 8905SOL     OW38342   1.801   2.180  25.258
 8905SOL    HW138343   1.797   2.221  25.344
 8905SOL    HW238344   1.892   2.189  25.231
 8906SOL     OW38345   0.415   1.152   0.380
 8906SOL    HW138346   0.490   1.210   0.367
 8906SOL    HW238347   0.421   1.124   0.471
 8907SOL     OW38348   4.432   1.196  13.075
 8907SOL    HW138349   4.515   1.241  13.093
 8907SOL    HW238350   4.457   1.122  13.019
 8908SOL     OW38351   4.139   0.174  20.430
 8908SOL    HW138352   4.157   0.251  20.484
 8908SOL    HW238353   4.221   0.124  20.430
 8909SOL     OW38354   4.553   1.405   9.534
 8909SOL    HW138355   4.466   1.431   9.563
 8909SOL    HW238356   4.554   1.425   9.440
 8910SOL     OW38357   2.621   2.842  24.813
 8910SOL    HW138358   2.531   2.873  24.830
 8910SOL    HW238359   2.613   2.785  24.737
 8911SOL     OW38360   3.966   4.679   0.860
 8911SOL    HW138361   3.872   4.694   0.868
 8911SOL    HW238362   3.995   4.743   0.795
 8912SOL     OW38363   0.818   0.325  23.636
 8912SOL    HW138364   0.838   0.373  23.556
 8912SOL    HW238365   0.903   0.293  23.666
 8913SOL     OW38366   3.774   4.328  21.804
 8913SOL    HW138367   3.851   4.292  21.760
 8913SOL    HW238368   3.700   4.297  21.752
 8914SOL     OW38369   4.176   4.306   3.209
 8914SOL    HW138370   4.121   4.315   3.287
 8914SOL    HW238371   4.229   4.228   3.226
 8915SOL     OW38372   3.222   3.603   2.083
 8915SOL    HW138373   3.213   3.544   2.157
 8915SOL    HW238374   3.287   3.668   2.111
 8916SOL     OW38375   3.610   3.363  17.045
 8916SOL    HW138376   3.586   3.321  16.963
 8916SOL    HW238377   3.617   3.456  17.023
 8917SOL     OW38378   3.710   0.525  19.761
 8917SOL    HW138379   3.641   0.488  19.816
 8917SOL    HW238380   3.771   0.566  19.823
 8918SOL     OW38381   1.830   1.573   4.272
 8918SOL    HW138382   1.782   1.567   4.355
 8918SOL    HW238383   1.821   1.665   4.246
 8919SOL     OW38384   0.756   1.688   6.341
 8919SOL    HW138385   0.760   1.720   6.251
 8919SOL    HW238386   0.673   1.641   6.347
 8920SOL     OW38387   0.072   0.628  21.437
 8920SOL    HW138388   0.164   0.606  21.452
 8920SOL    HW238389   0.029   0.606  21.520
 8921SOL     OW38390   0.084   3.050  23.140
 8921SOL    HW138391   0.038   3.132  23.124
 8921SOL    HW238392   0.120   3.025  23.055
 8922SOL     OW38393   0.594   0.362  17.357
 8922SOL    HW138394   0.541   0.351  17.436
 8922SOL    HW238395   0.550   0.431  17.308
 8923SOL     OW38396   3.805   3.300  23.404
 8923SOL    HW138397   3.788   3.311  23.497
 8923SOL    HW238398   3.853   3.379  23.378
 8924SOL     OW38399   0.034   0.786   8.717
 8924SOL    HW138400   0.102   0.845   8.749
 8924SOL    HW238401   0.047   0.783   8.622
 8925SOL     OW38402   3.853   1.395  24.004
 8925SOL    HW138403   3.866   1.320  24.062
 8925SOL    HW238404   3.941   1.427  23.985
 8926SOL     OW38405   0.952   0.057  26.788
 8926SOL    HW138406   0.856   0.066  26.790
 8926SOL    HW238407   0.983   0.133  26.837
 8927SOL     OW38408   4.744   0.734   4.638
 8927SOL    HW138409   0.013   0.754   4.559
 8927SOL    HW238410   0.022   0.749   4.710
 8928SOL     OW38411   1.567   1.464  20.419
 8928SOL    HW138412   1.503   1.530  20.392
 8928SOL    HW238413   1.518   1.406  20.476
 8929SOL     OW38414   2.835   2.400  21.267
 8929SOL    HW138415   2.782   2.372  21.193
 8929SOL    HW238416   2.822   2.333  21.334
 8930SOL     OW38417   0.545   3.097  22.109
 8930SOL    HW138418   0.623   3.109  22.164
 8930SOL    HW238419   0.578   3.070  22.024
 8931SOL     OW38420   0.930   2.499  21.014
 8931SOL    HW138421   0.896   2.474  21.099
 8931SOL    HW238422   0.857   2.542  20.970
 8932SOL     OW38423   3.649   0.364   7.462
 8932SOL    HW138424   3.650   0.459   7.453
 8932SOL    HW238425   3.679   0.348   7.551
 8933SOL     OW38426   3.112   3.362   6.855
 8933SOL    HW138427   3.200   3.367   6.895
 8933SOL    HW238428   3.053   3.376   6.929
 8934SOL     OW38429   3.849   4.767  25.985
 8934SOL    HW138430   3.880   0.010  26.072
 8934SOL    HW238431   3.808   4.682  25.998
 8935SOL     OW38432   2.399   1.190   5.315
 8935SOL    HW138433   2.382   1.237   5.233
 8935SOL    HW238434   2.452   1.115   5.288
 8936SOL     OW38435   0.128   4.120   0.866
 8936SOL    HW138436   0.139   4.149   0.776
 8936SOL    HW238437   0.054   4.059   0.863
 8937SOL     OW38438   2.754   0.099  21.054
 8937SOL    HW138439   2.673   0.122  21.101
 8937SOL    HW238440   2.731   0.020  21.006
 8938SOL     OW38441   2.845   0.620  21.108
 8938SOL    HW138442   2.861   0.713  21.125
 8938SOL    HW238443   2.888   0.603  21.025
 8939SOL     OW38444   4.213   4.062   3.958
 8939SOL    HW138445   4.133   4.038   4.005
 8939SOL    HW238446   4.199   4.153   3.932
 8940SOL     OW38447   1.393   0.529  24.355
 8940SOL    HW138448   1.373   0.492  24.441
 8940SOL    HW238449   1.484   0.504  24.340
 8941SOL     OW38450   4.122   2.650  19.946
 8941SOL    HW138451   4.072   2.638  20.027
 8941SOL    HW238452   4.091   2.581  19.888
 8942SOL     OW38453   4.180   4.629   7.841
 8942SOL    HW138454   4.088   4.654   7.832
 8942SOL    HW238455   4.225   4.676   7.770
 8943SOL     OW38456   4.306   4.388  28.313
 8943SOL    HW138457   4.352   4.451  28.369
 8943SOL    HW238458   4.215   4.391  28.343
 8944SOL     OW38459   1.679   2.642  23.171
 8944SOL    HW138460   1.772   2.626  23.190
 8944SOL    HW238461   1.680   2.707  23.100
 8945SOL     OW38462   1.614   1.457  20.775
 8945SOL    HW138463   1.595   1.451  20.868
 8945SOL    HW238464   1.549   1.518  20.741
 8946SOL     OW38465   2.696   0.858   7.074
 8946SOL    HW138466   2.712   0.925   7.141
 8946SOL    HW238467   2.671   0.780   7.123
 8947SOL     OW38468   1.419   3.930   7.149
 8947SOL    HW138469   1.373   3.884   7.220
 8947SOL    HW238470   1.456   4.008   7.191
 8948SOL     OW38471   2.074   1.405  25.130
 8948SOL    HW138472   2.010   1.388  25.060
 8948SOL    HW238473   2.026   1.389  25.211
 8949SOL     OW38474   1.654   3.607  22.412
 8949SOL    HW138475   1.606   3.525  22.400
 8949SOL    HW238476   1.633   3.659  22.335
 8950SOL     OW38477   4.448   0.392  16.310
 8950SOL    HW138478   4.365   0.439  16.321
 8950SOL    HW238479   4.427   0.322  16.247
 8951SOL     OW38480   4.561   0.519  10.446
 8951SOL    HW138481   4.637   0.576  10.453
 8951SOL    HW238482   4.552   0.480  10.534
 8952SOL     OW38483   4.576   2.371   7.257
 8952SOL    HW138484   4.666   2.360   7.228
 8952SOL    HW238485   4.537   2.430   7.192
 8953SOL     OW38486   1.012   2.338   7.709
 8953SOL    HW138487   0.996   2.324   7.802
 8953SOL    HW238488   0.950   2.407   7.684
 8954SOL     OW38489   3.288   4.256   0.101
 8954SOL    HW138490   3.225   4.279   0.032
 8954SOL    HW238491   3.264   4.167   0.125
 8955SOL     OW38492   2.162   0.972  23.104
 8955SOL    HW138493   2.069   0.980  23.125
 8955SOL    HW238494   2.178   0.878  23.099
 8956SOL     OW38495   3.146   4.680  24.546
 8956SOL    HW138496   3.178   4.750  24.490
 8956SOL    HW238497   3.088   4.629  24.489
 8957SOL     OW38498   4.022   3.645  26.937
 8957SOL    HW138499   3.954   3.635  27.003
 8957SOL    HW238500   4.104   3.631  26.984
 8958SOL     OW38501   0.214   3.963  26.164
 8958SOL    HW138502   0.218   4.043  26.112
 8958SOL    HW238503   0.188   3.895  26.101
 8959SOL     OW38504   0.709   4.048  21.459
 8959SOL    HW138505   0.734   4.106  21.530
 8959SOL    HW238506   0.701   3.961  21.500
 8960SOL     OW38507   3.978   2.965   6.298
 8960SOL    HW138508   4.024   2.884   6.274
 8960SOL    HW238509   4.004   3.028   6.231
 8961SOL     OW38510   3.026   0.971  19.136
 8961SOL    HW138511   3.045   0.956  19.228
 8961SOL    HW238512   3.065   1.056  19.116
 8962SOL     OW38513   4.361   3.073  21.621
 8962SOL    HW138514   4.324   2.985  21.624
 8962SOL    HW238515   4.378   3.090  21.528
 8963SOL     OW38516   3.933   1.525   3.719
 8963SOL    HW138517   3.938   1.464   3.793
 8963SOL    HW238518   4.024   1.543   3.695
 8964SOL     OW38519   1.083   4.696  25.829
 8964SOL    HW138520   1.133   4.735  25.757
 8964SOL    HW238521   1.149   4.653  25.883
 8965SOL     OW38522   2.636   1.563  25.625
 8965SOL    HW138523   2.716   1.516  25.646
 8965SOL    HW238524   2.571   1.495  25.611
 8966SOL     OW38525   4.043   0.368  20.099
 8966SOL    HW138526   3.985   0.294  20.117
 8966SOL    HW238527   4.102   0.337  20.030
 8967SOL     OW38528   0.929   0.697  26.930
 8967SOL    HW138529   0.985   0.655  26.995
 8967SOL    HW238530   0.848   0.717  26.977
 8968SOL     OW38531   0.129   4.577   7.456
 8968SOL    HW138532   0.074   4.627   7.395
 8968SOL    HW238533   0.195   4.640   7.484
 8969SOL     OW38534   2.675   2.006  28.503
 8969SOL    HW138535   2.664   1.921  28.460
 8969SOL    HW238536   2.764   2.033  28.481
 8970SOL     OW38537   1.971   0.958   1.617
 8970SOL    HW138538   1.879   0.982   1.604
 8970SOL    HW238539   1.984   0.882   1.561
 8971SOL     OW38540   1.759   0.105  27.698
 8971SOL    HW138541   1.785   0.149  27.617
 8971SOL    HW238542   1.827   0.129  27.761
 8972SOL     OW38543   2.763   4.740  26.572
 8972SOL    HW138544   2.757   4.771  26.662
 8972SOL    HW238545   2.673   4.723  26.545
 8973SOL     OW38546   0.794   2.923  20.854
 8973SOL    HW138547   0.716   2.973  20.830
 8973SOL    HW238548   0.856   2.990  20.884
 8974SOL     OW38549   3.044   0.226  23.191
 8974SOL    HW138550   2.993   0.295  23.149
 8974SOL    HW238551   2.989   0.197  23.264
 8975SOL     OW38552   3.889   0.648  22.429
 8975SOL    HW138553   3.810   0.684  22.388
 8975SOL    HW238554   3.913   0.711  22.496
 8976SOL     OW38555   4.325   2.663  22.389
 8976SOL    HW138556   4.236   2.630  22.374
 8976SOL    HW238557   4.356   2.617  22.467
 8977SOL     OW38558   4.716   2.794   0.533
 8977SOL    HW138559   4.676   2.762   0.613
 8977SOL    HW238560   4.767   2.871   0.560
 8978SOL     OW38561   1.691   4.102  20.517
 8978SOL    HW138562   1.782   4.088  20.490
 8978SOL    HW238563   1.691   4.189  20.557
 8979SOL     OW38564   4.484   4.118  19.813
 8979SOL    HW138565   4.519   4.195  19.857
 8979SOL    HW238566   4.472   4.146  19.722
 8980SOL     OW38567   3.941   2.097   5.088
 8980SOL    HW138568   3.921   2.090   5.181
 8980SOL    HW238569   4.031   2.130   5.085
 8981SOL     OW38570   1.270   4.429  25.266
 8981SOL    HW138571   1.259   4.523  25.278
 8981SOL    HW238572   1.324   4.421  25.188
 8982SOL     OW38573   3.600   1.536  26.325
 8982SOL    HW138574   3.642   1.540  26.411
 8982SOL    HW238575   3.513   1.499  26.343
 8983SOL     OW38576   1.547   3.020   7.154
 8983SOL    HW138577   1.533   3.086   7.223
 8983SOL    HW238578   1.561   2.938   7.202
 8984SOL     OW38579   2.673   4.727  24.701
 8984SOL    HW138580   2.731   4.651  24.700
 8984SOL    HW238581   2.729   0.017  24.674
 8985SOL     OW38582   0.865   0.647  24.927
 8985SOL    HW138583   0.930   0.717  24.927
 8985SOL    HW238584   0.838   0.639  25.018
 8986SOL     OW38585   0.731   2.155   5.669
 8986SOL    HW138586   0.691   2.077   5.707
 8986SOL    HW238587   0.786   2.191   5.738
 8987SOL     OW38588   4.706   0.486  19.644
 8987SOL    HW138589   4.655   0.567  19.649
 8987SOL    HW238590   4.762   0.498  19.568
 8988SOL     OW38591   1.942   2.655  23.283
 8988SOL    HW138592   1.958   2.748  23.301
 8988SOL    HW238593   2.027   2.613  23.294
 8989SOL     OW38594   3.716   1.272  17.850
 8989SOL    HW138595   3.655   1.283  17.923
 8989SOL    HW238596   3.715   1.177  17.833
 8990SOL     OW38597   2.922   3.812  19.568
 8990SOL    HW138598   2.839   3.846  19.536
 8990SOL    HW238599   2.925   3.722  19.535
 8991SOL     OW38600   0.549   2.853   7.139
 8991SOL    HW138601   0.624   2.811   7.181
 8991SOL    HW238602   0.512   2.786   7.082
 8992SOL     OW38603   1.047   3.160  24.569
 8992SOL    HW138604   1.024   3.252  24.553
 8992SOL    HW238605   1.011   3.113  24.494
 8993SOL     OW38606   3.279   0.397   6.727
 8993SOL    HW138607   3.367   0.360   6.720
 8993SOL    HW238608   3.285   0.483   6.685
 8994SOL     OW38609   0.523   2.640  26.971
 8994SOL    HW138610   0.518   2.676  26.883
 8994SOL    HW238611   0.433   2.614  26.992
 8995SOL     OW38612   2.043   2.285   2.126
 8995SOL    HW138613   2.084   2.200   2.111
 8995SOL    HW238614   2.055   2.332   2.044
 8996SOL     OW38615   0.887   3.613  20.099
 8996SOL    HW138616   0.798   3.616  20.135
 8996SOL    HW238617   0.933   3.547  20.151
 8997SOL     OW38618   2.770   1.307   3.984
 8997SOL    HW138619   2.677   1.329   3.971
 8997SOL    HW238620   2.807   1.308   3.896
 8998SOL     OW38621   1.621   4.202  12.120
 8998SOL    HW138622   1.701   4.251  12.099
 8998SOL    HW238623   1.594   4.237  12.205
 8999SOL     OW38624   1.030   0.923   5.736
 8999SOL    HW138625   0.946   0.882   5.718
 8999SOL    HW238626   1.077   0.920   5.653
 9000SOL     OW38627   1.349   1.962  28.129
 9000SOL    HW138628   1.416   1.982  28.064
 9000SOL    HW238629   1.356   1.867  28.142
 9001SOL     OW38630   3.641   3.837  25.773
 9001SOL    HW138631   3.606   3.757  25.811
 9001SOL    HW238632   3.718   3.809  25.724
 9002SOL     OW38633   4.260   1.272  25.531
 9002SOL    HW138634   4.267   1.248  25.624
 9002SOL    HW238635   4.276   1.366  25.530
 9003SOL     OW38636   2.395   0.243   0.079
 9003SOL    HW138637   2.428   0.184   0.147
 9003SOL    HW238638   2.314   0.202   0.049
 9004SOL     OW38639   2.148   0.003  18.917
 9004SOL    HW138640   2.163   0.091  18.952
 9004SOL    HW238641   2.234   4.758  18.884
 9005SOL     OW38642   4.008   4.043  19.150
 9005SOL    HW138643   3.952   4.020  19.225
 9005SOL    HW238644   4.083   3.985  19.158
 9006SOL     OW38645   1.227   2.063  21.922
 9006SOL    HW138646   1.240   1.990  21.982
 9006SOL    HW238647   1.209   2.138  21.979
 9007SOL     OW38648   3.121   2.023  28.229
 9007SOL    HW138649   3.119   1.932  28.199
 9007SOL    HW238650   3.118   2.075  28.148
 9008SOL     OW38651   4.437   4.712  27.927
 9008SOL    HW138652   4.355   4.740  27.885
 9008SOL    HW238653   4.414   4.630  27.971
 9009SOL     OW38654   3.875   2.275   2.378
 9009SOL    HW138655   3.927   2.195   2.383
 9009SOL    HW238656   3.937   2.341   2.346
 9010SOL     OW38657   0.096   3.388  24.357
 9010SOL    HW138658   0.100   3.322  24.426
 9010SOL    HW238659   0.004   3.390  24.330
 9011SOL     OW38660   3.507   2.745  22.391
 9011SOL    HW138661   3.496   2.829  22.348
 9011SOL    HW238662   3.480   2.761  22.482
 9012SOL     OW38663   2.118   2.783  20.451
 9012SOL    HW138664   2.214   2.781  20.455
 9012SOL    HW238665   2.090   2.704  20.497
 9013SOL     OW38666   4.656   1.849  10.226
 9013SOL    HW138667   4.666   1.943  10.212
 9013SOL    HW238668   4.659   1.839  10.321
 9014SOL     OW38669   4.713   1.704  27.361
 9014SOL    HW138670   4.693   1.793  27.333
 9014SOL    HW238671   4.673   1.647  27.295
 9015SOL     OW38672   0.764   2.308   4.913
 9015SOL    HW138673   0.802   2.268   4.835
 9015SOL    HW238674   0.814   2.271   4.985
 9016SOL     OW38675   0.744   0.259  25.002
 9016SOL    HW138676   0.696   0.279  25.083
 9016SOL    HW238677   0.758   0.164  25.007
 9017SOL     OW38678   4.599   0.244  17.212
 9017SOL    HW138679   4.649   0.319  17.179
 9017SOL    HW238680   4.655   0.168  17.195
 9018SOL     OW38681   1.908   4.474  22.702
 9018SOL    HW138682   1.831   4.467  22.646
 9018SOL    HW238683   1.880   4.439  22.787
 9019SOL     OW38684   1.424   2.944  24.169
 9019SOL    HW138685   1.428   2.974  24.078
 9019SOL    HW238686   1.343   2.894  24.174
 9020SOL     OW38687   3.514   1.871   8.275
 9020SOL    HW138688   3.442   1.808   8.283
 9020SOL    HW238689   3.566   1.858   8.354
 9021SOL     OW38690   0.500   2.223  26.918
 9021SOL    HW138691   0.413   2.235  26.879
 9021SOL    HW238692   0.513   2.301  26.971
 9022SOL     OW38693   3.189   0.806   5.349
 9022SOL    HW138694   3.211   0.755   5.271
 9022SOL    HW238695   3.249   0.775   5.416
 9023SOL     OW38696   3.866   4.111   2.689
 9023SOL    HW138697   3.816   4.184   2.727
 9023SOL    HW238698   3.931   4.090   2.756
 9024SOL     OW38699   0.035   2.953  21.182
 9024SOL    HW138700   0.068   2.923  21.266
 9024SOL    HW238701   4.744   2.894  21.163
 9025SOL     OW38702   2.828   0.372  21.236
 9025SOL    HW138703   2.853   0.426  21.161
 9025SOL    HW238704   2.783   0.433  21.295
 9026SOL     OW38705   0.921   0.687   7.771
 9026SOL    HW138706   0.866   0.720   7.700
 9026SOL    HW238707   1.007   0.725   7.755
 9027SOL     OW38708   0.075   0.306   6.069
 9027SOL    HW138709   0.032   0.289   6.153
 9027SOL    HW238710   0.018   0.265   6.004
 9028SOL     OW38711   3.831   3.830   6.095
 9028SOL    HW138712   3.877   3.836   6.012
 9028SOL    HW238713   3.863   3.904   6.146
 9029SOL     OW38714   4.734   3.899   4.413
 9029SOL    HW138715   4.679   3.909   4.490
 9029SOL    HW238716   4.729   3.806   4.392
 9030SOL     OW38717   4.561   4.532   0.601
 9030SOL    HW138718   4.574   4.478   0.679
 9030SOL    HW238719   4.633   4.595   0.603
 9031SOL     OW38720   1.089   0.087  19.797
 9031SOL    HW138721   1.051   4.782  19.784
 9031SOL    HW238722   1.146   0.100  19.722
 9032SOL     OW38723   0.480   4.573   0.212
 9032SOL    HW138724   0.556   4.522   0.184
 9032SOL    HW238725   0.498   4.662   0.180
 9033SOL     OW38726   3.956   4.065   7.618
 9033SOL    HW138727   4.041   4.040   7.654
 9033SOL    HW238728   3.906   3.983   7.615
 9034SOL     OW38729   2.686   0.738  24.776
 9034SOL    HW138730   2.728   0.794  24.710
 9034SOL    HW238731   2.759   0.701  24.826
 9035SOL     OW38732   2.124   3.243   3.835
 9035SOL    HW138733   2.050   3.235   3.895
 9035SOL    HW238734   2.108   3.179   3.767
 9036SOL     OW38735   3.980   1.846  21.717
 9036SOL    HW138736   3.926   1.768  21.705
 9036SOL    HW238737   4.067   1.812  21.739
 9037SOL     OW38738   4.702   2.398  22.626
 9037SOL    HW138739   4.747   2.338  22.566
 9037SOL    HW238740   4.773   2.440  22.675
 9038SOL     OW38741   2.712   0.039   9.983
 9038SOL    HW138742   2.769   0.005  10.051
 9038SOL    HW238743   2.652   4.749   9.962
 9039SOL     OW38744   4.300   4.162  25.455
 9039SOL    HW138745   4.227   4.212  25.493
 9039SOL    HW238746   4.378   4.212  25.479
 9040SOL     OW38747   1.889   1.011  23.180
 9040SOL    HW138748   1.880   1.021  23.275
 9040SOL    HW238749   1.837   0.933  23.160
 9041SOL     OW38750   4.148   2.479   5.698
 9041SOL    HW138751   4.194   2.463   5.616
 9041SOL    HW238752   4.142   2.393   5.740
 9042SOL     OW38753   3.657   0.870  18.266
 9042SOL    HW138754   3.593   0.818  18.218
 9042SOL    HW238755   3.701   0.923  18.199
 9043SOL     OW38756   2.730   4.038   9.881
 9043SOL    HW138757   2.667   4.100   9.918
 9043SOL    HW238758   2.711   4.036   9.788
 9044SOL     OW38759   2.025   2.220  12.400
 9044SOL    HW138760   2.022   2.149  12.464
 9044SOL    HW238761   2.017   2.300  12.452
 9045SOL     OW38762   2.547   3.249  21.787
 9045SOL    HW138763   2.500   3.176  21.746
 9045SOL    HW238764   2.501   3.264  21.869
 9046SOL     OW38765   2.371   0.469  22.439
 9046SOL    HW138766   2.397   0.556  22.409
 9046SOL    HW238767   2.326   0.430  22.364
 9047SOL     OW38768   2.225   4.679  26.031
 9047SOL    HW138769   2.193   4.665  26.120
 9047SOL    HW238770   2.320   4.677  26.039
 9048SOL     OW38771   3.290   1.075   3.736
 9048SOL    HW138772   3.356   1.026   3.784
 9048SOL    HW238773   3.335   1.154   3.707
 9049SOL     OW38774   3.270   1.607  26.751
 9049SOL    HW138775   3.333   1.616  26.823
 9049SOL    HW238776   3.293   1.678  26.691
 9050SOL     OW38777   2.870   2.864  25.623
 9050SOL    HW138778   2.843   2.938  25.568
 9050SOL    HW238779   2.791   2.840  25.672
 9051SOL     OW38780   0.272   0.296  27.518
 9051SOL    HW138781   0.256   0.307  27.424
 9051SOL    HW238782   0.185   0.290  27.556
 9052SOL     OW38783   0.559   1.395  28.039
 9052SOL    HW138784   0.579   1.355  27.954
 9052SOL    HW238785   0.615   1.474  28.041
 9053SOL     OW38786   4.671   1.373   0.765
 9053SOL    HW138787   4.597   1.430   0.785
 9053SOL    HW238788   4.748   1.422   0.794
 9054SOL     OW38789   0.560   0.557   8.011
 9054SOL    HW138790   0.485   0.525   8.062
 9054SOL    HW238791   0.623   0.585   8.077
 9055SOL     OW38792   4.531   4.014   6.058
 9055SOL    HW138793   4.542   4.096   6.010
 9055SOL    HW238794   4.476   3.960   6.001
 9056SOL     OW38795   0.080   4.201   3.763
 9056SOL    HW138796   0.029   4.208   3.682
 9056SOL    HW238797   0.144   4.132   3.746
 9057SOL     OW38798   1.044   0.561  27.158
 9057SOL    HW138799   1.030   0.501  27.231
 9057SOL    HW238800   1.126   0.606  27.180
 9058SOL     OW38801   3.186   0.719   1.546
 9058SOL    HW138802   3.208   0.801   1.590
 9058SOL    HW238803   3.141   0.746   1.466
 9059SOL     OW38804   3.954   1.567  27.703
 9059SOL    HW138805   3.904   1.583  27.623
 9059SOL    HW238806   3.892   1.524  27.762
 9060SOL     OW38807   3.085   2.393   2.188
 9060SOL    HW138808   3.043   2.308   2.174
 9060SOL    HW238809   3.169   2.371   2.229
 9061SOL     OW38810   4.582   2.008  17.169
 9061SOL    HW138811   4.570   2.070  17.098
 9061SOL    HW238812   4.503   1.953  17.167
 9062SOL     OW38813   3.728   0.507  23.002
 9062SOL    HW138814   3.643   0.464  23.014
 9062SOL    HW238815   3.789   0.435  22.989
 9063SOL     OW38816   0.154   1.623   9.742
 9063SOL    HW138817   0.126   1.652   9.655
 9063SOL    HW238818   0.229   1.679   9.763
 9064SOL     OW38819   1.126   3.211  22.494
 9064SOL    HW138820   1.136   3.284  22.433
 9064SOL    HW238821   1.069   3.245  22.563
 9065SOL     OW38822   3.857   3.785  19.590
 9065SOL    HW138823   3.836   3.698  19.625
 9065SOL    HW238824   3.906   3.828  19.660
 9066SOL     OW38825   4.663   0.978  18.260
 9066SOL    HW138826   4.754   0.954  18.241
 9066SOL    HW238827   4.663   1.000  18.353
 9067SOL     OW38828   1.723   3.381  11.000
 9067SOL    HW138829   1.696   3.336  11.079
 9067SOL    HW238830   1.731   3.473  11.026
 9068SOL     OW38831   0.368   3.383  24.399
 9068SOL    HW138832   0.279   3.405  24.427
 9068SOL    HW238833   0.357   3.310  24.338
 9069SOL     OW38834   2.887   2.206  17.763
 9069SOL    HW138835   2.837   2.208  17.844
 9069SOL    HW238836   2.838   2.149  17.705
 9070SOL     OW38837   1.948   1.755   7.753
 9070SOL    HW138838   1.961   1.818   7.682
 9070SOL    HW238839   2.033   1.750   7.797
 9071SOL     OW38840   4.365   4.247  22.489
 9071SOL    HW138841   4.359   4.223  22.397
 9071SOL    HW238842   4.405   4.171  22.531
 9072SOL     OW38843   3.222   0.701   7.731
 9072SOL    HW138844   3.210   0.690   7.825
 9072SOL    HW238845   3.316   0.715   7.719
 9073SOL     OW38846   4.446   1.805   4.437
 9073SOL    HW138847   4.483   1.873   4.493
 9073SOL    HW238848   4.487   1.724   4.466
 9074SOL     OW38849   3.938   3.717   1.913
 9074SOL    HW138850   3.909   3.762   1.992
 9074SOL    HW238851   3.920   3.625   1.930
 9075SOL     OW38852   3.523   3.099  20.891
 9075SOL    HW138853   3.509   3.192  20.908
 9075SOL    HW238854   3.436   3.060  20.899
 9076SOL     OW38855   2.953   4.038  24.945
 9076SOL    HW138856   2.948   3.983  24.866
 9076SOL    HW238857   3.046   4.041  24.966
 9077SOL     OW38858   1.524   1.779  21.474
 9077SOL    HW138859   1.540   1.694  21.433
 9077SOL    HW238860   1.574   1.776  21.556
 9078SOL     OW38861   2.490   1.190  27.455
 9078SOL    HW138862   2.401   1.224  27.465
 9078SOL    HW238863   2.529   1.200  27.542
 9079SOL     OW38864   0.804   4.002   1.238
 9079SOL    HW138865   0.892   3.967   1.252
 9079SOL    HW238866   0.807   4.041   1.151
 9080SOL     OW38867   4.121   1.196  27.756
 9080SOL    HW138868   4.027   1.205  27.773
 9080SOL    HW238869   4.158   1.281  27.781
 9081SOL     OW38870   3.866   4.500  10.390
 9081SOL    HW138871   3.866   4.593  10.364
 9081SOL    HW238872   3.885   4.453  10.309
 9082SOL     OW38873   1.276   2.119  26.416
 9082SOL    HW138874   1.358   2.144  26.458
 9082SOL    HW238875   1.213   2.113  26.489
 9083SOL     OW38876   1.906   2.340  21.358
 9083SOL    HW138877   1.821   2.309  21.327
 9083SOL    HW238878   1.895   2.435  21.364
 9084SOL     OW38879   3.316   0.381   1.111
 9084SOL    HW138880   3.283   0.416   1.194
 9084SOL    HW238881   3.279   0.293   1.105
 9085SOL     OW38882   3.983   2.277   1.602
 9085SOL    HW138883   3.920   2.310   1.538
 9085SOL    HW238884   3.966   2.327   1.681
 9086SOL     OW38885   1.173   3.610   6.394
 9086SOL    HW138886   1.209   3.602   6.482
 9086SOL    HW238887   1.214   3.538   6.345
 9087SOL     OW38888   3.634   3.999   5.710
 9087SOL    HW138889   3.603   4.053   5.783
 9087SOL    HW238890   3.614   3.909   5.737
 9088SOL     OW38891   0.379   3.347   5.776
 9088SOL    HW138892   0.413   3.409   5.711
 9088SOL    HW238893   0.311   3.396   5.822
 9089SOL     OW38894   1.761   0.942   4.839
 9089SOL    HW138895   1.731   0.852   4.850
 9089SOL    HW238896   1.734   0.986   4.919
 9090SOL     OW38897   3.663   1.089   5.192
 9090SOL    HW138898   3.686   1.181   5.202
 9090SOL    HW238899   3.626   1.064   5.277
 9091SOL     OW38900   1.244   1.497   5.961
 9091SOL    HW138901   1.179   1.488   6.031
 9091SOL    HW238902   1.237   1.416   5.911
 9092SOL     OW38903   2.169   3.905   1.327
 9092SOL    HW138904   2.161   3.997   1.303
 9092SOL    HW238905   2.090   3.885   1.376
 9093SOL     OW38906   1.560   2.939  20.340
 9093SOL    HW138907   1.608   2.888  20.406
 9093SOL    HW238908   1.565   3.029  20.371
 9094SOL     OW38909   3.792   2.249  19.723
 9094SOL    HW138910   3.807   2.176  19.663
 9094SOL    HW238911   3.739   2.311  19.673
 9095SOL     OW38912   1.375   2.263  22.883
 9095SOL    HW138913   1.451   2.286  22.828
 9095SOL    HW238914   1.323   2.203  22.829
 9096SOL     OW38915   4.403   1.237   9.319
 9096SOL    HW138916   4.333   1.174   9.338
 9096SOL    HW238917   4.471   1.217   9.384
 9097SOL     OW38918   1.707   2.778   1.432
 9097SOL    HW138919   1.678   2.769   1.523
 9097SOL    HW238920   1.660   2.855   1.399
 9098SOL     OW38921   4.154   0.354  20.651
 9098SOL    HW138922   4.087   0.377  20.715
 9098SOL    HW238923   4.205   0.434  20.640
 9099SOL     OW38924   4.595   3.351  23.343
 9099SOL    HW138925   4.569   3.357  23.435
 9099SOL    HW238926   4.513   3.341  23.295
 9100SOL     OW38927   2.047   0.831   2.727
 9100SOL    HW138928   2.093   0.894   2.783
 9100SOL    HW238929   1.965   0.813   2.773
 9101SOL     OW38930   2.485   0.924  23.801
 9101SOL    HW138931   2.442   1.009  23.790
 9101SOL    HW238932   2.555   0.942  23.864
 9102SOL     OW38933   2.732   1.873  28.163
 9102SOL    HW138934   2.744   1.840  28.252
 9102SOL    HW238935   2.686   1.802  28.117
 9103SOL     OW38936   0.377   0.486  26.888
 9103SOL    HW138937   0.393   0.398  26.854
 9103SOL    HW238938   0.434   0.543  26.837
 9104SOL     OW38939   3.873   0.172  12.959
 9104SOL    HW138940   3.816   0.192  13.033
 9104SOL    HW238941   3.813   0.144  12.889
 9105SOL     OW38942   1.857   1.955   8.765
 9105SOL    HW138943   1.940   1.982   8.804
 9105SOL    HW238944   1.812   1.908   8.835
 9106SOL     OW38945   0.895   1.163  21.200
 9106SOL    HW138946   0.948   1.235  21.166
 9106SOL    HW238947   0.898   1.097  21.131
 9107SOL     OW38948   3.793   3.525   4.696
 9107SOL    HW138949   3.712   3.576   4.689
 9107SOL    HW238950   3.860   3.588   4.722
 9108SOL     OW38951   4.035   1.410   6.537
 9108SOL    HW138952   3.995   1.440   6.455
 9108SOL    HW238953   4.068   1.490   6.578
 9109SOL     OW38954   3.511   4.780  22.212
 9109SOL    HW138955   3.417   4.776  22.196
 9109SOL    HW238956   3.522   0.068  22.275
 9110SOL     OW38957   2.964   0.842   1.769
 9110SOL    HW138958   2.977   0.824   1.862
 9110SOL    HW238959   3.053   0.849   1.733
 9111SOL     OW38960   2.666   4.423  23.747
 9111SOL    HW138961   2.674   4.480  23.824
 9111SOL    HW238962   2.610   4.472  23.687
 9112SOL     OW38963   0.240   0.992  10.222
 9112SOL    HW138964   0.160   1.042  10.238
 9112SOL    HW238965   0.209   0.908  10.188
 9113SOL     OW38966   3.792   2.538  17.047
 9113SOL    HW138967   3.732   2.524  16.974
 9113SOL    HW238968   3.849   2.609  17.018
 9114SOL     OW38969   3.856   1.959  19.327
 9114SOL    HW138970   3.849   1.975  19.233
 9114SOL    HW238971   3.766   1.958  19.358
 9115SOL     OW38972   1.696   0.367   4.262
 9115SOL    HW138973   1.739   0.324   4.335
 9115SOL    HW238974   1.722   0.316   4.185
 9116SOL     OW38975   4.767   0.594  24.684
 9116SOL    HW138976   0.045   0.520  24.692
 9116SOL    HW238977   4.681   0.555  24.698
 9117SOL     OW38978   4.702   1.216  24.153
 9117SOL    HW138979   4.665   1.141  24.200
 9117SOL    HW238980   4.686   1.196  24.061
 9118SOL     OW38981   1.012   3.314  26.418
 9118SOL    HW138982   0.954   3.376  26.375
 9118SOL    HW238983   1.100   3.339  26.390
 9119SOL     OW38984   1.469   1.788  26.823
 9119SOL    HW138985   1.436   1.704  26.854
 9119SOL    HW238986   1.541   1.766  26.764
 9120SOL     OW38987   3.090   1.753   9.479
 9120SOL    HW138988   3.097   1.830   9.534
 9120SOL    HW238989   3.034   1.693   9.529
 9121SOL     OW38990   2.021   4.711   9.090
 9121SOL    HW138991   1.978   0.012   9.075
 9121SOL    HW238992   2.033   4.674   9.002
 9122SOL     OW38993   2.030   4.563  25.490
 9122SOL    HW138994   1.969   4.520  25.430
 9122SOL    HW238995   2.089   4.613  25.434
 9123SOL     OW38996   0.563   2.676  27.504
 9123SOL    HW138997   0.633   2.667  27.568
 9123SOL    HW238998   0.590   2.750  27.449
 9124SOL     OW38999   3.076   1.953   9.052
 9124SOL    HW139000   3.161   1.927   9.018
 9124SOL    HW239001   3.093   1.980   9.143
 9125SOL     OW39002   0.286   1.296  20.644
 9125SOL    HW139003   0.312   1.347  20.567
 9125SOL    HW239004   0.320   1.347  20.718
 9126SOL     OW39005   1.152   3.212   4.517
 9126SOL    HW139006   1.087   3.163   4.567
 9126SOL    HW239007   1.125   3.200   4.426
 9127SOL     OW39008   2.451   3.141  18.455
 9127SOL    HW139009   2.454   3.154  18.360
 9127SOL    HW239010   2.391   3.208  18.487
 9128SOL     OW39011   4.002   1.315  22.317
 9128SOL    HW139012   4.000   1.387  22.380
 9128SOL    HW239013   3.932   1.256  22.345
 9129SOL     OW39014   0.107   2.518  22.896
 9129SOL    HW139015   0.019   2.536  22.930
 9129SOL    HW239016   0.160   2.503  22.974
 9130SOL     OW39017   4.119   0.343   6.894
 9130SOL    HW139018   4.107   0.357   6.988
 9130SOL    HW239019   4.206   0.377   6.876
 9131SOL     OW39020   1.715   4.681  11.838
 9131SOL    HW139021   1.713   4.777  11.846
 9131SOL    HW239022   1.706   4.649  11.927
 9132SOL     OW39023   3.111   1.664   0.755
 9132SOL    HW139024   3.019   1.665   0.782
 9132SOL    HW239025   3.112   1.713   0.673
 9133SOL     OW39026   1.410   1.617   3.803
 9133SOL    HW139027   1.465   1.574   3.738
 9133SOL    HW239028   1.471   1.641   3.873
 9134SOL     OW39029   0.028   3.014  28.073
 9134SOL    HW139030   4.753   2.966  28.132
 9134SOL    HW239031   4.765   3.011  27.988
 9135SOL     OW39032   4.014   1.731  28.343
 9135SOL    HW139033   4.005   1.819  28.307
 9135SOL    HW239034   4.016   1.743  28.437
 9136SOL     OW39035   0.397   0.681  27.742
 9136SOL    HW139036   0.404   0.602  27.796
 9136SOL    HW239037   0.483   0.722  27.749
 9137SOL     OW39038   1.670   3.072   5.022
 9137SOL    HW139039   1.748   3.087   5.075
 9137SOL    HW239040   1.599   3.113   5.071
 9138SOL     OW39041   2.342   1.968  23.031
 9138SOL    HW139042   2.281   1.899  23.005
 9138SOL    HW239043   2.312   2.045  22.984
 9139SOL     OW39044   0.276   3.841   6.795
 9139SOL    HW139045   0.225   3.761   6.784
 9139SOL    HW239046   0.334   3.844   6.718
 9140SOL     OW39047   1.493   4.529   5.126
 9140SOL    HW139048   1.554   4.591   5.165
 9140SOL    HW239049   1.425   4.516   5.193
 9141SOL     OW39050   4.517   0.782  27.312
 9141SOL    HW139051   4.452   0.819  27.252
 9141SOL    HW239052   4.598   0.781  27.262
 9142SOL     OW39053   3.440   0.172   2.627
 9142SOL    HW139054   3.475   0.238   2.567
 9142SOL    HW239055   3.405   0.104   2.570
 9143SOL     OW39056   4.489   1.951  19.982
 9143SOL    HW139057   4.474   2.036  20.022
 9143SOL    HW239058   4.539   1.969  19.903
 9144SOL     OW39059   0.257   4.589   2.841
 9144SOL    HW139060   0.252   4.586   2.745
 9144SOL    HW239061   0.177   4.548   2.872
 9145SOL     OW39062   4.548   0.210  18.076
 9145SOL    HW139063   4.625   0.236  18.025
 9145SOL    HW239064   4.477   0.264  18.041
 9146SOL     OW39065   0.637   3.051   8.334
 9146SOL    HW139066   0.554   3.098   8.339
 9146SOL    HW239067   0.667   3.043   8.424
 9147SOL     OW39068   4.479   2.586  23.481
 9147SOL    HW139069   4.413   2.646  23.514
 9147SOL    HW239070   4.522   2.634  23.410
 9148SOL     OW39071   2.488   1.509   5.904
 9148SOL    HW139072   2.500   1.566   5.979
 9148SOL    HW239073   2.422   1.446   5.932
 9149SOL     OW39074   1.525   1.624   9.191
 9149SOL    HW139075   1.504   1.626   9.285
 9149SOL    HW239076   1.589   1.694   9.179
 9150SOL     OW39077   1.641   1.159  24.544
 9150SOL    HW139078   1.612   1.219  24.475
 9150SOL    HW239079   1.734   1.146  24.526
 9151SOL     OW39080   1.145   2.927   8.417
 9151SOL    HW139081   1.159   2.929   8.322
 9151SOL    HW239082   1.116   3.016   8.438
 9152SOL     OW39083   4.099   2.400  27.112
 9152SOL    HW139084   4.162   2.344  27.156
 9152SOL    HW239085   4.151   2.473  27.079
 9153SOL     OW39086   4.609   1.949  23.559
 9153SOL    HW139087   4.651   1.914  23.637
 9153SOL    HW239088   4.516   1.954  23.582
 9154SOL     OW39089   3.828   2.911   0.554
 9154SOL    HW139090   3.815   2.940   0.644
 9154SOL    HW239091   3.857   2.989   0.508
 9155SOL     OW39092   3.881   4.623  18.746
 9155SOL    HW139093   3.970   4.641  18.777
 9155SOL    HW239094   3.890   4.619  18.651
 9156SOL     OW39095   4.769   1.382  11.043
 9156SOL    HW139096   4.746   1.302  10.994
 9156SOL    HW239097   4.702   1.388  11.111
 9157SOL     OW39098   2.410   3.350  22.971
 9157SOL    HW139099   2.500   3.371  22.947
 9157SOL    HW239100   2.377   3.429  23.014
 9158SOL     OW39101   2.410   4.088   5.123
 9158SOL    HW139102   2.492   4.089   5.171
 9158SOL    HW239103   2.343   4.103   5.190
 9159SOL     OW39104   2.102   0.755   4.835
 9159SOL    HW139105   2.032   0.694   4.812
 9159SOL    HW239106   2.148   0.713   4.908
 9160SOL     OW39107   1.094   0.572   1.046
 9160SOL    HW139108   1.084   0.503   0.982
 9160SOL    HW239109   1.189   0.579   1.059
 9161SOL     OW39110   0.825   0.666   5.679
 9161SOL    HW139111   0.776   0.748   5.671
 9161SOL    HW239112   0.838   0.656   5.774
 9162SOL     OW39113   2.917   1.129  27.194
 9162SOL    HW139114   2.983   1.133  27.263
 9162SOL    HW239115   2.839   1.167  27.234
 9163SOL     OW39116   3.994   2.388  22.723
 9163SOL    HW139117   4.030   2.304  22.694
 9163SOL    HW239118   3.996   2.383  22.818
 9164SOL     OW39119   4.555   1.330  23.533
 9164SOL    HW139120   4.588   1.410  23.492
 9164SOL    HW239121   4.633   1.285  23.565
 9165SOL     OW39122   3.906   0.548   5.670
 9165SOL    HW139123   3.854   0.590   5.738
 9165SOL    HW239124   3.954   0.619   5.628
 9166SOL     OW39125   1.972   3.930   4.241
 9166SOL    HW139126   1.926   3.964   4.164
 9166SOL    HW239127   2.047   3.883   4.205
 9167SOL     OW39128   2.817   4.381   8.538
 9167SOL    HW139129   2.886   4.315   8.536
 9167SOL    HW239130   2.809   4.404   8.631
 9168SOL     OW39131   1.030   1.421  25.769
 9168SOL    HW139132   0.966   1.375  25.714
 9168SOL    HW239133   1.110   1.423  25.717
 9169SOL     OW39134   0.878   4.707   7.424
 9169SOL    HW139135   0.809   4.770   7.400
 9169SOL    HW239136   0.871   4.700   7.519
 9170SOL     OW39137   0.581   0.511   2.264
 9170SOL    HW139138   0.554   0.419   2.272
 9170SOL    HW239139   0.500   0.561   2.279
 9171SOL     OW39140   1.011   0.539  26.275
 9171SOL    HW139141   1.016   0.539  26.179
 9171SOL    HW239142   0.926   0.498  26.294
 9172SOL     OW39143   3.069   4.241   0.778
 9172SOL    HW139144   3.056   4.332   0.806
 9172SOL    HW239145   3.162   4.235   0.760
 9173SOL     OW39146   2.828   1.488   1.584
 9173SOL    HW139147   2.849   1.406   1.628
 9173SOL    HW239148   2.846   1.471   1.492
 9174SOL     OW39149   0.461   4.034  21.995
 9174SOL    HW139150   0.519   4.044  21.920
 9174SOL    HW239151   0.385   3.987  21.960
 9175SOL     OW39152   4.425   2.764   7.609
 9175SOL    HW139153   4.333   2.783   7.624
 9175SOL    HW239154   4.435   2.761   7.514
 9176SOL     OW39155   4.135   3.935  21.868
 9176SOL    HW139156   4.219   3.959  21.907
 9176SOL    HW239157   4.142   3.964  21.777
 9177SOL     OW39158   3.952   4.608   7.329
 9177SOL    HW139159   4.018   4.543   7.306
 9177SOL    HW239160   3.993   4.661   7.397
 9178SOL     OW39161   2.331   1.018  25.927
 9178SOL    HW139162   2.275   0.958  25.877
 9178SOL    HW239163   2.356   0.968  26.005
 9179SOL     OW39164   2.304   0.185  26.644
 9179SOL    HW139165   2.321   0.274  26.613
 9179SOL    HW239166   2.218   0.163  26.607
 9180SOL     OW39167   1.844   2.306   8.916
 9180SOL    HW139168   1.874   2.315   9.007
 9180SOL    HW239169   1.909   2.354   8.865
 9181SOL     OW39170   3.019   1.509   0.530
 9181SOL    HW139171   3.079   1.436   0.512
 9181SOL    HW239172   3.076   1.586   0.533
 9182SOL     OW39173   4.269   0.531   5.636
 9182SOL    HW139174   4.227   0.470   5.697
 9182SOL    HW239175   4.314   0.474   5.573
 9183SOL     OW39176   0.026   3.604   8.444
 9183SOL    HW139177   0.047   3.638   8.531
 9183SOL    HW239178   4.713   3.600   8.442
 9184SOL     OW39179   0.425   3.766   1.408
 9184SOL    HW139180   0.408   3.809   1.492
 9184SOL    HW239181   0.363   3.693   1.405
 9185SOL     OW39182   2.448   3.644  17.276
 9185SOL    HW139183   2.392   3.717  17.249
 9185SOL    HW239184   2.492   3.675  17.355
 9186SOL     OW39185   0.236   1.875  21.606
 9186SOL    HW139186   0.182   1.917  21.672
 9186SOL    HW239187   0.326   1.900  21.629
 9187SOL     OW39188   0.451   1.323   3.370
 9187SOL    HW139189   0.385   1.385   3.340
 9187SOL    HW239190   0.523   1.331   3.306
 9188SOL     OW39191   2.036   3.250  22.327
 9188SOL    HW139192   2.001   3.296  22.251
 9188SOL    HW239193   2.109   3.305  22.356
 9189SOL     OW39194   2.402   0.674  26.536
 9189SOL    HW139195   2.475   0.639  26.586
 9189SOL    HW239196   2.382   0.606  26.471
 9190SOL     OW39197   4.643   2.405  24.317
 9190SOL    HW139198   4.652   2.319  24.278
 9190SOL    HW239199   4.712   2.458  24.277
 9191SOL     OW39200   2.154   0.765   5.730
 9191SOL    HW139201   2.168   0.782   5.823
 9191SOL    HW239202   2.063   0.791   5.715
 9192SOL     OW39203   3.314   1.252   5.220
 9192SOL    HW139204   3.380   1.321   5.214
 9192SOL    HW239205   3.231   1.297   5.203
 9193SOL     OW39206   0.514   4.114  26.786
 9193SOL    HW139207   0.527   4.022  26.809
 9193SOL    HW239208   0.432   4.138  26.829
 9194SOL     OW39209   0.074   1.926  28.504
 9194SOL    HW139210   0.085   2.009   0.018
 9194SOL    HW239211   4.762   1.912  28.500
 9195SOL     OW39212   2.427   2.149  18.642
 9195SOL    HW139213   2.374   2.151  18.563
 9195SOL    HW239214   2.489   2.221  18.631
 9196SOL     OW39215   0.125   0.651  28.064
 9196SOL    HW139216   0.147   0.700  27.985
 9196SOL    HW239217   0.130   0.559  28.038
 9197SOL     OW39218   0.332   2.867   8.823
 9197SOL    HW139219   0.418   2.849   8.861
 9197SOL    HW239220   0.338   2.958   8.793
 9198SOL     OW39221   2.569   1.714  25.384
 9198SOL    HW139222   2.617   1.781  25.433
 9198SOL    HW239223   2.588   1.632  25.429
 9199SOL     OW39224   1.639   2.001  21.337
 9199SOL    HW139225   1.586   1.934  21.380
 9199SOL    HW239226   1.715   1.954  21.304
 9200SOL     OW39227   2.086   4.451  10.848
 9200SOL    HW139228   2.137   4.439  10.928
 9200SOL    HW239229   1.996   4.464  10.880
 9201SOL     OW39230   1.628   2.032  24.119
 9201SOL    HW139231   1.673   2.024  24.035
 9201SOL    HW239232   1.697   2.021  24.185
 9202SOL     OW39233   0.536   0.341  26.499
 9202SOL    HW139234   0.606   0.367  26.559
 9202SOL    HW239235   0.457   0.345  26.553
 9203SOL     OW39236   0.280   1.349   1.496
 9203SOL    HW139237   0.274   1.317   1.406
 9203SOL    HW239238   0.201   1.314   1.539
 9204SOL     OW39239   2.321   1.168  22.955
 9204SOL    HW139240   2.260   1.111  23.002
 9204SOL    HW239241   2.269   1.244  22.930
 9205SOL     OW39242   4.235   4.191   0.155
 9205SOL    HW139243   4.265   4.143   0.078
 9205SOL    HW239244   4.175   4.131   0.198
 9206SOL     OW39245   0.659   3.764  25.596
 9206SOL    HW139246   0.567   3.766  25.625
 9206SOL    HW239247   0.673   3.673  25.569
 9207SOL     OW39248   0.183   1.295   2.171
 9207SOL    HW139249   0.202   1.239   2.096
 9207SOL    HW239250   0.235   1.374   2.157
 9208SOL     OW39251   0.103   1.694  19.259
 9208SOL    HW139252   0.090   1.614  19.310
 9208SOL    HW239253   0.106   1.664  19.168
 9209SOL     OW39254   2.597   0.249  18.510
 9209SOL    HW139255   2.529   0.277  18.448
 9209SOL    HW239256   2.674   0.232  18.455
 9210SOL     OW39257   0.037   4.106  26.343
 9210SOL    HW139258   0.094   4.029  26.348
 9210SOL    HW239259   0.021   4.119  26.250
 9211SOL     OW39260   0.530   0.199  18.841
 9211SOL    HW139261   0.437   0.222  18.833
 9211SOL    HW239262   0.556   0.170  18.754
 9212SOL     OW39263   3.091   2.978   4.210
 9212SOL    HW139264   3.156   2.968   4.140
 9212SOL    HW239265   3.062   2.889   4.228
 9213SOL     OW39266   2.771   2.432  18.228
 9213SOL    HW139267   2.734   2.368  18.288
 9213SOL    HW239268   2.756   2.517  18.270
 9214SOL     OW39269   1.966   4.042  20.550
 9214SOL    HW139270   1.975   4.122  20.602
 9214SOL    HW239271   2.013   3.975  20.601
 9215SOL     OW39272   0.088   0.791  28.368
 9215SOL    HW139273   0.061   0.758  28.282
 9215SOL    HW239274   0.183   0.796  28.363
 9216SOL     OW39275   3.839   1.305  11.046
 9216SOL    HW139276   3.812   1.260  10.966
 9216SOL    HW239277   3.770   1.286  11.109
 9217SOL     OW39278   3.092   4.545   9.502
 9217SOL    HW139279   3.003   4.561   9.470
 9217SOL    HW239280   3.080   4.499   9.585
 9218SOL     OW39281   1.183   0.496  25.012
 9218SOL    HW139282   1.134   0.522  24.934
 9218SOL    HW239283   1.274   0.493  24.983
 9219SOL     OW39284   4.379   1.422  10.776
 9219SOL    HW139285   4.312   1.367  10.735
 9219SOL    HW239286   4.332   1.501  10.802
 9220SOL     OW39287   0.520   0.642   4.851
 9220SOL    HW139288   0.545   0.601   4.768
 9220SOL    HW239289   0.593   0.699   4.873
 9221SOL     OW39290   0.442   4.596  27.136
 9221SOL    HW139291   0.443   4.572  27.043
 9221SOL    HW239292   0.488   4.525  27.180
 9222SOL     OW39293   3.028   2.012   2.978
 9222SOL    HW139294   2.986   1.973   2.901
 9222SOL    HW239295   3.104   1.957   2.994
 9223SOL     OW39296   3.603   0.859  19.534
 9223SOL    HW139297   3.517   0.818  19.528
 9223SOL    HW239298   3.604   0.922  19.462
 9224SOL     OW39299   0.467   0.283  22.261
 9224SOL    HW139300   0.391   0.337  22.241
 9224SOL    HW239301   0.528   0.297  22.189
 9225SOL     OW39302   2.194   3.286   8.763
 9225SOL    HW139303   2.113   3.324   8.797
 9225SOL    HW239304   2.165   3.209   8.713
 9226SOL     OW39305   1.483   2.687   4.499
 9226SOL    HW139306   1.395   2.663   4.470
 9226SOL    HW239307   1.519   2.606   4.536
 9227SOL     OW39308   0.357   1.704   7.666
 9227SOL    HW139309   0.306   1.624   7.654
 9227SOL    HW239310   0.385   1.727   7.577
 9228SOL     OW39311   0.692   0.620   3.574
 9228SOL    HW139312   0.773   0.647   3.618
 9228SOL    HW239313   0.722   0.570   3.498
 9229SOL     OW39314   1.117   3.649  24.410
 9229SOL    HW139315   1.031   3.689  24.396
 9229SOL    HW239316   1.149   3.686  24.492
 9230SOL     OW39317   3.863   3.842   9.074
 9230SOL    HW139318   3.771   3.852   9.099
 9230SOL    HW239319   3.882   3.918   9.019
 9231SOL     OW39320   1.576   4.075   4.511
 9231SOL    HW139321   1.622   4.040   4.587
 9231SOL    HW239322   1.484   4.055   4.527
 9232SOL     OW39323   3.667   4.409  22.643
 9232SOL    HW139324   3.636   4.439  22.728
 9232SOL    HW239325   3.620   4.463  22.579
 9233SOL     OW39326   0.805   2.377  25.811
 9233SOL    HW139327   0.852   2.294  25.811
 9233SOL    HW239328   0.831   2.420  25.729
 9234SOL     OW39329   3.618   3.827   3.643
 9234SOL    HW139330   3.627   3.914   3.681
 9234SOL    HW239331   3.594   3.843   3.552
 9235SOL     OW39332   1.635   2.354   9.107
 9235SOL    HW139333   1.550   2.386   9.076
 9235SOL    HW239334   1.698   2.389   9.044
 9236SOL     OW39335   2.261   3.134   6.523
 9236SOL    HW139336   2.306   3.132   6.608
 9236SOL    HW239337   2.331   3.142   6.459
 9237SOL     OW39338   0.136   0.333   8.044
 9237SOL    HW139339   0.071   0.263   8.036
 9237SOL    HW239340   0.196   0.319   7.971
 9238SOL     OW39341   3.200   2.292   4.136
 9238SOL    HW139342   3.263   2.360   4.113
 9238SOL    HW239343   3.227   2.263   4.223
 9239SOL     OW39344   2.462   2.709   4.904
 9239SOL    HW139345   2.405   2.634   4.886
 9239SOL    HW239346   2.403   2.780   4.926
 9240SOL     OW39347   3.277   3.559   0.638
 9240SOL    HW139348   3.209   3.544   0.571
 9240SOL    HW239349   3.242   3.517   0.716
 9241SOL     OW39350   2.915   1.453   8.817
 9241SOL    HW139351   2.952   1.519   8.875
 9241SOL    HW239352   2.864   1.503   8.753
 9242SOL     OW39353   3.300   3.425  25.942
 9242SOL    HW139354   3.263   3.425  26.030
 9242SOL    HW239355   3.227   3.399  25.886
 9243SOL     OW39356   4.746   0.972   9.347
 9243SOL    HW139357   4.755   0.978   9.252
 9243SOL    HW239358   4.725   1.061   9.375
 9244SOL     OW39359   0.846   1.981   0.466
 9244SOL    HW139360   0.862   2.073   0.447
 9244SOL    HW239361   0.931   1.948   0.497
 9245SOL     OW39362   0.358   0.243  23.453
 9245SOL    HW139363   0.295   0.274  23.519
 9245SOL    HW239364   0.443   0.257  23.494
 9246SOL     OW39365   1.128   0.385   4.281
 9246SOL    HW139366   1.065   0.356   4.215
 9246SOL    HW239367   1.182   0.308   4.298
 9247SOL     OW39368   3.739   3.395  20.839
 9247SOL    HW139369   3.734   3.490  20.830
 9247SOL    HW239370   3.829   3.379  20.868
 9248SOL     OW39371   1.140   4.512   1.841
 9248SOL    HW139372   1.200   4.521   1.915
 9248SOL    HW239373   1.197   4.499   1.766
 9249SOL     OW39374   1.782   1.033   5.138
 9249SOL    HW139375   1.869   1.011   5.171
 9249SOL    HW239376   1.746   1.094   5.202
 9250SOL     OW39377   2.968   1.393   9.264
 9250SOL    HW139378   2.889   1.383   9.210
 9250SOL    HW239379   2.947   1.348   9.346
 9251SOL     OW39380   0.173   0.507   4.492
 9251SOL    HW139381   0.231   0.463   4.555
 9251SOL    HW239382   0.084   0.484   4.521
 9252SOL     OW39383   3.447   0.280  10.307
 9252SOL    HW139384   3.381   0.232  10.257
 9252SOL    HW239385   3.444   0.241  10.394
 9253SOL     OW39386   1.214   4.453  22.276
 9253SOL    HW139387   1.203   4.448  22.371
 9253SOL    HW239388   1.242   4.544  22.260
 9254SOL     OW39389   2.834   2.306  27.899
 9254SOL    HW139390   2.875   2.286  27.816
 9254SOL    HW239391   2.768   2.373  27.878
 9255SOL     OW39392   4.251   0.158   0.950
 9255SOL    HW139393   4.240   0.065   0.967
 9255SOL    HW239394   4.269   0.163   0.856
 9256SOL     OW39395   1.855   4.744  23.835
 9256SOL    HW139396   1.837   4.717  23.745
 9256SOL    HW239397   1.802   0.041  23.848
 9257SOL     OW39398   2.345   1.431   8.150
 9257SOL    HW139399   2.286   1.453   8.222
 9257SOL    HW239400   2.356   1.336   8.157
 9258SOL     OW39401   2.678   0.344   8.383
 9258SOL    HW139402   2.630   0.261   8.391
 9258SOL    HW239403   2.763   0.326   8.423
 9259SOL     OW39404   1.659   4.688  25.735
 9259SOL    HW139405   1.608   4.647  25.665
 9259SOL    HW239406   1.730   4.733  25.690
 9260SOL     OW39407   2.237   3.474   6.798
 9260SOL    HW139408   2.278   3.392   6.825
 9260SOL    HW239409   2.263   3.536   6.866
 9261SOL     OW39410   2.172   0.659  27.967
 9261SOL    HW139411   2.100   0.697  27.917
 9261SOL    HW239412   2.148   0.673  28.058
 9262SOL     OW39413   1.979   2.832   1.739
 9262SOL    HW139414   2.061   2.876   1.717
 9262SOL    HW239415   1.940   2.886   1.808
 9263SOL     OW39416   2.126   1.280  18.431
 9263SOL    HW139417   2.036   1.302  18.407
 9263SOL    HW239418   2.132   1.303  18.524
 9264SOL     OW39419   2.980   1.824  24.701
 9264SOL    HW139420   2.990   1.875  24.621
 9264SOL    HW239421   3.015   1.738  24.679
 9265SOL     OW39422   4.463   1.706   4.891
 9265SOL    HW139423   4.370   1.726   4.898
 9265SOL    HW239424   4.492   1.690   4.981
 9266SOL     OW39425   3.446   4.039   6.155
 9266SOL    HW139426   3.511   3.969   6.155
 9266SOL    HW239427   3.473   4.096   6.226
 9267SOL     OW39428   4.338   1.801  27.299
 9267SOL    HW139429   4.269   1.857  27.333
 9267SOL    HW239430   4.401   1.861  27.260
 9268SOL     OW39431   1.448   3.319  19.423
 9268SOL    HW139432   1.454   3.373  19.502
 9268SOL    HW239433   1.355   3.297  19.416
 9269SOL     OW39434   1.029   0.309   5.602
 9269SOL    HW139435   1.063   0.335   5.687
 9269SOL    HW239436   1.101   0.324   5.541
 9270SOL     OW39437   4.305   3.931   1.206
 9270SOL    HW139438   4.230   3.942   1.265
 9270SOL    HW239439   4.353   3.857   1.242
 9271SOL     OW39440   0.083   3.616   6.226
 9271SOL    HW139441   0.171   3.578   6.222
 9271SOL    HW239442   0.074   3.667   6.146
 9272SOL     OW39443   4.112   2.862   5.333
 9272SOL    HW139444   4.072   2.859   5.420
 9272SOL    HW239445   4.075   2.941   5.292
 9273SOL     OW39446   2.785   0.315  17.939
 9273SOL    HW139447   2.831   0.233  17.924
 9273SOL    HW239448   2.854   0.381  17.944
 9274SOL     OW39449   2.290   1.292  21.210
 9274SOL    HW139450   2.221   1.344  21.252
 9274SOL    HW239451   2.304   1.335  21.126
 9275SOL     OW39452   2.132   1.059   6.653
 9275SOL    HW139453   2.191   0.986   6.666
 9275SOL    HW239454   2.150   1.089   6.563
 9276SOL     OW39455   3.118   0.013   5.641
 9276SOL    HW139456   3.058   4.748   5.697
 9276SOL    HW239457   3.131   4.738   5.565
 9277SOL     OW39458   0.735   1.602  26.929
 9277SOL    HW139459   0.729   1.549  26.849
 9277SOL    HW239460   0.733   1.538  27.000
 9278SOL     OW39461   2.624   4.178  22.067
 9278SOL    HW139462   2.571   4.256  22.051
 9278SOL    HW239463   2.680   4.170  21.989
 9279SOL     OW39464   2.037   3.813  28.433
 9279SOL    HW139465   2.022   3.889  28.376
 9279SOL    HW239466   2.038   3.849  28.521
 9280SOL     OW39467   3.704   2.622  19.929
 9280SOL    HW139468   3.758   2.623  20.008
 9280SOL    HW239469   3.748   2.682  19.869
 9281SOL     OW39470   1.271   3.357  26.332
 9281SOL    HW139471   1.286   3.264  26.312
 9281SOL    HW239472   1.316   3.404  26.262
 9282SOL     OW39473   1.972   2.522   7.815
 9282SOL    HW139474   2.036   2.574   7.766
 9282SOL    HW239475   1.957   2.571   7.896
 9283SOL     OW39476   4.405   1.557   0.249
 9283SOL    HW139477   4.451   1.638   0.270
 9283SOL    HW239478   4.459   1.516   0.182
 9284SOL     OW39479   2.230   4.754   9.591
 9284SOL    HW139480   2.319   4.740   9.624
 9284SOL    HW239481   2.191   0.035   9.651
 9285SOL     OW39482   0.124   1.238  22.223
 9285SOL    HW139483   0.208   1.196  22.206
 9285SOL    HW239484   0.142   1.298  22.296
 9286SOL     OW39485   0.009   4.301   7.902
 9286SOL    HW139486   4.736   4.304   7.824
 9286SOL    HW239487   0.049   4.215   7.900
 9287SOL     OW39488   2.008   0.209  17.513
 9287SOL    HW139489   1.958   0.259  17.448
 9287SOL    HW239490   2.091   0.189  17.469
 9288SOL     OW39491   1.977   4.772  23.063
 9288SOL    HW139492   1.945   0.024  22.980
 9288SOL    HW239493   2.064   0.030  23.074
 9289SOL     OW39494   1.934   4.565   4.282
 9289SOL    HW139495   1.974   4.632   4.227
 9289SOL    HW239496   1.851   4.604   4.309
 9290SOL     OW39497   4.512   1.842  17.548
 9290SOL    HW139498   4.498   1.779  17.478
 9290SOL    HW239499   4.607   1.855  17.549
 9291SOL     OW39500   3.881   2.034   7.023
 9291SOL    HW139501   3.864   2.053   6.930
 9291SOL    HW239502   3.976   2.031   7.030
 9292SOL     OW39503   1.644   3.298  24.485
 9292SOL    HW139504   1.611   3.248  24.410
 9292SOL    HW239505   1.652   3.387  24.453
 9293SOL     OW39506   1.936   0.449  24.893
 9293SOL    HW139507   1.881   0.395  24.836
 9293SOL    HW239508   1.879   0.471  24.968
 9294SOL     OW39509   3.779   3.404  20.315
 9294SOL    HW139510   3.704   3.380  20.261
 9294SOL    HW239511   3.765   3.357  20.398
 9295SOL     OW39512   2.387   1.339   9.687
 9295SOL    HW139513   2.369   1.387   9.767
 9295SOL    HW239514   2.335   1.258   9.695
 9296SOL     OW39515   4.655   4.424  25.678
 9296SOL    HW139516   4.725   4.475  25.637
 9296SOL    HW239517   4.646   4.461  25.765
 9297SOL     OW39518   0.144   3.890  11.807
 9297SOL    HW139519   0.125   3.905  11.899
 9297SOL    HW239520   0.078   3.827  11.778
 9298SOL     OW39521   0.876   0.749   4.324
 9298SOL    HW139522   0.869   0.660   4.359
 9298SOL    HW239523   0.941   0.792   4.379
 9299SOL     OW39524   0.175   1.955   4.395
 9299SOL    HW139525   0.094   1.978   4.441
 9299SOL    HW239526   0.162   1.865   4.367
 9300SOL     OW39527   2.214   2.262  25.411
 9300SOL    HW139528   2.277   2.287  25.479
 9300SOL    HW239529   2.138   2.228  25.459
 9301SOL     OW39530   2.560   4.602  27.863
 9301SOL    HW139531   2.628   4.540  27.887
 9301SOL    HW239532   2.585   4.684  27.907
 9302SOL     OW39533   4.224   2.885  27.455
 9302SOL    HW139534   4.240   2.820  27.386
 9302SOL    HW239535   4.129   2.885  27.466
 9303SOL     OW39536   0.657   2.898  24.944
 9303SOL    HW139537   0.743   2.907  24.985
 9303SOL    HW239538   0.673   2.914  24.851
 9304SOL     OW39539   4.219   3.034   0.035
 9304SOL    HW139540   4.275   2.963   0.066
 9304SOL    HW239541   4.277   3.090  28.513
 9305SOL     OW39542   3.094   2.343  18.891
 9305SOL    HW139543   3.088   2.249  18.905
 9305SOL    HW239544   3.171   2.355  18.836
 9306SOL     OW39545   2.417   0.749   5.014
 9306SOL    HW139546   2.393   0.663   5.049
 9306SOL    HW239547   2.400   0.741   4.920
 9307SOL     OW39548   1.351   2.273  25.976
 9307SOL    HW139549   1.343   2.194  26.029
 9307SOL    HW239550   1.277   2.327  26.002
 9308SOL     OW39551   0.764   3.884  26.050
 9308SOL    HW139552   0.779   3.790  26.059
 9308SOL    HW239553   0.712   3.907  26.126
 9309SOL     OW39554   4.173   1.158  22.443
 9309SOL    HW139555   4.141   1.232  22.392
 9309SOL    HW239556   4.268   1.170  22.448
 9310SOL     OW39557   0.094   4.249   6.134
 9310SOL    HW139558   0.038   4.286   6.203
 9310SOL    HW239559   0.081   4.155   6.141
 9311SOL     OW39560   2.451   0.476   0.222
 9311SOL    HW139561   2.427   0.393   0.182
 9311SOL    HW239562   2.408   0.543   0.168
 9312SOL     OW39563   2.140   1.702   5.704
 9312SOL    HW139564   2.106   1.735   5.621
 9312SOL    HW239565   2.230   1.735   5.708
 9313SOL     OW39566   0.020   2.454   3.969
 9313SOL    HW139567   0.036   2.518   4.039
 9313SOL    HW239568   4.761   2.381   4.014
 9314SOL     OW39569   4.452   2.110  24.516
 9314SOL    HW139570   4.542   2.141  24.509
 9314SOL    HW239571   4.417   2.157  24.592
 9315SOL     OW39572   0.336   0.726  20.230
 9315SOL    HW139573   0.368   0.675  20.305
 9315SOL    HW239574   0.250   0.690  20.212
 9316SOL     OW39575   0.989   2.547   6.625
 9316SOL    HW139576   0.960   2.628   6.583
 9316SOL    HW239577   1.084   2.556   6.631
 9317SOL     OW39578   4.721   1.457  25.439
 9317SOL    HW139579   4.682   1.390  25.495
 9317SOL    HW239580   4.684   1.441  25.352
 9318SOL     OW39581   1.927   0.468  11.641
 9318SOL    HW139582   1.996   0.402  11.650
 9318SOL    HW239583   1.912   0.499  11.730
 9319SOL     OW39584   2.315   3.039   7.286
 9319SOL    HW139585   2.301   2.964   7.343
 9319SOL    HW239586   2.324   3.001   7.199
 9320SOL     OW39587   0.230   0.892   8.178
 9320SOL    HW139588   0.260   0.831   8.110
 9320SOL    HW239589   0.205   0.971   8.131
 9321SOL     OW39590   3.690   2.313   6.841
 9321SOL    HW139591   3.771   2.361   6.859
 9321SOL    HW239592   3.678   2.322   6.746
 9322SOL     OW39593   3.478   3.423  21.513
 9322SOL    HW139594   3.496   3.337  21.550
 9322SOL    HW239595   3.419   3.406  21.440
 9323SOL     OW39596   0.966   4.178  22.634
 9323SOL    HW139597   0.973   4.083  22.632
 9323SOL    HW239598   0.950   4.199  22.727
 9324SOL     OW39599   3.630   1.448   1.208
 9324SOL    HW139600   3.681   1.529   1.210
 9324SOL    HW239601   3.558   1.464   1.269
 9325SOL     OW39602   3.459   3.889  22.597
 9325SOL    HW139603   3.517   3.864  22.525
 9325SOL    HW239604   3.514   3.886  22.675
 9326SOL     OW39605   2.987   0.832  22.289
 9326SOL    HW139606   2.950   0.751  22.322
 9326SOL    HW239607   2.964   0.898  22.355
 9327SOL     OW39608   2.771   3.827   9.357
 9327SOL    HW139609   2.766   3.796   9.447
 9327SOL    HW239610   2.734   3.756   9.305
 9328SOL     OW39611   2.457   4.670   9.740
 9328SOL    HW139612   2.437   4.578   9.723
 9328SOL    HW239613   2.474   4.673   9.834
 9329SOL     OW39614   3.491   3.649  19.240
 9329SOL    HW139615   3.486   3.676  19.149
 9329SOL    HW239616   3.513   3.556  19.237
 9330SOL     OW39617   3.114   1.919  20.113
 9330SOL    HW139618   3.110   1.986  20.044
 9330SOL    HW239619   3.083   1.839  20.071
 9331SOL     OW39620   1.492   2.297   0.035
 9331SOL    HW139621   1.505   2.263  28.477
 9331SOL    HW239622   1.448   2.226   0.081
 9332SOL     OW39623   2.296   0.996  27.657
 9332SOL    HW139624   2.245   0.921  27.688
 9332SOL    HW239625   2.271   1.006  27.566
 9333SOL     OW39626   1.645   4.190   4.983
 9333SOL    HW139627   1.683   4.276   4.963
 9333SOL    HW239628   1.638   4.188   5.078
 9334SOL     OW39629   0.650   1.687   7.513
 9334SOL    HW139630   0.723   1.745   7.491
 9334SOL    HW239631   0.572   1.734   7.485
 9335SOL     OW39632   2.569   3.085  10.195
 9335SOL    HW139633   2.574   3.081  10.290
 9335SOL    HW239634   2.478   3.110  10.176
 9336SOL     OW39635   1.452   4.270  23.178
 9336SOL    HW139636   1.436   4.302  23.267
 9336SOL    HW239637   1.409   4.184  23.176
 9337SOL     OW39638   4.455   0.492  20.743
 9337SOL    HW139639   4.485   0.401  20.741
 9337SOL    HW239640   4.533   0.544  20.728
 9338SOL     OW39641   2.242   0.070  19.892
 9338SOL    HW139642   2.189   0.038  19.819
 9338SOL    HW239643   2.255   0.163  19.875
 9339SOL     OW39644   0.537   0.002  25.137
 9339SOL    HW139645   0.628   4.772  25.112
 9339SOL    HW239646   0.536   0.086  25.183
 9340SOL     OW39647   4.462   0.457   3.044
 9340SOL    HW139648   4.423   0.371   3.025
 9340SOL    HW239649   4.508   0.480   2.963
 9341SOL     OW39650   2.548   4.254   3.608
 9341SOL    HW139651   2.473   4.199   3.632
 9341SOL    HW239652   2.618   4.191   3.590
 9342SOL     OW39653   2.847   2.880   1.778
 9342SOL    HW139654   2.772   2.824   1.795
 9342SOL    HW239655   2.911   2.823   1.735
 9343SOL     OW39656   0.396   0.148  21.266
 9343SOL    HW139657   0.384   0.127  21.174
 9343SOL    HW239658   0.319   0.200  21.289
 9344SOL     OW39659   1.511   3.569   1.739
 9344SOL    HW139660   1.418   3.590   1.736
 9344SOL    HW239661   1.555   3.655   1.743
 9345SOL     OW39662   0.555   3.342  28.297
 9345SOL    HW139663   0.583   3.433  28.296
 9345SOL    HW239664   0.585   3.309  28.382
 9346SOL     OW39665   4.282   4.696  19.176
 9346SOL    HW139666   4.286   4.604  19.201
 9346SOL    HW239667   4.200   4.728  19.214
 9347SOL     OW39668   1.043   1.200  20.794
 9347SOL    HW139669   0.990   1.125  20.766
 9347SOL    HW239670   1.088   1.228  20.715
 9348SOL     OW39671   0.532   2.708   5.514
 9348SOL    HW139672   0.610   2.736   5.562
 9348SOL    HW239673   0.475   2.671   5.581
 9349SOL     OW39674   0.964   4.195  23.417
 9349SOL    HW139675   1.040   4.138  23.430
 9349SOL    HW239676   0.890   4.144  23.450
 9350SOL     OW39677   1.457   3.204  24.296
 9350SOL    HW139678   1.443   3.116  24.261
 9350SOL    HW239679   1.406   3.261  24.239
 9351SOL     OW39680   0.846   3.313  27.021
 9351SOL    HW139681   0.752   3.329  27.015
 9351SOL    HW239682   0.886   3.393  26.988
 9352SOL     OW39683   1.426   3.544  26.540
 9352SOL    HW139684   1.426   3.450  26.524
 9352SOL    HW239685   1.437   3.583  26.453
 9353SOL     OW39686   0.213   3.484  20.557
 9353SOL    HW139687   0.209   3.407  20.614
 9353SOL    HW239688   0.164   3.458  20.479
 9354SOL     OW39689   0.272   3.622   5.125
 9354SOL    HW139690   0.307   3.624   5.214
 9354SOL    HW239691   0.225   3.539   5.120
 9355SOL     OW39692   2.969   3.389  24.788
 9355SOL    HW139693   2.984   3.295  24.800
 9355SOL    HW239694   3.030   3.414  24.719
 9356SOL     OW39695   1.007   4.754   9.223
 9356SOL    HW139696   1.047   0.004   9.303
 9356SOL    HW239697   0.913   4.763   9.237
 9357SOL     OW39698   3.992   3.974   4.100
 9357SOL    HW139699   3.938   3.898   4.081
 9357SOL    HW239700   3.930   4.046   4.111
 9358SOL     OW39701   2.463   0.393   8.022
 9358SOL    HW139702   2.475   0.343   7.942
 9358SOL    HW239703   2.522   0.352   8.086
 9359SOL     OW39704   2.296   2.952  21.067
 9359SOL    HW139705   2.311   2.899  21.146
 9359SOL    HW239706   2.361   3.022  21.073
 9360SOL     OW39707   2.609   0.037  24.045
 9360SOL    HW139708   2.600   0.120  24.093
 9360SOL    HW239709   2.585   0.059  23.955
 9361SOL     OW39710   1.544   1.126  27.539
 9361SOL    HW139711   1.479   1.171  27.485
 9361SOL    HW239712   1.621   1.118  27.484
 9362SOL     OW39713   0.607   0.758   1.027
 9362SOL    HW139714   0.522   0.741   1.068
 9362SOL    HW239715   0.617   0.689   0.962
 9363SOL     OW39716   0.884   1.809   1.588
 9363SOL    HW139717   0.908   1.726   1.548
 9363SOL    HW239718   0.965   1.843   1.625
 9364SOL     OW39719   1.752   2.129   7.079
 9364SOL    HW139720   1.705   2.101   7.158
 9364SOL    HW239721   1.827   2.069   7.074
 9365SOL     OW39722   4.411   0.800   2.820
 9365SOL    HW139723   4.374   0.814   2.908
 9365SOL    HW239724   4.486   0.743   2.835
 9366SOL     OW39725   3.348   2.227   3.710
 9366SOL    HW139726   3.337   2.304   3.654
 9366SOL    HW239727   3.259   2.195   3.725
 9367SOL     OW39728   2.486   1.290  26.475
 9367SOL    HW139729   2.516   1.304  26.564
 9367SOL    HW239730   2.406   1.238  26.484
 9368SOL     OW39731   3.829   0.246  24.121
 9368SOL    HW139732   3.783   0.329  24.106
 9368SOL    HW239733   3.810   0.194  24.042
 9369SOL     OW39734   2.894   3.899  24.164
 9369SOL    HW139735   2.971   3.941  24.203
 9369SOL    HW239736   2.925   3.864  24.081
 9370SOL     OW39737   2.310   2.905  24.876
 9370SOL    HW139738   2.347   2.981  24.922
 9370SOL    HW239739   2.223   2.934  24.849
 9371SOL     OW39740   4.089   1.725  27.847
 9371SOL    HW139741   4.035   1.681  27.782
 9371SOL    HW239742   4.080   1.671  27.926
 9372SOL     OW39743   1.498   4.670   1.742
 9372SOL    HW139744   1.460   4.693   1.657
 9372SOL    HW239745   1.501   4.753   1.790
 9373SOL     OW39746   0.230   2.274   2.876
 9373SOL    HW139747   0.236   2.318   2.961
 9373SOL    HW239748   0.321   2.254   2.853
 9374SOL     OW39749   1.456   0.501  24.965
 9374SOL    HW139750   1.475   0.423  24.912
 9374SOL    HW239751   1.541   0.542  24.979
 9375SOL     OW39752   1.784   0.950   7.043
 9375SOL    HW139753   1.764   0.865   7.083
 9375SOL    HW239754   1.868   0.938   7.000
 9376SOL     OW39755   4.633   3.448  22.343
 9376SOL    HW139756   4.642   3.480  22.253
 9376SOL    HW239757   4.583   3.367  22.336
 9377SOL     OW39758   1.475   3.889   4.830
 9377SOL    HW139759   1.562   3.877   4.792
 9377SOL    HW239760   1.422   3.821   4.790
 9378SOL     OW39761   1.848   3.823   3.414
 9378SOL    HW139762   1.905   3.767   3.363
 9378SOL    HW239763   1.845   3.906   3.365
 9379SOL     OW39764   2.070   0.911  22.808
 9379SOL    HW139765   2.147   0.963  22.782
 9379SOL    HW239766   1.996   0.969  22.795
 9380SOL     OW39767   1.117   2.411   6.876
 9380SOL    HW139768   1.107   2.320   6.846
 9380SOL    HW239769   1.202   2.438   6.842
 9381SOL     OW39770   4.564   2.920  17.165
 9381SOL    HW139771   4.625   2.906  17.237
 9381SOL    HW239772   4.619   2.948  17.092
 9382SOL     OW39773   2.787   4.411   1.953
 9382SOL    HW139774   2.794   4.394   1.859
 9382SOL    HW239775   2.721   4.480   1.960
 9383SOL     OW39776   0.299   2.739  18.457
 9383SOL    HW139777   0.371   2.700  18.407
 9383SOL    HW239778   0.290   2.682  18.534
 9384SOL     OW39779   0.208   1.387  26.932
 9384SOL    HW139780   0.253   1.468  26.957
 9384SOL    HW239781   0.276   1.320  26.936
 9385SOL     OW39782   0.722   1.393   3.899
 9385SOL    HW139783   0.680   1.386   3.814
 9385SOL    HW239784   0.673   1.334   3.956
 9386SOL     OW39785   3.361   1.337  25.325
 9386SOL    HW139786   3.282   1.390  25.313
 9386SOL    HW239787   3.432   1.392  25.292
 9387SOL     OW39788   1.692   3.902   4.293
 9387SOL    HW139789   1.777   3.914   4.252
 9387SOL    HW239790   1.695   3.954   4.373
 9388SOL     OW39791   2.239   0.375  22.184
 9388SOL    HW139792   2.306   0.335  22.129
 9388SOL    HW239793   2.177   0.414  22.123
 9389SOL     OW39794   4.572   0.699  19.024
 9389SOL    HW139795   4.534   0.675  19.108
 9389SOL    HW239796   4.504   0.678  18.959
 9390SOL     OW39797   2.410   0.228  27.843
 9390SOL    HW139798   2.339   0.164  27.857
 9390SOL    HW239799   2.485   0.189  27.887
 9391SOL     OW39800   1.963   4.099   6.053
 9391SOL    HW139801   2.045   4.137   6.085
 9391SOL    HW239802   1.989   4.017   6.013
 9392SOL     OW39803   4.241   3.443   5.938
 9392SOL    HW139804   4.195   3.439   6.022
 9392SOL    HW239805   4.333   3.455   5.961
 9393SOL     OW39806   1.975   4.469   2.235
 9393SOL    HW139807   1.915   4.402   2.203
 9393SOL    HW239808   1.990   4.446   2.327
 9394SOL     OW39809   0.492   4.506  19.850
 9394SOL    HW139810   0.539   4.568  19.906
 9394SOL    HW239811   0.509   4.421  19.891
 9395SOL     OW39812   2.114   1.477   3.570
 9395SOL    HW139813   2.151   1.493   3.484
 9395SOL    HW239814   2.188   1.484   3.631
 9396SOL     OW39815   4.717   4.255  24.547
 9396SOL    HW139816   4.767   4.177  24.523
 9396SOL    HW239817   4.724   4.260  24.642
 9397SOL     OW39818   2.675   2.112   6.551
 9397SOL    HW139819   2.618   2.098   6.627
 9397SOL    HW239820   2.707   2.201   6.562
 9398SOL     OW39821   2.860   2.001   5.477
 9398SOL    HW139822   2.911   1.933   5.433
 9398SOL    HW239823   2.875   2.080   5.425
 9399SOL     OW39824   2.584   4.777   3.876
 9399SOL    HW139825   2.610   4.705   3.933
 9399SOL    HW239826   2.539   4.734   3.803
 9400SOL     OW39827   0.495   0.814  25.519
 9400SOL    HW139828   0.404   0.786  25.527
 9400SOL    HW239829   0.508   0.875  25.592
 9401SOL     OW39830   0.810   0.970   6.230
 9401SOL    HW139831   0.721   0.936   6.220
 9401SOL    HW239832   0.840   0.985   6.140
 9402SOL     OW39833   3.512   0.315  23.014
 9402SOL    HW139834   3.532   0.294  22.923
 9402SOL    HW239835   3.436   0.260  23.035
 9403SOL     OW39836   4.053   0.783   6.677
 9403SOL    HW139837   3.976   0.750   6.631
 9403SOL    HW239838   4.124   0.779   6.612
 9404SOL     OW39839   1.248   1.649  24.228
 9404SOL    HW139840   1.321   1.678  24.174
 9404SOL    HW239841   1.212   1.729  24.266
 9405SOL     OW39842   1.314   1.465   0.767
 9405SOL    HW139843   1.257   1.421   0.830
 9405SOL    HW239844   1.256   1.492   0.696
 9406SOL     OW39845   1.766   0.683   9.771
 9406SOL    HW139846   1.765   0.775   9.744
 9406SOL    HW239847   1.675   0.655   9.764
 9407SOL     OW39848   4.032   0.858  22.913
 9407SOL    HW139849   4.112   0.864  22.965
 9407SOL    HW239850   3.973   0.803  22.964
 9408SOL     OW39851   0.035   2.964  25.051
 9408SOL    HW139852   0.068   2.953  24.962
 9408SOL    HW239853   0.020   3.058  25.059
 9409SOL     OW39854   2.657   2.824   8.555
 9409SOL    HW139855   2.603   2.894   8.592
 9409SOL    HW239856   2.606   2.793   8.479
 9410SOL     OW39857   1.715   4.380   2.168
 9410SOL    HW139858   1.759   4.299   2.195
 9410SOL    HW239859   1.662   4.354   2.092
 9411SOL     OW39860   3.708   2.639  27.167
 9411SOL    HW139861   3.664   2.626  27.251
 9411SOL    HW239862   3.658   2.709  27.124
 9412SOL     OW39863   3.152   4.659   1.722
 9412SOL    HW139864   3.184   4.743   1.689
 9412SOL    HW239865   3.188   4.595   1.661
 9413SOL     OW39866   0.775   3.836  17.058
 9413SOL    HW139867   0.710   3.830  17.128
 9413SOL    HW239868   0.839   3.900  17.091
 9414SOL     OW39869   1.894   1.816   1.848
 9414SOL    HW139870   1.936   1.819   1.762
 9414SOL    HW239871   1.869   1.724   1.858
 9415SOL     OW39872   3.495   1.517  11.486
 9415SOL    HW139873   3.407   1.507  11.523
 9415SOL    HW239874   3.492   1.468  11.404
 9416SOL     OW39875   2.523   2.618  22.426
 9416SOL    HW139876   2.451   2.559  22.449
 9416SOL    HW239877   2.480   2.699  22.399
 9417SOL     OW39878   3.553   0.218  27.399
 9417SOL    HW139879   3.566   0.128  27.371
 9417SOL    HW239880   3.474   0.216  27.453
 9418SOL     OW39881   0.823   3.236   0.084
 9418SOL    HW139882   0.908   3.278   0.074
 9418SOL    HW239883   0.810   3.190   0.001
 9419SOL     OW39884   2.767   2.271   8.292
 9419SOL    HW139885   2.686   2.224   8.310
 9419SOL    HW239886   2.760   2.352   8.342
 9420SOL     OW39887   1.261   4.395  27.618
 9420SOL    HW139888   1.233   4.389  27.527
 9420SOL    HW239889   1.262   4.305  27.649
 9421SOL     OW39890   2.939   3.786  23.880
 9421SOL    HW139891   2.958   3.706  23.830
 9421SOL    HW239892   2.850   3.809  23.855
 9422SOL     OW39893   1.960   2.350  23.094
 9422SOL    HW139894   1.904   2.288  23.140
 9422SOL    HW239895   2.049   2.318  23.108
 9423SOL     OW39896   3.422   4.090  27.993
 9423SOL    HW139897   3.497   4.035  28.017
 9423SOL    HW239898   3.439   4.113  27.902
 9424SOL     OW39899   4.049   1.107   3.840
 9424SOL    HW139900   4.069   1.026   3.888
 9424SOL    HW239901   4.081   1.090   3.751
 9425SOL     OW39902   4.287   2.587  17.449
 9425SOL    HW139903   4.223   2.544  17.506
 9425SOL    HW239904   4.371   2.549  17.476
 9426SOL     OW39905   3.890   4.721  27.744
 9426SOL    HW139906   3.844   4.662  27.683
 9426SOL    HW239907   3.845   0.023  27.735
 9427SOL     OW39908   2.659   4.170  25.428
 9427SOL    HW139909   2.639   4.105  25.496
 9427SOL    HW239910   2.589   4.235  25.436
 9428SOL     OW39911   2.792   3.781  21.008
 9428SOL    HW139912   2.828   3.869  21.022
 9428SOL    HW239913   2.840   3.747  20.932
 9429SOL     OW39914   2.195   2.560  23.371
 9429SOL    HW139915   2.228   2.470  23.379
 9429SOL    HW239916   2.249   2.611  23.432
 9430SOL     OW39917   4.744   4.303  24.822
 9430SOL    HW139918   4.778   4.286  24.909
 9430SOL    HW239919   4.654   4.332  24.837
 9431SOL     OW39920   2.632   2.799   0.483
 9431SOL    HW139921   2.679   2.852   0.419
 9431SOL    HW239922   2.661   2.832   0.568
 9432SOL     OW39923   2.113   3.165  19.106
 9432SOL    HW139924   2.098   3.214  19.025
 9432SOL    HW239925   2.188   3.209  19.147
 9433SOL     OW39926   2.145   1.071   2.875
 9433SOL    HW139927   2.085   1.120   2.819
 9433SOL    HW239928   2.113   1.086   2.964
 9434SOL     OW39929   2.108   4.210   8.755
 9434SOL    HW139930   2.184   4.263   8.732
 9434SOL    HW239931   2.138   4.155   8.827
 9435SOL     OW39932   0.554   0.042   4.216
 9435SOL    HW139933   0.589   0.087   4.140
 9435SOL    HW239934   0.491   0.104   4.253
 9436SOL     OW39935   1.937   3.619   9.846
 9436SOL    HW139936   1.853   3.660   9.866
 9436SOL    HW239937   1.957   3.647   9.756
 9437SOL     OW39938   3.910   4.416  27.303
 9437SOL    HW139939   3.844   4.480  27.277
 9437SOL    HW239940   3.918   4.357  27.228
 9438SOL     OW39941   1.471   1.609  10.485
 9438SOL    HW139942   1.498   1.697  10.511
 9438SOL    HW239943   1.543   1.553  10.512
 9439SOL     OW39944   2.768   3.175  20.872
 9439SOL    HW139945   2.743   3.252  20.821
 9439SOL    HW239946   2.777   3.208  20.962
 9440SOL     OW39947   0.055   3.027  21.666
 9440SOL    HW139948   0.053   2.951  21.724
 9440SOL    HW239949   4.782   3.092  21.710
 9441SOL     OW39950   1.043   4.422   0.672
 9441SOL    HW139951   1.072   4.420   0.581
 9441SOL    HW239952   0.990   4.342   0.682
 9442SOL     OW39953   1.162   0.497  23.085
 9442SOL    HW139954   1.137   0.586  23.061
 9442SOL    HW239955   1.165   0.498  23.181
 9443SOL     OW39956   3.779   0.538  27.551
 9443SOL    HW139957   3.794   0.531  27.645
 9443SOL    HW239958   3.733   0.622  27.540
 9444SOL     OW39959   2.898   0.617  25.136
 9444SOL    HW139960   2.894   0.527  25.168
 9444SOL    HW239961   2.876   0.611  25.043
 9445SOL     OW39962   0.671   3.866  20.047
 9445SOL    HW139963   0.684   3.795  20.109
 9445SOL    HW239964   0.578   3.887  20.053
 9446SOL     OW39965   3.312   1.211  17.290
 9446SOL    HW139966   3.276   1.145  17.349
 9446SOL    HW239967   3.309   1.170  17.204
 9447SOL     OW39968   1.478   3.557   4.109
 9447SOL    HW139969   1.571   3.581   4.114
 9447SOL    HW239970   1.438   3.626   4.056
 9448SOL     OW39971   4.432   2.216   6.665
 9448SOL    HW139972   4.478   2.300   6.668
 9448SOL    HW239973   4.497   2.155   6.631
 9449SOL     OW39974   1.385   3.912  21.292
 9449SOL    HW139975   1.417   4.002  21.297
 9449SOL    HW239976   1.409   3.883  21.204
 9450SOL     OW39977   0.356   4.606   5.342
 9450SOL    HW139978   0.265   4.633   5.353
 9450SOL    HW239979   0.366   4.530   5.400
 9451SOL     OW39980   3.612   0.915  21.416
 9451SOL    HW139981   3.558   0.860  21.359
 9451SOL    HW239982   3.702   0.896  21.388
 9452SOL     OW39983   4.089   3.172  26.688
 9452SOL    HW139984   4.131   3.086  26.691
 9452SOL    HW239985   4.012   3.159  26.632
 9453SOL     OW39986   4.749   3.410   1.217
 9453SOL    HW139987   4.722   3.412   1.309
 9453SOL    HW239988   4.767   3.501   1.195
 9454SOL     OW39989   0.640   1.866  18.383
 9454SOL    HW139990   0.653   1.957  18.354
 9454SOL    HW239991   0.549   1.847  18.361
 9455SOL     OW39992   0.374   1.904  22.978
 9455SOL    HW139993   0.411   1.897  22.890
 9455SOL    HW239994   0.450   1.908  23.036
 9456SOL     OW39995   3.472   4.233  18.489
 9456SOL    HW139996   3.529   4.215  18.564
 9456SOL    HW239997   3.532   4.246  18.416
 9457SOL     OW39998   2.936   2.430  26.628
 9457SOL    HW139999   2.853   2.477  26.620
 9457SOL    HW240000   2.959   2.435  26.720
 9458SOL     OW40001   0.112   2.258   9.190
 9458SOL    HW140002   0.139   2.294   9.274
 9458SOL    HW240003   0.068   2.176   9.212
 9459SOL     OW40004   4.368   0.715   8.443
 9459SOL    HW140005   4.417   0.649   8.393
 9459SOL    HW240006   4.433   0.781   8.467
 9460SOL     OW40007   3.633   1.018   2.445
 9460SOL    HW140008   3.716   1.059   2.421
 9460SOL    HW240009   3.610   1.058   2.529
 9461SOL     OW40010   1.223   4.082   3.980
 9461SOL    HW140011   1.191   4.075   4.070
 9461SOL    HW240012   1.243   4.175   3.969
 9462SOL     OW40013   1.350   2.202   5.733
 9462SOL    HW140014   1.273   2.175   5.783
 9462SOL    HW240015   1.417   2.137   5.756
 9463SOL     OW40016   4.315   2.793  17.244
 9463SOL    HW140017   4.294   2.730  17.313
 9463SOL    HW240018   4.369   2.743  17.182
 9464SOL     OW40019   0.573   1.638  24.058
 9464SOL    HW140020   0.604   1.723  24.088
 9464SOL    HW240021   0.559   1.649  23.964
 9465SOL     OW40022   3.825   4.769   8.208
 9465SOL    HW140023   3.876   0.021   8.281
 9465SOL    HW240024   3.734   0.006   8.231
 9466SOL     OW40025   2.851   1.013  22.449
 9466SOL    HW140026   2.859   0.987  22.541
 9466SOL    HW240027   2.758   1.000  22.428
 9467SOL     OW40028   2.129   1.811   2.972
 9467SOL    HW140029   2.120   1.771   2.886
 9467SOL    HW240030   2.094   1.900   2.962
 9468SOL     OW40031   0.626   1.465  21.098
 9468SOL    HW140032   0.588   1.537  21.047
 9468SOL    HW240033   0.710   1.500  21.129
 9469SOL     OW40034   1.001   4.446  23.348
 9469SOL    HW140035   0.954   4.495  23.415
 9469SOL    HW240036   0.999   4.355  23.378
 9470SOL     OW40037   0.013   0.734   2.742
 9470SOL    HW140038   0.088   0.743   2.683
 9470SOL    HW240039   4.742   0.812   2.726
 9471SOL     OW40040   3.530   2.516   6.906
 9471SOL    HW140041   3.494   2.508   6.994
 9471SOL    HW240042   3.584   2.438   6.894
 9472SOL     OW40043   0.824   4.768  22.973
 9472SOL    HW140044   0.809   0.080  22.969
 9472SOL    HW240045   0.805   4.738  22.884
 9473SOL     OW40046   2.017   2.543  18.045
 9473SOL    HW140047   2.029   2.638  18.050
 9473SOL    HW240048   2.099   2.507  18.080
 9474SOL     OW40049   1.476   3.637   6.696
 9474SOL    HW140050   1.512   3.667   6.779
 9474SOL    HW240051   1.383   3.658   6.701
 9475SOL     OW40052   3.587   1.725   2.962
 9475SOL    HW140053   3.518   1.699   2.901
 9475SOL    HW240054   3.616   1.811   2.929
 9476SOL     OW40055   4.045   3.446   2.520
 9476SOL    HW140056   4.010   3.504   2.588
 9476SOL    HW240057   3.981   3.375   2.513
 9477SOL     OW40058   0.044   1.617   6.547
 9477SOL    HW140059   4.753   1.561   6.572
 9477SOL    HW240060   0.003   1.696   6.512
 9478SOL     OW40061   0.535   1.057   5.364
 9478SOL    HW140062   0.481   0.985   5.395
 9478SOL    HW240063   0.488   1.093   5.289
 9479SOL     OW40064   3.006   3.154   3.662
 9479SOL    HW140065   3.028   3.125   3.573
 9479SOL    HW240066   2.916   3.123   3.675
 9480SOL     OW40067   3.485   1.448  20.624
 9480SOL    HW140068   3.507   1.498  20.702
 9480SOL    HW240069   3.542   1.372  20.626
 9481SOL     OW40070   1.182   0.801   3.430
 9481SOL    HW140071   1.151   0.711   3.438
 9481SOL    HW240072   1.106   0.855   3.455
 9482SOL     OW40073   0.849   4.260   4.250
 9482SOL    HW140074   0.913   4.195   4.280
 9482SOL    HW240075   0.770   4.209   4.233
 9483SOL     OW40076   2.311   4.703   7.809
 9483SOL    HW140077   2.382   4.648   7.777
 9483SOL    HW240078   2.231   4.664   7.773
 9484SOL     OW40079   1.289   3.234   9.253
 9484SOL    HW140080   1.295   3.220   9.347
 9484SOL    HW240081   1.361   3.183   9.217
 9485SOL     OW40082   1.698   3.993   2.528
 9485SOL    HW140083   1.698   3.952   2.614
 9485SOL    HW240084   1.783   4.037   2.523
 9486SOL     OW40085   2.682   0.730   6.634
 9486SOL    HW140086   2.687   0.825   6.626
 9486SOL    HW240087   2.641   0.701   6.553
 9487SOL     OW40088   0.531   1.359   6.968
 9487SOL    HW140089   0.516   1.336   7.060
 9487SOL    HW240090   0.586   1.437   6.971
 9488SOL     OW40091   1.731   4.458  11.681
 9488SOL    HW140092   1.653   4.426  11.728
 9488SOL    HW240093   1.731   4.553  11.698
 9489SOL     OW40094   0.931   1.191  25.979
 9489SOL    HW140095   0.981   1.223  25.904
 9489SOL    HW240096   0.908   1.271  26.028
 9490SOL     OW40097   3.081   3.593   0.994
 9490SOL    HW140098   3.076   3.499   0.976
 9490SOL    HW240099   3.147   3.626   0.932
 9491SOL     OW40100   0.615   1.859   1.579
 9491SOL    HW140101   0.585   1.894   1.663
 9491SOL    HW240102   0.710   1.860   1.585
 9492SOL     OW40103   0.645   1.418   7.404
 9492SOL    HW140104   0.641   1.509   7.434
 9492SOL    HW240105   0.585   1.414   7.330
 9493SOL     OW40106   1.894   2.926   0.374
 9493SOL    HW140107   1.843   2.852   0.409
 9493SOL    HW240108   1.934   2.965   0.452
 9494SOL     OW40109   3.158   1.710   3.799
 9494SOL    HW140110   3.190   1.642   3.740
 9494SOL    HW240111   3.216   1.785   3.783
 9495SOL     OW40112   1.783   0.549  19.496
 9495SOL    HW140113   1.778   0.640  19.525
 9495SOL    HW240114   1.790   0.499  19.577
 9496SOL     OW40115   4.347   0.544   0.883
 9496SOL    HW140116   4.298   0.473   0.925
 9496SOL    HW240117   4.317   0.624   0.927
 9497SOL     OW40118   3.250   0.769   0.081
 9497SOL    HW140119   3.213   0.856   0.068
 9497SOL    HW240120   3.345   0.784   0.085
 9498SOL     OW40121   1.535   0.713   8.603
 9498SOL    HW140122   1.589   0.791   8.592
 9498SOL    HW240123   1.586   0.655   8.659
 9499SOL     OW40124   1.001   4.743   9.917
 9499SOL    HW140125   1.011   4.732   9.822
 9499SOL    HW240126   0.969   0.051   9.927
 9500SOL     OW40127   1.004   2.011  20.911
 9500SOL    HW140128   0.948   1.963  20.972
 9500SOL    HW240129   1.007   2.100  20.946
 9501SOL     OW40130   1.480   0.081   1.511
 9501SOL    HW140131   1.451   0.156   1.563
 9501SOL    HW240132   1.447   0.098   1.423
 9502SOL     OW40133   0.519   3.003  21.820
 9502SOL    HW140134   0.557   2.920  21.792
 9502SOL    HW240135   0.464   3.031  21.747
 9503SOL     OW40136   2.031   0.072  11.925
 9503SOL    HW140137   2.090   0.067  12.000
 9503SOL    HW240138   1.944   0.059  11.961
 9504SOL     OW40139   2.274   3.194   7.976
 9504SOL    HW140140   2.270   3.140   7.897
 9504SOL    HW240141   2.303   3.280   7.945
 9505SOL     OW40142   2.392   1.400   1.443
 9505SOL    HW140143   2.431   1.473   1.395
 9505SOL    HW240144   2.462   1.334   1.447
 9506SOL     OW40145   2.704   1.428  21.366
 9506SOL    HW140146   2.753   1.346  21.366
 9506SOL    HW240147   2.612   1.401  21.369
 9507SOL     OW40148   2.028   3.591   6.701
 9507SOL    HW140149   1.971   3.529   6.656
 9507SOL    HW240150   2.105   3.539   6.725
 9508SOL     OW40151   1.593   4.076  26.954
 9508SOL    HW140152   1.653   4.146  26.929
 9508SOL    HW240153   1.508   4.104  26.920
 9509SOL     OW40154   3.683   4.500  23.614
 9509SOL    HW140155   3.728   4.454  23.542
 9509SOL    HW240156   3.726   4.468  23.693
 9510SOL     OW40157   2.160   1.802  26.801
 9510SOL    HW140158   2.115   1.852  26.869
 9510SOL    HW240159   2.221   1.746  26.849
 9511SOL     OW40160   4.288   2.165  19.005
 9511SOL    HW140161   4.298   2.207  18.920
 9511SOL    HW240162   4.329   2.226  19.067
 9512SOL     OW40163   0.508   4.658  25.378
 9512SOL    HW140164   0.494   4.703  25.295
 9512SOL    HW240165   0.437   4.689  25.434
 9513SOL     OW40166   0.665   2.157   6.462
 9513SOL    HW140167   0.729   2.090   6.440
 9513SOL    HW240168   0.715   2.239   6.462
 9514SOL     OW40169   1.206   2.477   0.916
 9514SOL    HW140170   1.192   2.432   0.999
 9514SOL    HW240171   1.232   2.566   0.941
 9515SOL     OW40172   4.146   1.384  22.897
 9515SOL    HW140173   4.188   1.357  22.816
 9515SOL    HW240174   4.057   1.349  22.890
 9516SOL     OW40175   3.273   0.252  27.874
 9516SOL    HW140176   3.181   0.230  27.859
 9516SOL    HW240177   3.272   0.342  27.903
 9517SOL     OW40178   0.585   0.228  23.645
 9517SOL    HW140179   0.595   0.165  23.717
 9517SOL    HW240180   0.672   0.267  23.635
 9518SOL     OW40181   0.220   1.249  20.230
 9518SOL    HW140182   0.227   1.161  20.268
 9518SOL    HW240183   0.308   1.267  20.196
 9519SOL     OW40184   2.739   0.051  11.329
 9519SOL    HW140185   2.667   0.110  11.351
 9519SOL    HW240186   2.698   4.748  11.314
 9520SOL     OW40187   1.850   4.776  25.562
 9520SOL    HW140188   1.896   4.698  25.531
 9520SOL    HW240189   1.911   0.065  25.545
 9521SOL     OW40190   2.777   0.171   0.975
 9521SOL    HW140191   2.719   0.099   0.949
 9521SOL    HW240192   2.854   0.162   0.917
 9522SOL     OW40193   0.230   2.724   2.708
 9522SOL    HW140194   0.195   2.635   2.704
 9522SOL    HW240195   0.190   2.762   2.787
 9523SOL     OW40196   3.744   2.889  18.042
 9523SOL    HW140197   3.648   2.894  18.047
 9523SOL    HW240198   3.775   2.951  18.107
 9524SOL     OW40199   0.546   1.724   0.861
 9524SOL    HW140200   0.586   1.680   0.936
 9524SOL    HW240201   0.617   1.732   0.797
 9525SOL     OW40202   4.446   2.048   4.012
 9525SOL    HW140203   4.373   2.026   4.070
 9525SOL    HW240204   4.522   2.006   4.051
 9526SOL     OW40205   4.313   2.641   0.324
 9526SOL    HW140206   4.317   2.709   0.391
 9526SOL    HW240207   4.387   2.583   0.344
 9527SOL     OW40208   2.216   0.966   9.088
 9527SOL    HW140209   2.246   1.047   9.047
 9527SOL    HW240210   2.297   0.926   9.121
 9528SOL     OW40211   3.818   2.843  25.525
 9528SOL    HW140212   3.800   2.931  25.491
 9528SOL    HW240213   3.905   2.822  25.492
 9529SOL     OW40214   1.318   3.252   9.545
 9529SOL    HW140215   1.356   3.166   9.559
 9529SOL    HW240216   1.255   3.263   9.616
 9530SOL     OW40217   4.358   0.699  26.853
 9530SOL    HW140218   4.348   0.627  26.915
 9530SOL    HW240219   4.446   0.687  26.816
 9531SOL     OW40220   0.524   1.213  25.613
 9531SOL    HW140221   0.434   1.246  25.605
 9531SOL    HW240222   0.579   1.283  25.577
 9532SOL     OW40223   4.462   0.906  17.933
 9532SOL    HW140224   4.404   0.974  17.967
 9532SOL    HW240225   4.471   0.926  17.840
 9533SOL     OW40226   2.965   0.169  25.370
 9533SOL    HW140227   2.875   0.138  25.362
 9533SOL    HW240228   3.003   0.114  25.439
 9534SOL     OW40229   0.031   3.422   2.693
 9534SOL    HW140230   0.094   3.474   2.743
 9534SOL    HW240231   4.767   3.371   2.759
 9535SOL     OW40232   1.307   3.414  20.934
 9535SOL    HW140233   1.273   3.399  20.846
 9535SOL    HW240234   1.394   3.372  20.934
 9536SOL     OW40235   2.645   3.701  19.900
 9536SOL    HW140236   2.599   3.752  19.834
 9536SOL    HW240237   2.697   3.638  19.851
 9537SOL     OW40238   4.576   4.011  18.624
 9537SOL    HW140239   4.565   3.955  18.548
 9537SOL    HW240240   4.668   3.999  18.650
 9538SOL     OW40241   4.033   2.786  17.301
 9538SOL    HW140242   3.977   2.861  17.280
 9538SOL    HW240243   4.120   2.810  17.269
 9539SOL     OW40244   2.024   3.867   4.496
 9539SOL    HW140245   2.106   3.917   4.500
 9539SOL    HW240246   1.984   3.893   4.413
 9540SOL     OW40247   3.421   4.776  26.099
 9540SOL    HW140248   3.450   0.017  26.011
 9540SOL    HW240249   3.457   0.062  26.156
 9541SOL     OW40250   4.178   1.682   9.284
 9541SOL    HW140251   4.225   1.707   9.364
 9541SOL    HW240252   4.086   1.701   9.303
 9542SOL     OW40253   4.300   1.799  19.513
 9542SOL    HW140254   4.390   1.829  19.522
 9542SOL    HW240255   4.296   1.760  19.425
 9543SOL     OW40256   2.833   0.373  25.230
 9543SOL    HW140257   2.904   0.316  25.257
 9543SOL    HW240258   2.774   0.316  25.180
 9544SOL     OW40259   3.731   2.203   2.935
 9544SOL    HW140260   3.723   2.107   2.933
 9544SOL    HW240261   3.647   2.234   2.902
 9545SOL     OW40262   1.964   3.747  22.793
 9545SOL    HW140263   1.878   3.781  22.766
 9545SOL    HW240264   1.944   3.682  22.860
 9546SOL     OW40265   1.353   0.745   5.506
 9546SOL    HW140266   1.359   0.667   5.562
 9546SOL    HW240267   1.378   0.714   5.419
 9547SOL     OW40268   4.144   2.407  23.691
 9547SOL    HW140269   4.233   2.435  23.714
 9547SOL    HW240270   4.109   2.371  23.772
 9548SOL     OW40271   2.012   0.966  24.928
 9548SOL    HW140272   2.026   0.871  24.928
 9548SOL    HW240273   2.042   0.994  24.841
 9549SOL     OW40274   3.926   4.532   1.700
 9549SOL    HW140275   4.020   4.550   1.698
 9549SOL    HW240276   3.885   4.614   1.726
 9550SOL     OW40277   0.033   0.266  20.283
 9550SOL    HW140278   4.758   0.331  20.324
 9550SOL    HW240279   0.119   0.284  20.321
 9551SOL     OW40280   1.918   2.175   0.328
 9551SOL    HW140281   1.904   2.104   0.266
 9551SOL    HW240282   1.855   2.158   0.398
 9552SOL     OW40283   3.372   0.210  21.332
 9552SOL    HW140284   3.343   0.182  21.245
 9552SOL    HW240285   3.420   0.291  21.316
 9553SOL     OW40286   4.685   2.820  24.109
 9553SOL    HW140287   4.637   2.829  24.191
 9553SOL    HW240288   4.676   2.905  24.065
 9554SOL     OW40289   0.552   2.483  23.670
 9554SOL    HW140290   0.542   2.471  23.764
 9554SOL    HW240291   0.487   2.549  23.647
 9555SOL     OW40292   3.666   0.080   8.981
 9555SOL    HW140293   3.700   0.082   9.071
 9555SOL    HW240294   3.583   0.129   8.986
 9556SOL     OW40295   0.476   3.945  19.082
 9556SOL    HW140296   0.517   4.027  19.054
 9556SOL    HW240297   0.429   3.968  19.162
 9557SOL     OW40298   3.387   1.918   9.026
 9557SOL    HW140299   3.414   1.950   9.112
 9557SOL    HW240300   3.371   1.824   9.039
 9558SOL     OW40301   2.267   4.774  25.738
 9558SOL    HW140302   2.345   0.043  25.757
 9558SOL    HW240303   2.226   4.759  25.824
 9559SOL     OW40304   3.661   2.856   3.020
 9559SOL    HW140305   3.695   2.781   3.069
 9559SOL    HW240306   3.569   2.861   3.044
 9560SOL     OW40307   4.528   3.690  23.148
 9560SOL    HW140308   4.605   3.651  23.190
 9560SOL    HW240309   4.486   3.617  23.102
 9561SOL     OW40310   4.316   1.761   9.513
 9561SOL    HW140311   4.283   1.840   9.555
 9561SOL    HW240312   4.400   1.787   9.474
 9562SOL     OW40313   0.563   0.877  26.070
 9562SOL    HW140314   0.583   0.809  26.133
 9562SOL    HW240315   0.477   0.909  26.094
 9563SOL     OW40316   4.199   2.071  19.625
 9563SOL    HW140317   4.184   1.977  19.634
 9563SOL    HW240318   4.290   2.078  19.595
 9564SOL     OW40319   2.683   4.552   4.041
 9564SOL    HW140320   2.671   4.513   4.127
 9564SOL    HW240321   2.778   4.560   4.032
 9565SOL     OW40322   0.844   2.615   5.088
 9565SOL    HW140323   0.922   2.658   5.052
 9565SOL    HW240324   0.788   2.687   5.116
 9566SOL     OW40325   1.927   2.808   4.857
 9566SOL    HW140326   1.850   2.753   4.868
 9566SOL    HW240327   1.931   2.826   4.763
 9567SOL     OW40328   3.329   0.962   2.833
 9567SOL    HW140329   3.302   0.874   2.806
 9567SOL    HW240330   3.276   1.021   2.780
 9568SOL     OW40331   4.321   3.245   8.773
 9568SOL    HW140332   4.398   3.291   8.739
 9568SOL    HW240333   4.318   3.163   8.724
 9569SOL     OW40334   1.696   0.983  24.756
 9569SOL    HW140335   1.728   0.896  24.732
 9569SOL    HW240336   1.715   1.038  24.680
 9570SOL     OW40337   2.842   3.104  23.758
 9570SOL    HW140338   2.804   3.190  23.773
 9570SOL    HW240339   2.838   3.060  23.843
 9571SOL     OW40340   1.936   3.960   9.839
 9571SOL    HW140341   1.861   3.997   9.885
 9571SOL    HW240342   1.912   3.968   9.746
 9572SOL     OW40343   1.192   0.575   1.795
 9572SOL    HW140344   1.160   0.596   1.882
 9572SOL    HW240345   1.119   0.530   1.752
 9573SOL     OW40346   1.191   0.684  22.068
 9573SOL    HW140347   1.130   0.679  21.995
 9573SOL    HW240348   1.274   0.711  22.028
 9574SOL     OW40349   0.546   2.346  23.443
 9574SOL    HW140350   0.517   2.417  23.385
 9574SOL    HW240351   0.566   2.389  23.526
 9575SOL     OW40352   0.696   3.328   6.250
 9575SOL    HW140353   0.679   3.272   6.174
 9575SOL    HW240354   0.679   3.416   6.218
 9576SOL     OW40355   3.173   1.779   1.782
 9576SOL    HW140356   3.092   1.751   1.740
 9576SOL    HW240357   3.202   1.701   1.831
 9577SOL     OW40358   4.432   1.502   9.251
 9577SOL    HW140359   4.405   1.421   9.295
 9577SOL    HW240360   4.354   1.559   9.257
 9578SOL     OW40361   3.750   2.756  23.650
 9578SOL    HW140362   3.834   2.764  23.605
 9578SOL    HW240363   3.686   2.744  23.581
 9579SOL     OW40364   4.173   3.818   9.709
 9579SOL    HW140365   4.126   3.858   9.783
 9579SOL    HW240366   4.186   3.890   9.647
 9580SOL     OW40367   2.667   3.557   4.343
 9580SOL    HW140368   2.668   3.485   4.279
 9580SOL    HW240369   2.756   3.593   4.339
 9581SOL     OW40370   3.223   1.606   1.126
 9581SOL    HW140371   3.272   1.536   1.083
 9581SOL    HW240372   3.133   1.575   1.129
 9582SOL     OW40373   0.119   2.482   2.754
 9582SOL    HW140374   0.170   2.424   2.811
 9582SOL    HW240375   0.031   2.443   2.753
 9583SOL     OW40376   3.226   3.391  20.988
 9583SOL    HW140377   3.310   3.421  21.022
 9583SOL    HW240378   3.175   3.471  20.974
 9584SOL     OW40379   3.800   0.850  26.304
 9584SOL    HW140380   3.776   0.843  26.211
 9584SOL    HW240381   3.800   0.760  26.336
 9585SOL     OW40382   1.991   0.001  17.930
 9585SOL    HW140383   2.012   4.778  18.024
 9585SOL    HW240384   1.919   0.064  17.926
 9586SOL     OW40385   3.888   2.656   3.915
 9586SOL    HW140386   3.965   2.599   3.915
 9586SOL    HW240387   3.923   2.744   3.899
 9587SOL     OW40388   1.298   2.962  26.705
 9587SOL    HW140389   1.259   2.927  26.784
 9587SOL    HW240390   1.255   3.047  26.692
 9588SOL     OW40391   2.272   3.619  26.191
 9588SOL    HW140392   2.229   3.705  26.194
 9588SOL    HW240393   2.362   3.638  26.168
 9589SOL     OW40394   3.715   4.577   9.287
 9589SOL    HW140395   3.748   4.553   9.374
 9589SOL    HW240396   3.794   4.599   9.237
 9590SOL     OW40397   4.319   0.881  25.647
 9590SOL    HW140398   4.335   0.896  25.741
 9590SOL    HW240399   4.225   0.860  25.642
 9591SOL     OW40400   3.146   2.944   6.021
 9591SOL    HW140401   3.101   2.919   5.940
 9591SOL    HW240402   3.174   2.861   6.060
 9592SOL     OW40403   4.685   1.980  19.793
 9592SOL    HW140404   4.750   2.049  19.805
 9592SOL    HW240405   4.734   1.898  19.805
 9593SOL     OW40406   1.360   1.897   7.819
 9593SOL    HW140407   1.309   1.977   7.832
 9593SOL    HW240408   1.451   1.923   7.835
 9594SOL     OW40409   2.683   3.592  26.067
 9594SOL    HW140410   2.671   3.683  26.039
 9594SOL    HW240411   2.742   3.597  26.142
 9595SOL     OW40412   2.717   0.742   0.413
 9595SOL    HW140413   2.777   0.732   0.486
 9595SOL    HW240414   2.719   0.658   0.367
 9596SOL     OW40415   1.191   2.280  22.074
 9596SOL    HW140416   1.193   2.374  22.055
 9596SOL    HW240417   1.098   2.260  22.086
 9597SOL     OW40418   3.640   1.219   1.423
 9597SOL    HW140419   3.586   1.297   1.437
 9597SOL    HW240420   3.729   1.252   1.420
 9598SOL     OW40421   4.709   4.593   0.955
 9598SOL    HW140422   4.647   4.572   0.885
 9598SOL    HW240423   4.659   4.584   1.036
 9599SOL     OW40424   4.268   0.152  27.498
 9599SOL    HW140425   4.247   0.226  27.556
 9599SOL    HW240426   4.318   0.092  27.554
 9600SOL     OW40427   1.362   2.410   0.488
 9600SOL    HW140428   1.422   2.401   0.414
 9600SOL    HW240429   1.275   2.410   0.448
 9601SOL     OW40430   0.759   3.113   1.130
 9601SOL    HW140431   0.811   3.193   1.137
 9601SOL    HW240432   0.722   3.117   1.042
 9602SOL     OW40433   3.731   2.418   7.907
 9602SOL    HW140434   3.759   2.409   7.999
 9602SOL    HW240435   3.638   2.399   7.909
 9603SOL     OW40436   0.480   1.533  18.182
 9603SOL    HW140437   0.486   1.513  18.275
 9603SOL    HW240438   0.496   1.448  18.139
 9604SOL     OW40439   0.728   3.547   9.054
 9604SOL    HW140440   0.799   3.494   9.016
 9604SOL    HW240441   0.773   3.612   9.107
 9605SOL     OW40442   3.076   1.012   3.931
 9605SOL    HW140443   3.115   1.093   3.899
 9605SOL    HW240444   3.053   0.964   3.852
 9606SOL     OW40445   2.077   3.587  20.082
 9606SOL    HW140446   2.164   3.577  20.046
 9606SOL    HW240447   2.044   3.669  20.044
 9607SOL     OW40448   2.884   1.572  18.385
 9607SOL    HW140449   2.845   1.488  18.406
 9607SOL    HW240450   2.967   1.550  18.342
 9608SOL     OW40451   0.839   2.288  22.449
 9608SOL    HW140452   0.916   2.302  22.505
 9608SOL    HW240453   0.788   2.368  22.460
 9609SOL     OW40454   4.242   0.268  19.892
 9609SOL    HW140455   4.307   0.204  19.863
 9609SOL    HW240456   4.277   0.353  19.864
 9610SOL     OW40457   3.779   4.037   4.250
 9610SOL    HW140458   3.767   4.130   4.271
 9610SOL    HW240459   3.694   3.997   4.272
 9611SOL     OW40460   1.884   4.682   0.917
 9611SOL    HW140461   1.951   4.742   0.950
 9611SOL    HW240462   1.813   4.739   0.888
 9612SOL     OW40463   1.363   2.918  22.878
 9612SOL    HW140464   1.356   2.935  22.972
 9612SOL    HW240465   1.435   2.974  22.848
 9613SOL     OW40466   1.929   1.349   6.546
 9613SOL    HW140467   1.890   1.346   6.458
 9613SOL    HW240468   1.861   1.312   6.602
 9614SOL     OW40469   1.409   1.115   7.658
 9614SOL    HW140470   1.350   1.093   7.730
 9614SOL    HW240471   1.497   1.105   7.694
 9615SOL     OW40472   1.808   3.214   9.751
 9615SOL    HW140473   1.732   3.156   9.744
 9615SOL    HW240474   1.838   3.202   9.842
 9616SOL     OW40475   0.564   3.434  26.258
 9616SOL    HW140476   0.609   3.431  26.343
 9616SOL    HW240477   0.570   3.345  26.224
 9617SOL     OW40478   2.134   3.976   8.902
 9617SOL    HW140479   2.166   3.972   8.992
 9617SOL    HW240480   2.190   3.914   8.854
 9618SOL     OW40481   2.061   3.767   1.874
 9618SOL    HW140482   2.055   3.755   1.779
 9618SOL    HW240483   2.009   3.695   1.911
 9619SOL     OW40484   3.490   3.872  21.079
 9619SOL    HW140485   3.562   3.836  21.130
 9619SOL    HW240486   3.527   3.888  20.993
 9620SOL     OW40487   1.915   4.149  26.051
 9620SOL    HW140488   1.994   4.181  26.096
 9620SOL    HW240489   1.930   4.169  25.959
 9621SOL     OW40490   1.764   0.298  26.473
 9621SOL    HW140491   1.673   0.323  26.454
 9621SOL    HW240492   1.793   0.250  26.395
 9622SOL     OW40493   1.140   2.319  22.507
 9622SOL    HW140494   1.153   2.369  22.587
 9622SOL    HW240495   1.228   2.304  22.472
 9623SOL     OW40496   3.361   1.401  18.500
 9623SOL    HW140497   3.328   1.355  18.423
 9623SOL    HW240498   3.323   1.354  18.574
 9624SOL     OW40499   2.189   2.167   8.510
 9624SOL    HW140500   2.223   2.079   8.529
 9624SOL    HW240501   2.238   2.225   8.568
 9625SOL     OW40502   0.688   1.866   3.402
 9625SOL    HW140503   0.720   1.819   3.479
 9625SOL    HW240504   0.746   1.838   3.331
 9626SOL     OW40505   2.807   2.028   5.733
 9626SOL    HW140506   2.737   1.964   5.749
 9626SOL    HW240507   2.844   2.001   5.649
 9627SOL     OW40508   2.134   2.767  22.275
 9627SOL    HW140509   2.135   2.676  22.307
 9627SOL    HW240510   2.117   2.759  22.181
 9628SOL     OW40511   3.517   0.662  23.165
 9628SOL    HW140512   3.577   0.655  23.091
 9628SOL    HW240513   3.440   0.707  23.130
 9629SOL     OW40514   0.460   3.563  18.445
 9629SOL    HW140515   0.478   3.564  18.539
 9629SOL    HW240516   0.546   3.569  18.404
 9630SOL     OW40517   1.112   2.760  10.083
 9630SOL    HW140518   1.120   2.710  10.164
 9630SOL    HW240519   1.019   2.755  10.060
 9631SOL     OW40520   0.429   4.022   6.961
 9631SOL    HW140521   0.371   3.953   6.927
 9631SOL    HW240522   0.371   4.098   6.971
 9632SOL     OW40523   3.814   3.891   4.625
 9632SOL    HW140524   3.864   3.846   4.557
 9632SOL    HW240525   3.736   3.924   4.581
 9633SOL     OW40526   3.114   2.664  20.069
 9633SOL    HW140527   3.064   2.744  20.057
 9633SOL    HW240528   3.166   2.655  19.989
 9634SOL     OW40529   2.756   3.454   2.573
 9634SOL    HW140530   2.827   3.431   2.513
 9634SOL    HW240531   2.710   3.525   2.529
 9635SOL     OW40532   1.944   3.678  21.227
 9635SOL    HW140533   1.863   3.707  21.186
 9635SOL    HW240534   1.919   3.604  21.282
 9636SOL     OW40535   3.144   2.015  20.494
 9636SOL    HW140536   3.073   2.075  20.473
 9636SOL    HW240537   3.121   1.934  20.448
 9637SOL     OW40538   4.237   2.210  27.228
 9637SOL    HW140539   4.176   2.144  27.195
 9637SOL    HW240540   4.254   2.183  27.318
 9638SOL     OW40541   0.248   3.485   4.757
 9638SOL    HW140542   0.259   3.575   4.726
 9638SOL    HW240543   0.162   3.484   4.798
 9639SOL     OW40544   4.277   0.654  25.993
 9639SOL    HW140545   4.359   0.641  25.945
 9639SOL    HW240546   4.254   0.568  26.026
 9640SOL     OW40547   2.523   1.147   9.310
 9640SOL    HW140548   2.561   1.090   9.377
 9640SOL    HW240549   2.430   1.148   9.330
 9641SOL     OW40550   1.210   2.979   0.763
 9641SOL    HW140551   1.218   3.058   0.816
 9641SOL    HW240552   1.160   3.006   0.686
 9642SOL     OW40553   2.249   4.049  22.556
 9642SOL    HW140554   2.222   4.138  22.533
 9642SOL    HW240555   2.169   3.997  22.547
 9643SOL     OW40556   3.290   3.064   9.629
 9643SOL    HW140557   3.351   3.101   9.564
 9643SOL    HW240558   3.260   2.982   9.590
 9644SOL     OW40559   4.082   0.082   8.337
 9644SOL    HW140560   4.140   0.009   8.316
 9644SOL    HW240561   4.086   0.089   8.432
 9645SOL     OW40562   1.268   0.439  20.078
 9645SOL    HW140563   1.317   0.395  20.008
 9645SOL    HW240564   1.269   0.376  20.151
 9646SOL     OW40565   0.862   3.746   8.425
 9646SOL    HW140566   0.800   3.805   8.468
 9646SOL    HW240567   0.885   3.790   8.343
 9647SOL     OW40568   2.226   4.645  26.500
 9647SOL    HW140569   2.168   4.719  26.516
 9647SOL    HW240570   2.238   4.604  26.585
 9648SOL     OW40571   2.722   2.660  28.497
 9648SOL    HW140572   2.640   2.702  28.525
 9648SOL    HW240573   2.780   2.667   0.042
 9649SOL     OW40574   2.096   0.005  13.369
 9649SOL    HW140575   2.123   0.085  13.323
 9649SOL    HW240576   2.011   0.027  13.406
 9650SOL     OW40577   3.411   0.491  18.632
 9650SOL    HW140578   3.322   0.455  18.637
 9650SOL    HW240579   3.466   0.415  18.613
 9651SOL     OW40580   0.591   3.648  24.823
 9651SOL    HW140581   0.682   3.679  24.823
 9651SOL    HW240582   0.594   3.565  24.776
 9652SOL     OW40583   3.988   1.016   7.067
 9652SOL    HW140584   3.907   1.055   7.033
 9652SOL    HW240585   3.981   1.027   7.162
 9653SOL     OW40586   4.513   1.542  26.286
 9653SOL    HW140587   4.587   1.535  26.227
 9653SOL    HW240588   4.449   1.480  26.252
 9654SOL     OW40589   3.740   2.162  25.799
 9654SOL    HW140590   3.762   2.068  25.800
 9654SOL    HW240591   3.716   2.182  25.889
 9655SOL     OW40592   4.702   4.416  25.329
 9655SOL    HW140593   4.739   4.364  25.400
 9655SOL    HW240594   4.609   4.426  25.353
 9656SOL     OW40595   4.422   4.177   1.525
 9656SOL    HW140596   4.347   4.146   1.575
 9656SOL    HW240597   4.475   4.225   1.588
 9657SOL     OW40598   2.153   2.957   3.278
 9657SOL    HW140599   2.112   2.943   3.193
 9657SOL    HW240600   2.244   2.931   3.266
 9658SOL     OW40601   4.691   4.510   0.045
 9658SOL    HW140602   0.004   4.520   0.044
 9658SOL    HW240603   4.667   4.518   0.138
 9659SOL     OW40604   0.813   0.003  10.146
 9659SOL    HW140605   0.853   0.069  10.203
 9659SOL    HW240606   0.816   0.041  10.059
 9660SOL     OW40607   0.476   0.060   1.409
 9660SOL    HW140608   0.391   0.045   1.368
 9660SOL    HW240609   0.496   0.152   1.389
 9661SOL     OW40610   3.744   0.653  20.210
 9661SOL    HW140611   3.766   0.745  20.191
 9661SOL    HW240612   3.659   0.658  20.254
 9662SOL     OW40613   2.028   3.611  28.191
 9662SOL    HW140614   2.007   3.665  28.115
 9662SOL    HW240615   2.113   3.572  28.171
 9663SOL     OW40616   2.322   2.772  27.537
 9663SOL    HW140617   2.400   2.811  27.498
 9663SOL    HW240618   2.301   2.830  27.610
 9664SOL     OW40619   2.350   1.351  19.967
 9664SOL    HW140620   2.256   1.346  19.953
 9664SOL    HW240621   2.373   1.269  20.011
 9665SOL     OW40622   1.135   4.164  21.265
 9665SOL    HW140623   1.153   4.070  21.262
 9665SOL    HW240624   1.176   4.199  21.185
 9666SOL     OW40625   2.142   4.722  24.423
 9666SOL    HW140626   2.218   4.675  24.390
 9666SOL    HW240627   2.179   0.006  24.482
 9667SOL     OW40628   3.549   3.424   8.418
 9667SOL    HW140629   3.479   3.490   8.417
 9667SOL    HW240630   3.505   3.342   8.396
 9668SOL     OW40631   1.781   3.311   3.859
 9668SOL    HW140632   1.788   3.399   3.823
 9668SOL    HW240633   1.706   3.315   3.918
 9669SOL     OW40634   3.203   1.381   8.127
 9669SOL    HW140635   3.213   1.365   8.033
 9669SOL    HW240636   3.292   1.396   8.158
 9670SOL     OW40637   4.775   2.325   5.953
 9670SOL    HW140638   0.069   2.378   5.928
 9670SOL    HW240639   4.705   2.357   5.896
 9671SOL     OW40640   2.746   2.808  26.262
 9671SOL    HW140641   2.675   2.796  26.324
 9671SOL    HW240642   2.816   2.849  26.313
 9672SOL     OW40643   1.247   1.915  20.841
 9672SOL    HW140644   1.194   1.970  20.899
 9672SOL    HW240645   1.314   1.975  20.808
 9673SOL     OW40646   1.542   2.336  19.024
 9673SOL    HW140647   1.510   2.257  18.980
 9673SOL    HW240648   1.600   2.377  18.960
 9674SOL     OW40649   3.414   1.581   3.755
 9674SOL    HW140650   3.490   1.536   3.792
 9674SOL    HW240651   3.450   1.663   3.720
 9675SOL     OW40652   2.965   3.834   4.725
 9675SOL    HW140653   2.887   3.783   4.744
 9675SOL    HW240654   2.974   3.832   4.630
 9676SOL     OW40655   0.473   2.355   2.661
 9676SOL    HW140656   0.521   2.283   2.622
 9676SOL    HW240657   0.531   2.390   2.729
 9677SOL     OW40658   4.646   2.249  24.705
 9677SOL    HW140659   4.652   2.253  24.801
 9677SOL    HW240660   4.683   2.164  24.682
 9678SOL     OW40661   1.038   4.083   9.965
 9678SOL    HW140662   1.074   4.136   9.894
 9678SOL    HW240663   1.068   3.994   9.948
 9679SOL     OW40664   0.770   0.719  12.419
 9679SOL    HW140665   0.790   0.757  12.504
 9679SOL    HW240666   0.794   0.627  12.428
 9680SOL     OW40667   1.566   2.012   3.418
 9680SOL    HW140668   1.595   1.959   3.493
 9680SOL    HW240669   1.623   2.088   3.418
 9681SOL     OW40670   3.082   3.685   3.580
 9681SOL    HW140671   3.141   3.627   3.532
 9681SOL    HW240672   3.008   3.698   3.521
 9682SOL     OW40673   2.638   2.645  18.604
 9682SOL    HW140674   2.723   2.672  18.638
 9682SOL    HW240675   2.576   2.673  18.671
 9683SOL     OW40676   1.443   4.565  23.845
 9683SOL    HW140677   1.398   4.642  23.811
 9683SOL    HW240678   1.491   4.530  23.769
 9684SOL     OW40679   3.080   0.859  21.383
 9684SOL    HW140680   3.015   0.848  21.451
 9684SOL    HW240681   3.029   0.865  21.302
 9685SOL     OW40682   0.859   1.586  23.058
 9685SOL    HW140683   0.831   1.638  23.133
 9685SOL    HW240684   0.886   1.651  22.993
 9686SOL     OW40685   3.121   2.650   6.093
 9686SOL    HW140686   3.217   2.653   6.087
 9686SOL    HW240687   3.103   2.606   6.176
 9687SOL     OW40688   1.369   1.698  28.077
 9687SOL    HW140689   1.348   1.690  28.171
 9687SOL    HW240690   1.305   1.641  28.034
 9688SOL     OW40691   0.894   3.867  20.705
 9688SOL    HW140692   0.911   3.953  20.666
 9688SOL    HW240693   0.799   3.860  20.706
 9689SOL     OW40694   4.381   1.570   2.824
 9689SOL    HW140695   4.368   1.486   2.867
 9689SOL    HW240696   4.293   1.603   2.808
 9690SOL     OW40697   3.760   4.330   1.849
 9690SOL    HW140698   3.832   4.369   1.799
 9690SOL    HW240699   3.681   4.360   1.805
 9691SOL     OW40700   0.751   3.140  24.716
 9691SOL    HW140701   0.743   3.047  24.697
 9691SOL    HW240702   0.810   3.173  24.648
 9692SOL     OW40703   1.146   1.387   8.207
 9692SOL    HW140704   1.117   1.366   8.296
 9692SOL    HW240705   1.176   1.304   8.171
 9693SOL     OW40706   1.981   2.359   6.441
 9693SOL    HW140707   2.065   2.337   6.401
 9693SOL    HW240708   1.935   2.410   6.374
 9694SOL     OW40709   4.129   2.986  22.903
 9694SOL    HW140710   4.094   2.963  22.989
 9694SOL    HW240711   4.155   2.902  22.865
 9695SOL     OW40712   2.685   1.965   7.962
 9695SOL    HW140713   2.682   1.890   7.903
 9695SOL    HW240714   2.721   2.036   7.910
 9696SOL     OW40715   2.053   3.090   2.814
 9696SOL    HW140716   2.017   3.055   2.896
 9696SOL    HW240717   2.070   3.182   2.833
 9697SOL     OW40718   0.325   2.222   8.520
 9697SOL    HW140719   0.330   2.177   8.436
 9697SOL    HW240720   0.303   2.312   8.499
 9698SOL     OW40721   4.244   3.777   4.037
 9698SOL    HW140722   4.234   3.859   3.989
 9698SOL    HW240723   4.155   3.755   4.064
 9699SOL     OW40724   3.252   4.249   3.193
 9699SOL    HW140725   3.261   4.311   3.265
 9699SOL    HW240726   3.167   4.270   3.154
 9700SOL     OW40727   1.851   3.247   1.744
 9700SOL    HW140728   1.799   3.325   1.765
 9700SOL    HW240729   1.786   3.183   1.716
 9701SOL     OW40730   2.978   3.162  24.392
 9701SOL    HW140731   2.904   3.104  24.375
 9701SOL    HW240732   2.944   3.229  24.451
 9702SOL     OW40733   2.286   1.900   8.515
 9702SOL    HW140734   2.239   1.856   8.586
 9702SOL    HW240735   2.378   1.898   8.542
 9703SOL     OW40736   4.074   0.493   3.274
 9703SOL    HW140737   4.165   0.464   3.275
 9703SOL    HW240738   4.060   0.531   3.360
 9704SOL     OW40739   2.178   3.150   6.973
 9704SOL    HW140740   2.254   3.189   6.929
 9704SOL    HW240741   2.144   3.221   7.028
 9705SOL     OW40742   2.987   2.799  27.955
 9705SOL    HW140743   2.917   2.745  27.991
 9705SOL    HW240744   3.044   2.737  27.909
 9706SOL     OW40745   2.358   1.410  28.428
 9706SOL    HW140746   2.425   1.479  28.422
 9706SOL    HW240747   2.316   1.411  28.342
 9707SOL     OW40748   3.932   0.146  23.307
 9707SOL    HW140749   3.936   0.136  23.212
 9707SOL    HW240750   4.013   0.106  23.338
 9708SOL     OW40751   4.599   3.606   1.946
 9708SOL    HW140752   4.552   3.548   2.006
 9708SOL    HW240753   4.541   3.682   1.937
 9709SOL     OW40754   2.917   4.479  10.827
 9709SOL    HW140755   2.976   4.460  10.900
 9709SOL    HW240756   2.835   4.434  10.851
 9710SOL     OW40757   0.667   4.602  17.065
 9710SOL    HW140758   0.572   4.587  17.060
 9710SOL    HW240759   0.700   4.573  16.980
 9711SOL     OW40760   4.542   4.594   1.176
 9711SOL    HW140761   4.447   4.608   1.178
 9711SOL    HW240762   4.562   4.555   1.261
 9712SOL     OW40763   3.103   4.675  27.443
 9712SOL    HW140764   3.122   4.699  27.352
 9712SOL    HW240765   3.099   4.580  27.442
 9713SOL     OW40766   1.248   1.159   0.454
 9713SOL    HW140767   1.161   1.197   0.442
 9713SOL    HW240768   1.308   1.233   0.442
 9714SOL     OW40769   1.288   3.838  20.907
 9714SOL    HW140770   1.377   3.866  20.928
 9714SOL    HW240771   1.276   3.865  20.816
 9715SOL     OW40772   4.343   0.345  22.524
 9715SOL    HW140773   4.251   0.370  22.517
 9715SOL    HW240774   4.368   0.320  22.435
 9716SOL     OW40775   1.605   2.429  24.147
 9716SOL    HW140776   1.520   2.416  24.105
 9716SOL    HW240777   1.584   2.458  24.236
 9717SOL     OW40778   2.810   0.780  25.493
 9717SOL    HW140779   2.811   0.684  25.491
 9717SOL    HW240780   2.726   0.804  25.454
 9718SOL     OW40781   3.688   3.203  26.941
 9718SOL    HW140782   3.718   3.200  27.031
 9718SOL    HW240783   3.594   3.191  26.946
 9719SOL     OW40784   4.620   3.757   9.565
 9719SOL    HW140785   4.666   3.696   9.508
 9719SOL    HW240786   4.607   3.709   9.647
 9720SOL     OW40787   2.869   1.178  25.230
 9720SOL    HW140788   2.858   1.157  25.323
 9720SOL    HW240789   2.813   1.115  25.184
 9721SOL     OW40790   4.504   4.197  25.165
 9721SOL    HW140791   4.462   4.129  25.111
 9721SOL    HW240792   4.431   4.243  25.206
 9722SOL     OW40793   1.317   0.590   8.508
 9722SOL    HW140794   1.264   0.570   8.586
 9722SOL    HW240795   1.393   0.635   8.543
 9723SOL     OW40796   1.454   0.942  24.527
 9723SOL    HW140797   1.531   0.986  24.562
 9723SOL    HW240798   1.465   0.946  24.432
 9724SOL     OW40799   3.274   1.681  27.221
 9724SOL    HW140800   3.360   1.686  27.180
 9724SOL    HW240801   3.250   1.772  27.238
 9725SOL     OW40802   4.026   1.404  26.564
 9725SOL    HW140803   4.016   1.479  26.505
 9725SOL    HW240804   3.937   1.371  26.576
 9726SOL     OW40805   4.537   0.168  16.798
 9726SOL    HW140806   4.469   0.160  16.732
 9726SOL    HW240807   4.490   0.192  16.878
 9727SOL     OW40808   3.739   1.482   2.961
 9727SOL    HW140809   3.731   1.561   3.015
 9727SOL    HW240810   3.759   1.412   3.023
 9728SOL     OW40811   0.084   3.045   0.537
 9728SOL    HW140812   0.135   3.076   0.463
 9728SOL    HW240813   0.140   3.062   0.613
 9729SOL     OW40814   1.800   4.443   9.002
 9729SOL    HW140815   1.892   4.435   9.027
 9729SOL    HW240816   1.760   4.361   9.031
 9730SOL     OW40817   0.780   4.086   5.713
 9730SOL    HW140818   0.737   4.129   5.639
 9730SOL    HW240819   0.861   4.135   5.725
 9731SOL     OW40820   1.804   3.945   6.477
 9731SOL    HW140821   1.718   3.977   6.503
 9731SOL    HW240822   1.855   3.943   6.558
 9732SOL     OW40823   3.075   4.246   4.153
 9732SOL    HW140824   3.032   4.172   4.108
 9732SOL    HW240825   3.004   4.307   4.172
 9733SOL     OW40826   0.184   0.305   1.739
 9733SOL    HW140827   0.180   0.361   1.816
 9733SOL    HW240828   0.276   0.280   1.731
 9734SOL     OW40829   3.009   4.313  27.034
 9734SOL    HW140830   2.913   4.315  27.037
 9734SOL    HW240831   3.036   4.301  27.125
 9735SOL     OW40832   3.980   2.500   0.884
 9735SOL    HW140833   3.907   2.439   0.888
 9735SOL    HW240834   4.028   2.485   0.965
 9736SOL     OW40835   1.211   2.915   0.020
 9736SOL    HW140836   1.216   2.883  28.461
 9736SOL    HW240837   1.229   2.838   0.074
 9737SOL     OW40838   4.700   1.280   7.227
 9737SOL    HW140839   4.607   1.298   7.243
 9737SOL    HW240840   4.723   1.215   7.294
 9738SOL     OW40841   1.771   3.785   7.117
 9738SOL    HW140842   1.795   3.796   7.025
 9738SOL    HW240843   1.840   3.830   7.166
 9739SOL     OW40844   4.466   1.132  25.013
 9739SOL    HW140845   4.461   1.123  25.109
 9739SOL    HW240846   4.382   1.098  24.982
 9740SOL     OW40847   2.915   4.339  24.888
 9740SOL    HW140848   2.939   4.404  24.822
 9740SOL    HW240849   2.961   4.259  24.861
 9741SOL     OW40850   1.102   3.446  26.857
 9741SOL    HW140851   1.073   3.528  26.818
 9741SOL    HW240852   1.195   3.460  26.875
 9742SOL     OW40853   3.934   1.611  21.098
 9742SOL    HW140854   3.902   1.697  21.125
 9742SOL    HW240855   4.012   1.596  21.151
 9743SOL     OW40856   0.428   1.113   4.413
 9743SOL    HW140857   0.479   1.144   4.488
 9743SOL    HW240858   0.471   1.031   4.387
 9744SOL     OW40859   2.909   4.183   4.614
 9744SOL    HW140860   2.919   4.275   4.589
 9744SOL    HW240861   2.823   4.178   4.655
 9745SOL     OW40862   0.714   3.548   7.780
 9745SOL    HW140863   0.680   3.475   7.831
 9745SOL    HW240864   0.797   3.516   7.745
 9746SOL     OW40865   0.493   0.981  25.747
 9746SOL    HW140866   0.496   1.064  25.700
 9746SOL    HW240867   0.568   0.984  25.806
 9747SOL     OW40868   0.136   2.930  20.541
 9747SOL    HW140869   0.200   2.862  20.522
 9747SOL    HW240870   0.060   2.882  20.575
 9748SOL     OW40871   0.807   3.016   4.382
 9748SOL    HW140872   0.769   3.019   4.470
 9748SOL    HW240873   0.732   3.032   4.323
 9749SOL     OW40874   2.578   4.539  23.389
 9749SOL    HW140875   2.669   4.510  23.396
 9749SOL    HW240876   2.575   4.622  23.437
 9750SOL     OW40877   1.731   1.144   3.566
 9750SOL    HW140878   1.742   1.239   3.570
 9750SOL    HW240879   1.636   1.132   3.566
 9751SOL     OW40880   2.752   3.704  17.696
 9751SOL    HW140881   2.686   3.704  17.766
 9751SOL    HW240882   2.789   3.616  17.697
 9752SOL     OW40883   1.928   3.273   4.808
 9752SOL    HW140884   1.880   3.221   4.744
 9752SOL    HW240885   2.005   3.220   4.829
 9753SOL     OW40886   1.364   2.561   3.953
 9753SOL    HW140887   1.418   2.599   3.883
 9753SOL    HW240888   1.387   2.468   3.952
 9754SOL     OW40889   2.926   2.133   4.099
 9754SOL    HW140890   2.970   2.083   4.167
 9754SOL    HW240891   2.997   2.169   4.045
 9755SOL     OW40892   1.216   2.803   6.637
 9755SOL    HW140893   1.177   2.869   6.694
 9755SOL    HW240894   1.185   2.825   6.549
 9756SOL     OW40895   4.351   4.317   8.156
 9756SOL    HW140896   4.318   4.350   8.073
 9756SOL    HW240897   4.446   4.326   8.150
 9757SOL     OW40898   2.270   4.365   4.321
 9757SOL    HW140899   2.343   4.338   4.377
 9757SOL    HW240900   2.239   4.284   4.282
 9758SOL     OW40901   2.856   2.061   0.815
 9758SOL    HW140902   2.901   2.139   0.783
 9758SOL    HW240903   2.781   2.050   0.758
 9759SOL     OW40904   1.666   1.815  21.687
 9759SOL    HW140905   1.742   1.868  21.665
 9759SOL    HW240906   1.597   1.879  21.705
 9760SOL     OW40907   2.454   0.609   7.233
 9760SOL    HW140908   2.447   0.626   7.328
 9760SOL    HW240909   2.400   0.678   7.193
 9761SOL     OW40910   4.334   3.212  24.896
 9761SOL    HW140911   4.327   3.143  24.962
 9761SOL    HW240912   4.384   3.173  24.825
 9762SOL     OW40913   2.855   3.542  19.485
 9762SOL    HW140914   2.799   3.547  19.408
 9762SOL    HW240915   2.930   3.489  19.457
 9763SOL     OW40916   0.952   3.624   9.279
 9763SOL    HW140917   0.912   3.706   9.307
 9763SOL    HW240918   0.979   3.582   9.361
 9764SOL     OW40919   0.466   4.403   5.008
 9764SOL    HW140920   0.505   4.449   5.083
 9764SOL    HW240921   0.492   4.455   4.932
 9765SOL     OW40922   2.979   2.094  25.298
 9765SOL    HW140923   2.986   2.144  25.217
 9765SOL    HW240924   3.037   2.140  25.359
 9766SOL     OW40925   1.242   3.192  10.513
 9766SOL    HW140926   1.258   3.272  10.563
 9766SOL    HW240927   1.148   3.193  10.495
 9767SOL     OW40928   2.231   2.563  20.216
 9767SOL    HW140929   2.143   2.574  20.180
 9767SOL    HW240930   2.241   2.636  20.277
 9768SOL     OW40931   2.542   2.136   8.390
 9768SOL    HW140932   2.518   2.059   8.338
 9768SOL    HW240933   2.563   2.100   8.477
 9769SOL     OW40934   0.176   1.699  26.236
 9769SOL    HW140935   0.189   1.640  26.161
 9769SOL    HW240936   0.146   1.642  26.307
 9770SOL     OW40937   2.635   3.246  21.354
 9770SOL    HW140938   2.570   3.176  21.363
 9770SOL    HW240939   2.584   3.327  21.363
 9771SOL     OW40940   0.843   4.506   1.850
 9771SOL    HW140941   0.937   4.498   1.835
 9771SOL    HW240942   0.807   4.530   1.765
 9772SOL     OW40943   4.671   4.086   7.516
 9772SOL    HW140944   4.695   3.997   7.543
 9772SOL    HW240945   4.737   4.141   7.558
 9773SOL     OW40946   3.304   0.692   8.818
 9773SOL    HW140947   3.382   0.746   8.804
 9773SOL    HW240948   3.231   0.749   8.796
 9774SOL     OW40949   0.525   3.128   0.938
 9774SOL    HW140950   0.562   3.109   0.852
 9774SOL    HW240951   0.494   3.043   0.970
 9775SOL     OW40952   0.767   0.833  20.503
 9775SOL    HW140953   0.715   0.891  20.559
 9775SOL    HW240954   0.829   0.891  20.460
 9776SOL     OW40955   3.691   3.878  26.207
 9776SOL    HW140956   3.597   3.890  26.190
 9776SOL    HW240957   3.731   3.961  26.181
 9777SOL     OW40958   1.507   0.421   5.502
 9777SOL    HW140959   1.572   0.472   5.454
 9777SOL    HW240960   1.558   0.369   5.563
 9778SOL     OW40961   4.545   1.060  26.150
 9778SOL    HW140962   4.624   1.011  26.132
 9778SOL    HW240963   4.525   1.043  26.242
 9779SOL     OW40964   2.491   4.250  26.873
 9779SOL    HW140965   2.553   4.314  26.837
 9779SOL    HW240966   2.453   4.294  26.949
 9780SOL     OW40967   0.987   2.702  18.741
 9780SOL    HW140968   0.986   2.637  18.811
 9780SOL    HW240969   1.077   2.735  18.741
 9781SOL     OW40970   4.053   2.744   4.906
 9781SOL    HW140971   4.068   2.698   4.824
 9781SOL    HW240972   4.024   2.831   4.880
 9782SOL     OW40973   1.122   3.816   2.537
 9782SOL    HW140974   1.173   3.867   2.601
 9782SOL    HW240975   1.174   3.737   2.523
 9783SOL     OW40976   0.305   1.477   9.174
 9783SOL    HW140977   0.263   1.544   9.228
 9783SOL    HW240978   0.275   1.394   9.212
 9784SOL     OW40979   3.156   2.433   7.056
 9784SOL    HW140980   3.159   2.343   7.090
 9784SOL    HW240981   3.084   2.474   7.103
 9785SOL     OW40982   1.962   1.803  27.023
 9785SOL    HW140983   2.057   1.797  27.038
 9785SOL    HW240984   1.937   1.714  26.997
 9786SOL     OW40985   1.289   2.134   4.091
 9786SOL    HW140986   1.320   2.068   4.154
 9786SOL    HW240987   1.363   2.147   4.032
 9787SOL     OW40988   1.532   4.125   4.149
 9787SOL    HW140989   1.548   4.125   4.243
 9787SOL    HW240990   1.525   4.218   4.126
 9788SOL     OW40991   0.428   2.862   6.274
 9788SOL    HW140992   0.425   2.824   6.187
 9788SOL    HW240993   0.482   2.802   6.325
 9789SOL     OW40994   4.701   3.396   7.962
 9789SOL    HW140995   4.705   3.397   7.866
 9789SOL    HW240996   0.007   3.418   7.990
 9790SOL     OW40997   2.124   4.571   6.735
 9790SOL    HW140998   2.183   4.502   6.703
 9790SOL    HW240999   2.044   4.525   6.759
 9791SOL     OW41000   0.742   0.822   4.955
 9791SOL    HW141001   0.734   0.861   5.041
 9791SOL    HW241002   0.819   0.864   4.916
 9792SOL     OW41003   4.770   1.092  27.353
 9792SOL    HW141004   4.754   1.184  27.373
 9792SOL    HW241005   4.705   1.044  27.404
 9793SOL     OW41006   2.543   2.389  18.541
 9793SOL    HW141007   2.596   2.462  18.573
 9793SOL    HW241008   2.454   2.411  18.567
 9794SOL     OW41009   4.738   2.444   6.897
 9794SOL    HW141010   0.009   2.403   6.964
 9794SOL    HW241011   4.777   2.416   6.814
 9795SOL     OW41012   3.628   1.962  26.147
 9795SOL    HW141013   3.700   2.024  26.153
 9795SOL    HW241014   3.561   2.007  26.095
 9796SOL     OW41015   1.362   1.264  22.893
 9796SOL    HW141016   1.317   1.237  22.973
 9796SOL    HW241017   1.307   1.332  22.855
 9797SOL     OW41018   3.220   2.230  20.886
 9797SOL    HW141019   3.272   2.210  20.964
 9797SOL    HW241020   3.237   2.322  20.868
 9798SOL     OW41021   0.573   0.449   0.088
 9798SOL    HW141022   0.530   0.533   0.076
 9798SOL    HW241023   0.555   0.426   0.180
 9799SOL     OW41024   1.536   1.906   1.151
 9799SOL    HW141025   1.601   1.954   1.201
 9799SOL    HW241026   1.528   1.955   1.069
 9800SOL     OW41027   0.447   0.388  17.585
 9800SOL    HW141028   0.489   0.432  17.659
 9800SOL    HW241029   0.394   0.320  17.626
 9801SOL     OW41030   3.795   1.612  21.605
 9801SOL    HW141031   3.843   1.530  21.593
 9801SOL    HW241032   3.781   1.618  21.699
 9802SOL     OW41033   1.586   2.413  25.983
 9802SOL    HW141034   1.575   2.443  25.893
 9802SOL    HW241035   1.523   2.341  25.991
 9803SOL     OW41036   2.270   4.012   2.885
 9803SOL    HW141037   2.362   4.025   2.862
 9803SOL    HW241038   2.259   3.916   2.886
 9804SOL     OW41039   2.014   1.604  18.469
 9804SOL    HW141040   2.093   1.643  18.506
 9804SOL    HW241041   2.034   1.591  18.377
 9805SOL     OW41042   4.100   3.407   7.436
 9805SOL    HW141043   4.130   3.352   7.509
 9805SOL    HW241044   4.118   3.496   7.465
 9806SOL     OW41045   4.759   1.201   3.524
 9806SOL    HW141046   4.777   1.130   3.462
 9806SOL    HW241047   0.025   1.177   3.603
 9807SOL     OW41048   0.057   2.963   4.787
 9807SOL    HW141049   0.041   2.954   4.881
 9807SOL    HW241050   0.023   3.049   4.765
 9808SOL     OW41051   2.317   4.324   7.689
 9808SOL    HW141052   2.347   4.410   7.661
 9808SOL    HW241053   2.368   4.305   7.768
 9809SOL     OW41054   2.316   3.558  25.188
 9809SOL    HW141055   2.407   3.546  25.160
 9809SOL    HW241056   2.315   3.531  25.280
 9810SOL     OW41057   1.287   1.033  23.417
 9810SOL    HW141058   1.207   1.060  23.372
 9810SOL    HW241059   1.357   1.077  23.370
 9811SOL     OW41060   3.056   2.282  11.057
 9811SOL    HW141061   3.129   2.290  11.119
 9811SOL    HW241062   3.041   2.187  11.049
 9812SOL     OW41063   0.009   3.977   1.739
 9812SOL    HW141064   4.735   3.994   1.814
 9812SOL    HW241065   4.748   4.021   1.665
 9813SOL     OW41066   0.796   2.973   7.852
 9813SOL    HW141067   0.848   2.999   7.928
 9813SOL    HW241068   0.754   2.891   7.880
 9814SOL     OW41069   4.667   0.078  11.007
 9814SOL    HW141070   4.666   0.002  11.065
 9814SOL    HW241071   4.758   0.107  11.007
 9815SOL     OW41072   2.195   3.755   2.927
 9815SOL    HW141073   2.232   3.668   2.913
 9815SOL    HW241074   2.101   3.742   2.924
 9816SOL     OW41075   3.148   0.584  27.036
 9816SOL    HW141076   3.228   0.561  27.085
 9816SOL    HW241077   3.125   0.671  27.068
 9817SOL     OW41078   2.064   3.344   9.492
 9817SOL    HW141079   2.121   3.269   9.509
 9817SOL    HW241080   2.080   3.403   9.566
 9818SOL     OW41081   2.501   2.921   6.996
 9818SOL    HW141082   2.587   2.923   6.954
 9818SOL    HW241083   2.493   3.005   7.040
 9819SOL     OW41084   4.746   3.660   0.728
 9819SOL    HW141085   0.042   3.639   0.779
 9819SOL    HW241086   4.716   3.576   0.693
 9820SOL     OW41087   4.012   3.633   9.181
 9820SOL    HW141088   3.979   3.639   9.271
 9820SOL    HW241089   3.973   3.708   9.136
 9821SOL     OW41090   3.262   4.433   6.704
 9821SOL    HW141091   3.230   4.350   6.670
 9821SOL    HW241092   3.334   4.456   6.646
 9822SOL     OW41093   0.083   4.249  27.758
 9822SOL    HW141094   0.104   4.303  27.682
 9822SOL    HW241095   0.000   4.284  27.790
 9823SOL     OW41096   1.182   0.473   6.367
 9823SOL    HW141097   1.128   0.447   6.441
 9823SOL    HW241098   1.229   0.551   6.396
 9824SOL     OW41099   1.780   4.280  24.301
 9824SOL    HW141100   1.767   4.252  24.211
 9824SOL    HW241101   1.875   4.279  24.313
 9825SOL     OW41102   4.389   1.442   6.450
 9825SOL    HW141103   4.352   1.527   6.427
 9825SOL    HW241104   4.313   1.385   6.461
 9826SOL     OW41105   2.108   0.662  24.844
 9826SOL    HW141106   2.045   0.591  24.849
 9826SOL    HW241107   2.135   0.665  24.752
 9827SOL     OW41108   2.242   3.233  22.720
 9827SOL    HW141109   2.220   3.307  22.777
 9827SOL    HW241110   2.326   3.257  22.681
 9828SOL     OW41111   0.355   4.565  28.329
 9828SOL    HW141112   0.288   4.610  28.381
 9828SOL    HW241113   0.308   4.534  28.251
 9829SOL     OW41114   2.365   1.751  19.871
 9829SOL    HW141115   2.304   1.738  19.944
 9829SOL    HW241116   2.431   1.683  19.883
 9830SOL     OW41117   0.532   2.007  22.682
 9830SOL    HW141118   0.579   2.036  22.760
 9830SOL    HW241119   0.527   1.912  22.691
 9831SOL     OW41120   3.044   0.129   9.224
 9831SOL    HW141121   3.066   0.107   9.314
 9831SOL    HW241122   3.100   0.073   9.170
 9832SOL     OW41123   2.852   4.368   4.307
 9832SOL    HW141124   2.811   4.292   4.265
 9832SOL    HW241125   2.778   4.424   4.333
 9833SOL     OW41126   2.514   4.516   7.729
 9833SOL    HW141127   2.571   4.460   7.783
 9833SOL    HW241128   2.543   4.498   7.639
 9834SOL     OW41129   0.360   3.539  25.113
 9834SOL    HW141130   0.448   3.530  25.076
 9834SOL    HW241131   0.302   3.525  25.039
 9835SOL     OW41132   1.842   0.523  23.404
 9835SOL    HW141133   1.856   0.511  23.310
 9835SOL    HW241134   1.803   0.610  23.412
 9836SOL     OW41135   0.563   3.794   8.390
 9836SOL    HW141136   0.571   3.879   8.434
 9836SOL    HW241137   0.503   3.744   8.446
 9837SOL     OW41138   3.150   1.116   8.280
 9837SOL    HW141139   3.146   1.174   8.204
 9837SOL    HW241140   3.070   1.065   8.276
 9838SOL     OW41141   3.413   2.898  25.022
 9838SOL    HW141142   3.353   2.912  24.949
 9838SOL    HW241143   3.357   2.901  25.100
 9839SOL     OW41144   3.277   1.635   4.027
 9839SOL    HW141145   3.217   1.674   3.964
 9839SOL    HW241146   3.346   1.596   3.973
 9840SOL     OW41147   4.636   3.431  19.931
 9840SOL    HW141148   4.612   3.394  20.015
 9840SOL    HW241149   4.633   3.357  19.870
 9841SOL     OW41150   4.104   2.579  20.624
 9841SOL    HW141151   4.028   2.538  20.583
 9841SOL    HW241152   4.146   2.508  20.672
 9842SOL     OW41153   0.600   0.094   3.676
 9842SOL    HW141154   0.633   0.037   3.746
 9842SOL    HW241155   0.544   0.157   3.722
 9843SOL     OW41156   4.132   4.395   0.474
 9843SOL    HW141157   4.187   4.466   0.507
 9843SOL    HW241158   4.086   4.363   0.551
 9844SOL     OW41159   2.021   2.377  22.075
 9844SOL    HW141160   2.097   2.433  22.093
 9844SOL    HW241161   2.056   2.288  22.076
 9845SOL     OW41162   3.348   1.700  24.281
 9845SOL    HW141163   3.390   1.676  24.199
 9845SOL    HW241164   3.268   1.746  24.255
 9846SOL     OW41165   4.474   1.666  18.952
 9846SOL    HW141166   4.453   1.754  18.983
 9846SOL    HW241167   4.527   1.628  19.022
 9847SOL     OW41168   0.150   4.139   6.525
 9847SOL    HW141169   0.080   4.123   6.588
 9847SOL    HW241170   0.170   4.052   6.489
 9848SOL     OW41171   3.005   4.698  23.540
 9848SOL    HW141172   3.024   4.691  23.446
 9848SOL    HW241173   3.046   4.780  23.567
 9849SOL     OW41174   1.321   2.922  10.033
 9849SOL    HW141175   1.334   2.982  10.106
 9849SOL    HW241176   1.236   2.881  10.051
 9850SOL     OW41177   0.985   4.147   7.590
 9850SOL    HW141178   0.976   4.166   7.683
 9850SOL    HW241179   0.895   4.146   7.557
 9851SOL     OW41180   3.032   0.705   5.645
 9851SOL    HW141181   3.015   0.780   5.589
 9851SOL    HW241182   2.948   0.686   5.687
 9852SOL     OW41183   3.683   1.665   8.059
 9852SOL    HW141184   3.739   1.740   8.080
 9852SOL    HW241185   3.731   1.589   8.092
 9853SOL     OW41186   2.013   3.333  18.931
 9853SOL    HW141187   2.004   3.405  18.993
 9853SOL    HW241188   2.056   3.372  18.855
 9854SOL     OW41189   0.109   3.946  21.282
 9854SOL    HW141190   0.062   3.921  21.362
 9854SOL    HW241191   0.165   3.871  21.263
 9855SOL     OW41192   3.995   4.268   8.537
 9855SOL    HW141193   3.968   4.337   8.598
 9855SOL    HW241194   4.067   4.224   8.581
 9856SOL     OW41195   0.258   0.860  22.388
 9856SOL    HW141196   0.327   0.908  22.342
 9856SOL    HW241197   0.304   0.786  22.428
 9857SOL     OW41198   2.953   0.854   5.172
 9857SOL    HW141199   3.041   0.890   5.181
 9857SOL    HW241200   2.940   0.801   5.251
 9858SOL     OW41201   3.009   3.629  28.411
 9858SOL    HW141202   3.046   3.715  28.388
 9858SOL    HW241203   2.924   3.650  28.452
 9859SOL     OW41204   2.319   4.396   6.285
 9859SOL    HW141205   2.317   4.302   6.299
 9859SOL    HW241206   2.228   4.420   6.266
 9860SOL     OW41207   2.006   3.897   4.904
 9860SOL    HW141208   1.992   3.969   4.966
 9860SOL    HW241209   2.059   3.936   4.834
 9861SOL     OW41210   4.291   0.280   6.293
 9861SOL    HW141211   4.203   0.241   6.295
 9861SOL    HW241212   4.323   0.263   6.204
 9862SOL     OW41213   4.504   4.730  23.870
 9862SOL    HW141214   4.519   4.637  23.884
 9862SOL    HW241215   4.457   4.735  23.787
 9863SOL     OW41216   2.964   1.309   5.805
 9863SOL    HW141217   2.927   1.223   5.786
 9863SOL    HW241218   2.892   1.370   5.788
 9864SOL     OW41219   2.554   0.135   9.646
 9864SOL    HW141220   2.508   0.054   9.666
 9864SOL    HW241221   2.593   0.162   9.729
 9865SOL     OW41222   0.744   1.028   7.126
 9865SOL    HW141223   0.799   1.094   7.168
 9865SOL    HW241224   0.733   1.059   7.037
 9866SOL     OW41225   2.755   4.218   0.897
 9866SOL    HW141226   2.751   4.162   0.819
 9866SOL    HW241227   2.842   4.258   0.894
 9867SOL     OW41228   1.916   2.982   3.402
 9867SOL    HW141229   1.991   2.949   3.353
 9867SOL    HW241230   1.854   2.908   3.404
 9868SOL     OW41231   1.875   4.422   8.753
 9868SOL    HW141232   1.828   4.399   8.834
 9868SOL    HW241233   1.956   4.370   8.757
 9869SOL     OW41234   0.541   2.122   0.761
 9869SOL    HW141235   0.615   2.084   0.713
 9869SOL    HW241236   0.471   2.127   0.696
 9870SOL     OW41237   3.508   3.707   2.459
 9870SOL    HW141238   3.593   3.729   2.496
 9870SOL    HW241239   3.508   3.611   2.451
 9871SOL     OW41240   1.709   2.798  27.822
 9871SOL    HW141241   1.729   2.779  27.914
 9871SOL    HW241242   1.666   2.718  27.790
 9872SOL     OW41243   2.082   1.863  25.382
 9872SOL    HW141244   2.047   1.775  25.374
 9872SOL    HW241245   2.153   1.867  25.319
 9873SOL     OW41246   2.660   4.435   3.144
 9873SOL    HW141247   2.581   4.484   3.168
 9873SOL    HW241248   2.697   4.484   3.071
 9874SOL     OW41249   2.781   4.582   3.707
 9874SOL    HW141250   2.845   4.637   3.753
 9874SOL    HW241251   2.703   4.636   3.700
 9875SOL     OW41252   0.735   2.056  27.873
 9875SOL    HW141253   0.825   2.055  27.906
 9875SOL    HW241254   0.742   2.096  27.787
 9876SOL     OW41255   2.350   1.760   0.698
 9876SOL    HW141256   2.422   1.822   0.688
 9876SOL    HW241257   2.298   1.770   0.618
 9877SOL     OW41258   0.975   4.638   1.244
 9877SOL    HW141259   0.880   4.624   1.240
 9877SOL    HW241260   0.989   4.682   1.328
 9878SOL     OW41261   4.572   0.837  25.938
 9878SOL    HW141262   4.666   0.834  25.954
 9878SOL    HW241263   4.559   0.919  25.890
 9879SOL     OW41264   3.136   3.373  24.285
 9879SOL    HW141265   3.100   3.314  24.351
 9879SOL    HW241266   3.059   3.418  24.249
 9880SOL     OW41267   3.765   3.258   0.943
 9880SOL    HW141268   3.810   3.308   0.875
 9880SOL    HW241269   3.673   3.260   0.918
 9881SOL     OW41270   0.429   2.143  24.956
 9881SOL    HW141271   0.452   2.069  24.899
 9881SOL    HW241272   0.380   2.203  24.900
 9882SOL     OW41273   2.081   2.458  20.440
 9882SOL    HW141274   2.138   2.450  20.363
 9882SOL    HW241275   1.992   2.463  20.403
 9883SOL     OW41276   1.914   3.186  27.848
 9883SOL    HW141277   1.991   3.229  27.811
 9883SOL    HW241278   1.849   3.256  27.854
 9884SOL     OW41279   3.302   2.723  21.194
 9884SOL    HW141280   3.286   2.765  21.110
 9884SOL    HW241281   3.232   2.657  21.201
 9885SOL     OW41282   1.000   1.603   0.813
 9885SOL    HW141283   1.018   1.695   0.794
 9885SOL    HW241284   0.908   1.603   0.842
 9886SOL     OW41285   0.049   1.558   4.147
 9886SOL    HW141286   4.752   1.505   4.152
 9886SOL    HW241287   0.048   1.595   4.058
 9887SOL     OW41288   2.450   1.046  28.284
 9887SOL    HW141289   2.359   1.017  28.277
 9887SOL    HW241290   2.462   1.104  28.209
 9888SOL     OW41291   0.119   3.883   6.408
 9888SOL    HW141292   0.197   3.828   6.404
 9888SOL    HW241293   0.072   3.864   6.327
 9889SOL     OW41294   4.696   0.047  10.739
 9889SOL    HW141295   4.618   0.085  10.697
 9889SOL    HW241296   4.672   0.040  10.831
 9890SOL     OW41297   0.177   3.774  20.614
 9890SOL    HW141298   0.237   3.764  20.687
 9890SOL    HW241299   0.159   3.684  20.585
 9891SOL     OW41300   4.603   4.197  22.783
 9891SOL    HW141301   4.606   4.268  22.718
 9891SOL    HW241302   4.510   4.183  22.799
 9892SOL     OW41303   1.602   3.436  19.234
 9892SOL    HW141304   1.579   3.410  19.144
 9892SOL    HW241305   1.541   3.385  19.289
 9893SOL     OW41306   2.975   3.110  24.679
 9893SOL    HW141307   3.048   3.063  24.639
 9893SOL    HW241308   2.898   3.059  24.656
 9894SOL     OW41309   2.265   4.522   0.596
 9894SOL    HW141310   2.177   4.491   0.617
 9894SOL    HW241311   2.283   4.589   0.662
 9895SOL     OW41312   4.300   3.354  18.124
 9895SOL    HW141313   4.310   3.415  18.051
 9895SOL    HW241314   4.227   3.298  18.099
 9896SOL     OW41315   4.092   2.676  24.102
 9896SOL    HW141316   4.121   2.607  24.162
 9896SOL    HW241317   3.997   2.681  24.115
 9897SOL     OW41318   0.874   4.315   5.185
 9897SOL    HW141319   0.946   4.256   5.162
 9897SOL    HW241320   0.852   4.360   5.104
 9898SOL     OW41321   2.343   0.922   1.027
 9898SOL    HW141322   2.394   0.841   1.029
 9898SOL    HW241323   2.268   0.903   0.972
 9899SOL     OW41324   3.167   4.010   6.171
 9899SOL    HW141325   3.257   4.033   6.151
 9899SOL    HW241326   3.123   4.011   6.086
 9900SOL     OW41327   3.436   2.729  18.927
 9900SOL    HW141328   3.419   2.767  19.013
 9900SOL    HW241329   3.397   2.642  18.931
 9901SOL     OW41330   4.283   1.303  11.175
 9901SOL    HW141331   4.291   1.310  11.270
 9901SOL    HW241332   4.196   1.337  11.155
 9902SOL     OW41333   1.243   2.749   1.288
 9902SOL    HW141334   1.328   2.716   1.259
 9902SOL    HW241335   1.206   2.677   1.340
 9903SOL     OW41336   3.703   0.707   3.025
 9903SOL    HW141337   3.779   0.667   2.983
 9903SOL    HW241338   3.628   0.659   2.988
 9904SOL     OW41339   0.177   4.760  26.415
 9904SOL    HW141340   0.087   0.010  26.405
 9904SOL    HW241341   0.176   4.673  26.376
 9905SOL     OW41342   1.907   3.225  24.591
 9905SOL    HW141343   1.846   3.237  24.664
 9905SOL    HW241344   1.890   3.298  24.533
 9906SOL     OW41345   2.361   3.139   5.183
 9906SOL    HW141346   2.367   3.222   5.228
 9906SOL    HW241347   2.389   3.074   5.247
 9907SOL     OW41348   2.851   0.689   8.358
 9907SOL    HW141349   2.851   0.680   8.454
 9907SOL    HW241350   2.938   0.724   8.338
 9908SOL     OW41351   0.358   4.629  20.826
 9908SOL    HW141352   0.330   4.545  20.791
 9908SOL    HW241353   0.446   4.612  20.861
 9909SOL     OW41354   2.207   1.607  21.588
 9909SOL    HW141355   2.179   1.691  21.625
 9909SOL    HW241356   2.267   1.571  21.654
 9910SOL     OW41357   2.589   3.845   4.468
 9910SOL    HW141358   2.497   3.870   4.464
 9910SOL    HW241359   2.590   3.766   4.522
 9911SOL     OW41360   1.059   1.524  22.159
 9911SOL    HW141361   1.046   1.619  22.169
 9911SOL    HW241362   1.046   1.509  22.065
 9912SOL     OW41363   4.590   3.580  28.247
 9912SOL    HW141364   4.626   3.594  28.159
 9912SOL    HW241365   4.664   3.548  28.298
 9913SOL     OW41366   2.514   2.911  20.251
 9913SOL    HW141367   2.570   2.955  20.314
 9913SOL    HW241368   2.573   2.853  20.203
 9914SOL     OW41369   0.822   2.165   3.150
 9914SOL    HW141370   0.871   2.107   3.209
 9914SOL    HW241371   0.885   2.190   3.083
 9915SOL     OW41372   0.490   3.910  26.196
 9915SOL    HW141373   0.508   3.817  26.184
 9915SOL    HW241374   0.394   3.916  26.198
 9916SOL     OW41375   0.851   3.579   5.939
 9916SOL    HW141376   0.885   3.665   5.963
 9916SOL    HW241377   0.826   3.587   5.847
 9917SOL     OW41378   1.829   0.039   6.610
 9917SOL    HW141379   1.922   0.057   6.603
 9917SOL    HW241380   1.799   0.027   6.520
 9918SOL     OW41381   2.961   0.666   4.725
 9918SOL    HW141382   3.049   0.666   4.762
 9918SOL    HW241383   2.903   0.679   4.800
 9919SOL     OW41384   0.297   0.043   2.619
 9919SOL    HW141385   0.349   0.082   2.689
 9919SOL    HW241386   0.215   0.092   2.620
 9920SOL     OW41387   1.316   4.009   9.735
 9920SOL    HW141388   1.364   4.088   9.713
 9920SOL    HW241389   1.359   3.939   9.685
 9921SOL     OW41390   0.557   2.876   1.090
 9921SOL    HW141391   0.641   2.909   1.121
 9921SOL    HW241392   0.505   2.866   1.170
 9922SOL     OW41393   4.397   4.246   2.083
 9922SOL    HW141394   4.357   4.223   2.167
 9922SOL    HW241395   4.467   4.308   2.107
 9923SOL     OW41396   1.339   2.329  23.802
 9923SOL    HW141397   1.377   2.296  23.721
 9923SOL    HW241398   1.320   2.421  23.784
 9924SOL     OW41399   2.279   0.951  20.255
 9924SOL    HW141400   2.263   0.894  20.329
 9924SOL    HW241401   2.197   1.000  20.244
 9925SOL     OW41402   3.840   0.933   0.418
 9925SOL    HW141403   3.930   0.938   0.448
 9925SOL    HW241404   3.832   1.004   0.354
 9926SOL     OW41405   1.814   4.640  25.204
 9926SOL    HW141406   1.833   4.635  25.110
 9926SOL    HW241407   1.801   4.733  25.221
 9927SOL     OW41408   4.339   1.897  21.265
 9927SOL    HW141409   4.277   1.868  21.331
 9927SOL    HW241410   4.409   1.831  21.267
 9928SOL     OW41411   3.413   2.000   9.315
 9928SOL    HW141412   3.386   1.908   9.314
 9928SOL    HW241413   3.505   1.998   9.342
 9929SOL     OW41414   3.655   2.478   6.440
 9929SOL    HW141415   3.724   2.516   6.384
 9929SOL    HW241416   3.588   2.546   6.444
 9930SOL     OW41417   3.749   1.943  23.694
 9930SOL    HW141418   3.656   1.966  23.700
 9930SOL    HW241419   3.782   1.955  23.783
 9931SOL     OW41420   4.240   4.234  16.754
 9931SOL    HW141421   4.310   4.293  16.728
 9931SOL    HW241422   4.183   4.228  16.677
 9932SOL     OW41423   2.623   0.940   4.017
 9932SOL    HW141424   2.712   0.904   4.017
 9932SOL    HW241425   2.618   0.993   3.937
 9933SOL     OW41426   4.437   3.600   1.542
 9933SOL    HW141427   4.455   3.694   1.539
 9933SOL    HW241428   4.390   3.587   1.625
 9934SOL     OW41429   2.126   0.332  24.059
 9934SOL    HW141430   2.039   0.292  24.050
 9934SOL    HW241431   2.150   0.318  24.150
 9935SOL     OW41432   0.060   0.372   7.628
 9935SOL    HW141433   0.109   0.432   7.685
 9935SOL    HW241434   0.091   0.285   7.652
 9936SOL     OW41435   1.683   0.584  22.997
 9936SOL    HW141436   1.603   0.530  23.000
 9936SOL    HW241437   1.755   0.520  23.001
 9937SOL     OW41438   1.021   0.442   4.871
 9937SOL    HW141439   1.072   0.360   4.866
 9937SOL    HW241440   0.952   0.423   4.935
 9938SOL     OW41441   0.872   2.547  25.615
 9938SOL    HW141442   0.884   2.531  25.521
 9938SOL    HW241443   0.928   2.623  25.633
 9939SOL     OW41444   2.028   0.068  26.546
 9939SOL    HW141445   1.958   0.064  26.612
 9939SOL    HW241446   1.982   0.074  26.462
 9940SOL     OW41447   2.493   3.861  27.611
 9940SOL    HW141448   2.407   3.904  27.609
 9940SOL    HW241449   2.507   3.832  27.521
 9941SOL     OW41450   1.726   1.587  18.765
 9941SOL    HW141451   1.758   1.610  18.852
 9941SOL    HW241452   1.636   1.557  18.780
 9942SOL     OW41453   2.760   3.352  27.466
 9942SOL    HW141454   2.802   3.398  27.539
 9942SOL    HW241455   2.831   3.331  27.406
 9943SOL     OW41456   3.477   0.867   1.602
 9943SOL    HW141457   3.471   0.857   1.507
 9943SOL    HW241458   3.396   0.912   1.627
 9944SOL     OW41459   1.049   3.428   6.645
 9944SOL    HW141460   1.004   3.403   6.726
 9944SOL    HW241461   1.138   3.394   6.655
 9945SOL     OW41462   4.329   1.757  20.810
 9945SOL    HW141463   4.345   1.667  20.839
 9945SOL    HW241464   4.269   1.792  20.875
 9946SOL     OW41465   3.939   0.225   6.153
 9946SOL    HW141466   3.893   0.228   6.069
 9946SOL    HW241467   4.018   0.174   6.135
 9947SOL     OW41468   3.045   2.577   3.540
 9947SOL    HW141469   2.967   2.521   3.540
 9947SOL    HW241470   3.053   2.608   3.450
 9948SOL     OW41471   4.757   0.977   1.096
 9948SOL    HW141472   4.685   0.919   1.073
 9948SOL    HW241473   0.051   0.919   1.100
 9949SOL     OW41474   3.160   2.868  23.524
 9949SOL    HW141475   3.127   2.785  23.557
 9949SOL    HW241476   3.221   2.898  23.591
 9950SOL     OW41477   4.093   1.089   5.234
 9950SOL    HW141478   4.122   1.092   5.325
 9950SOL    HW241479   4.093   0.996   5.212
 9951SOL     OW41480   3.340   3.429  18.833
 9951SOL    HW141481   3.425   3.474  18.835
 9951SOL    HW241482   3.314   3.432  18.741
 9952SOL     OW41483   1.975   4.448  21.285
 9952SOL    HW141484   2.028   4.387  21.234
 9952SOL    HW241485   2.022   4.458  21.367
 9953SOL     OW41486   0.538   2.824  23.219
 9953SOL    HW141487   0.608   2.760  23.230
 9953SOL    HW241488   0.507   2.810  23.129
 9954SOL     OW41489   0.377   4.475  27.794
 9954SOL    HW141490   0.355   4.450  27.704
 9954SOL    HW241491   0.326   4.555  27.810
 9955SOL     OW41492   1.456   2.257  26.723
 9955SOL    HW141493   1.452   2.172  26.679
 9955SOL    HW241494   1.474   2.319  26.653
 9956SOL     OW41495   0.897   0.778  12.662
 9956SOL    HW141496   0.917   0.718  12.733
 9956SOL    HW241497   0.980   0.790  12.616
 9957SOL     OW41498   3.061   2.317  26.102
 9957SOL    HW141499   3.079   2.238  26.153
 9957SOL    HW241500   2.981   2.296  26.053
 9958SOL     OW41501   0.847   2.709   8.581
 9958SOL    HW141502   0.918   2.645   8.584
 9958SOL    HW241503   0.862   2.766   8.656
 9959SOL     OW41504   4.736   3.130   2.839
 9959SOL    HW141505   4.641   3.139   2.848
 9959SOL    HW241506   4.753   3.150   2.747
 9960SOL     OW41507   1.356   0.611  26.991
 9960SOL    HW141508   1.404   0.556  27.052
 9960SOL    HW241509   1.392   0.588  26.905
 9961SOL     OW41510   3.365   4.002   1.185
 9961SOL    HW141511   3.382   4.012   1.091
 9961SOL    HW241512   3.314   3.921   1.191
 9962SOL     OW41513   0.554   4.175  27.766
 9962SOL    HW141514   0.486   4.137  27.711
 9962SOL    HW241515   0.619   4.209  27.704
 9963SOL     OW41516   4.527   1.067  24.478
 9963SOL    HW141517   4.481   1.147  24.504
 9963SOL    HW241518   4.485   1.040  24.397
 9964SOL     OW41519   0.755   3.408   4.695
 9964SOL    HW141520   0.664   3.422   4.670
 9964SOL    HW241521   0.798   3.491   4.675
 9965SOL     OW41522   2.238   2.951   0.206
 9965SOL    HW141523   2.184   2.941   0.284
 9965SOL    HW241524   2.294   3.026   0.226
 9966SOL     OW41525   4.719   0.783  18.718
 9966SOL    HW141526   4.661   0.707  18.723
 9966SOL    HW241527   0.023   0.747  18.702
 9967SOL     OW41528   4.170   0.105   6.077
 9967SOL    HW141529   4.185   0.032   6.137
 9967SOL    HW241530   4.229   0.087   6.003
 9968SOL     OW41531   2.912   2.397  24.115
 9968SOL    HW141532   2.965   2.476  24.101
 9968SOL    HW241533   2.915   2.383  24.210
 9969SOL     OW41534   4.021   0.713  27.439
 9969SOL    HW141535   4.045   0.679  27.525
 9969SOL    HW241536   4.051   0.645  27.378
 9970SOL     OW41537   2.906   2.549   3.225
 9970SOL    HW141538   2.832   2.572   3.168
 9970SOL    HW241539   2.866   2.498   3.296
 9971SOL     OW41540   1.160   1.352   2.250
 9971SOL    HW141541   1.231   1.396   2.297
 9971SOL    HW241542   1.184   1.259   2.252
 9972SOL     OW41543   0.760   3.882  22.900
 9972SOL    HW141544   0.810   3.942  22.954
 9972SOL    HW241545   0.725   3.817  22.961
 9973SOL     OW41546   3.653   4.227   0.984
 9973SOL    HW141547   3.672   4.135   1.004
 9973SOL    HW241548   3.645   4.229   0.888
 9974SOL     OW41549   0.101   0.084   5.147
 9974SOL    HW141550   0.017   0.109   5.187
 9974SOL    HW241551   0.093   0.112   5.056
 9975SOL     OW41552   3.711   1.710   4.706
 9975SOL    HW141553   3.630   1.659   4.707
 9975SOL    HW241554   3.682   1.802   4.707
 9976SOL     OW41555   4.372   3.716  20.178
 9976SOL    HW141556   4.456   3.713  20.224
 9976SOL    HW241557   4.383   3.783  20.111
 9977SOL     OW41558   1.752   0.656  25.365
 9977SOL    HW141559   1.762   0.562  25.379
 9977SOL    HW241560   1.778   0.696  25.448
 9978SOL     OW41561   0.607   0.859   4.016
 9978SOL    HW141562   0.594   0.925   3.947
 9978SOL    HW241563   0.702   0.858   4.029
 9979SOL     OW41564   1.350   0.464  24.640
 9979SOL    HW141565   1.270   0.488  24.687
 9979SOL    HW241566   1.420   0.510  24.688
 9980SOL     OW41567   2.667   4.026  26.984
 9980SOL    HW141568   2.583   4.048  26.944
 9980SOL    HW241569   2.667   4.076  27.066
 9981SOL     OW41570   0.783   2.246  24.840
 9981SOL    HW141571   0.748   2.158  24.831
 9981SOL    HW241572   0.878   2.236  24.831
 9982SOL     OW41573   2.268   1.837   1.297
 9982SOL    HW141574   2.198   1.773   1.278
 9982SOL    HW241575   2.255   1.859   1.389
 9983SOL     OW41576   1.457   1.025   9.542
 9983SOL    HW141577   1.421   1.032   9.453
 9983SOL    HW241578   1.428   0.938   9.572
 9984SOL     OW41579   1.783   0.774   7.276
 9984SOL    HW141580   1.786   0.679   7.290
 9984SOL    HW241581   1.714   0.804   7.335
 9985SOL     OW41582   0.596   4.050  21.747
 9985SOL    HW141583   0.598   4.142  21.774
 9985SOL    HW241584   0.684   4.018  21.765
 9986SOL     OW41585   1.907   3.581  27.443
 9986SOL    HW141586   1.959   3.568  27.363
 9986SOL    HW241587   1.878   3.672  27.438
 9987SOL     OW41588   3.976   3.359   0.744
 9987SOL    HW141589   4.010   3.317   0.664
 9987SOL    HW241590   4.052   3.400   0.784
 9988SOL     OW41591   3.013   2.959  10.764
 9988SOL    HW141592   3.108   2.945  10.760
 9988SOL    HW241593   2.998   3.001  10.848
 9989SOL     OW41594   0.228   4.220   9.101
 9989SOL    HW141595   0.139   4.253   9.109
 9989SOL    HW241596   0.243   4.213   9.007
 9990SOL     OW41597   0.214   2.558  26.700
 9990SOL    HW141598   0.231   2.464  26.708
 9990SOL    HW241599   0.301   2.597  26.687
 9991SOL     OW41600   1.456   4.266  24.259
 9991SOL    HW141601   1.385   4.329  24.243
 9991SOL    HW241602   1.527   4.295  24.201
 9992SOL     OW41603   4.253   1.843  28.143
 9992SOL    HW141604   4.189   1.907  28.173
 9992SOL    HW241605   4.258   1.779  28.214
 9993SOL     OW41606   2.986   1.478  28.391
 9993SOL    HW141607   3.010   1.460  28.300
 9993SOL    HW241608   2.902   1.435  28.403
 9994SOL     OW41609   3.169   3.336  16.337
 9994SOL    HW141610   3.128   3.295  16.260
 9994SOL    HW241611   3.263   3.326  16.322
 9995SOL     OW41612   2.336   3.613   9.801
 9995SOL    HW141613   2.411   3.652   9.756
 9995SOL    HW241614   2.306   3.681   9.861
 9996SOL     OW41615   1.044   2.443   6.258
 9996SOL    HW141616   1.003   2.523   6.226
 9996SOL    HW241617   1.012   2.434   6.348
 9997SOL     OW41618   3.101   0.165  20.740
 9997SOL    HW141619   3.160   0.236  20.716
 9997SOL    HW241620   3.020   0.209  20.767
 9998SOL     OW41621   1.992   0.192  22.819
 9998SOL    HW141622   2.084   0.166  22.821
 9998SOL    HW241623   1.953   0.136  22.752
 9999SOL     OW41624   0.335   1.593   4.059
 9999SOL    HW141625   0.248   1.585   4.100
 9999SOL    HW241626   0.359   1.685   4.072
10000SOL     OW41627   4.250   2.693   7.232
10000SOL    HW141628   4.155   2.698   7.223
10000SOL    HW241629   4.282   2.769   7.184
10001SOL     OW41630   1.839   0.179  26.178
10001SOL    HW141631   1.750   0.143  26.182
10001SOL    HW241632   1.896   0.102  26.186
10002SOL     OW41633   3.264   2.616   0.556
10002SOL    HW141634   3.238   2.696   0.511
10002SOL    HW241635   3.216   2.617   0.639
10003SOL     OW41636   0.791   2.435  19.959
10003SOL    HW141637   0.775   2.359  19.903
10003SOL    HW241638   0.706   2.454  19.999
10004SOL     OW41639   2.898   4.331   1.512
10004SOL    HW141640   2.811   4.339   1.473
10004SOL    HW241641   2.945   4.409   1.483
10005SOL     OW41642   3.151   0.418  18.924
10005SOL    HW141643   3.102   0.343  18.958
10005SOL    HW241644   3.160   0.400  18.831
10006SOL     OW41645   0.635   4.023  20.969
10006SOL    HW141646   0.613   3.991  20.882
10006SOL    HW241647   0.552   4.057  21.004
10007SOL     OW41648   2.515   4.706   4.483
10007SOL    HW141649   2.509   4.664   4.397
10007SOL    HW241650   2.559   4.641   4.538
10008SOL     OW41651   2.502   4.524   4.249
10008SOL    HW141652   2.459   4.571   4.178
10008SOL    HW241653   2.439   4.458   4.277
10009SOL     OW41654   1.859   4.123  24.932
10009SOL    HW141655   1.919   4.054  24.961
10009SOL    HW241656   1.836   4.100  24.842
10010SOL     OW41657   3.971   0.435   2.449
10010SOL    HW141658   3.952   0.522   2.484
10010SOL    HW241659   4.029   0.452   2.375
10011SOL     OW41660   0.116   4.072   4.636
10011SOL    HW141661   0.066   4.082   4.717
10011SOL    HW241662   0.071   4.002   4.589
10012SOL     OW41663   4.141   1.647   5.517
10012SOL    HW141664   4.202   1.639   5.443
10012SOL    HW241665   4.151   1.564   5.564
10013SOL     OW41666   4.213   0.388  28.111
10013SOL    HW141667   4.202   0.478  28.141
10013SOL    HW241668   4.132   0.368  28.064
10014SOL     OW41669   3.358   1.972   7.811
10014SOL    HW141670   3.324   1.904   7.753
10014SOL    HW241671   3.428   1.928   7.860
10015SOL     OW41672   2.482   3.709  10.932
10015SOL    HW141673   2.476   3.699  11.027
10015SOL    HW241674   2.529   3.791  10.919
10016SOL     OW41675   4.496   0.163  28.162
10016SOL    HW141676   4.521   0.255  28.170
10016SOL    HW241677   4.431   0.150  28.231
10017SOL     OW41678   0.822   3.201  21.975
10017SOL    HW141679   0.877   3.180  22.050
10017SOL    HW241680   0.748   3.249  22.012
10018SOL     OW41681   1.893   0.886   7.744
10018SOL    HW141682   1.890   0.927   7.657
10018SOL    HW241683   1.945   0.807   7.730
10019SOL     OW41684   1.103   1.146  23.218
10019SOL    HW141685   1.054   1.227  23.234
10019SOL    HW241686   1.035   1.079  23.207
10020SOL     OW41687   0.518   0.505   3.049
10020SOL    HW141688   0.438   0.527   3.097
10020SOL    HW241689   0.572   0.583   3.054
10021SOL     OW41690   3.032   3.745  25.348
10021SOL    HW141691   2.958   3.795  25.381
10021SOL    HW241692   2.992   3.669  25.305
10022SOL     OW41693   0.587   1.409   7.955
10022SOL    HW141694   0.662   1.376   8.005
10022SOL    HW241695   0.626   1.465   7.887
10023SOL     OW41696   4.045   1.436   0.628
10023SOL    HW141697   3.975   1.476   0.679
10023SOL    HW241698   4.057   1.494   0.553
10024SOL     OW41699   3.741   3.307  23.898
10024SOL    HW141700   3.831   3.338  23.895
10024SOL    HW241701   3.707   3.327  23.811
10025SOL     OW41702   4.012   3.515  10.904
10025SOL    HW141703   4.032   3.549  10.991
10025SOL    HW241704   4.089   3.463  10.880
10026SOL     OW41705   0.279   0.665   0.636
10026SOL    HW141706   0.321   0.612   0.568
10026SOL    HW241707   0.325   0.640   0.717
10027SOL     OW41708   3.170   2.719  22.554
10027SOL    HW141709   3.133   2.662  22.486
10027SOL    HW241710   3.109   2.793  22.558
10028SOL     OW41711   2.635   1.795  18.604
10028SOL    HW141712   2.709   1.737  18.623
10028SOL    HW241713   2.614   1.836  18.688
10029SOL     OW41714   0.241   0.032  22.294
10029SOL    HW141715   0.333   0.058  22.301
10029SOL    HW241716   0.227   4.753  22.366
10030SOL     OW41717   0.761   3.159  22.282
10030SOL    HW141718   0.850   3.137  22.307
10030SOL    HW241719   0.745   3.244  22.321
10031SOL     OW41720   0.287   4.110  27.992
10031SOL    HW141721   0.234   4.085  27.916
10031SOL    HW241722   0.253   4.055  28.063
10032SOL     OW41723   1.138   2.373  26.743
10032SOL    HW141724   1.208   2.365  26.808
10032SOL    HW241725   1.090   2.452  26.769
10033SOL     OW41726   0.013   0.474  21.686
10033SOL    HW141727   4.777   0.387  21.652
10033SOL    HW241728   4.716   0.498  21.734
10034SOL     OW41729   2.662   1.275  26.975
10034SOL    HW141730   2.619   1.228  27.047
10034SOL    HW241731   2.714   1.209  26.930
10035SOL     OW41732   0.318   1.712  21.197
10035SOL    HW141733   0.245   1.683  21.142
10035SOL    HW241734   0.278   1.775  21.257
10036SOL     OW41735   3.485   2.664  17.713
10036SOL    HW141736   3.455   2.736  17.657
10036SOL    HW241737   3.579   2.661  17.699
10037SOL     OW41738   0.457   1.328  18.388
10037SOL    HW141739   0.464   1.240  18.351
10037SOL    HW241740   0.548   1.352  18.408
10038SOL     OW41741   2.831   4.011   8.150
10038SOL    HW141742   2.911   3.999   8.201
10038SOL    HW241743   2.763   3.969   8.203
10039SOL     OW41744   0.683   4.396  19.215
10039SOL    HW141745   0.634   4.470  19.252
10039SOL    HW241746   0.763   4.393  19.266
10040SOL     OW41747   3.157   0.551   3.585
10040SOL    HW141748   3.190   0.626   3.634
10040SOL    HW241749   3.067   0.576   3.564
10041SOL     OW41750   1.550   1.820   1.852
10041SOL    HW141751   1.597   1.894   1.814
10041SOL    HW241752   1.545   1.756   1.780
10042SOL     OW41753   4.662   2.068   5.981
10042SOL    HW141754   4.685   2.161   5.984
10042SOL    HW241755   4.601   2.060   5.908
10043SOL     OW41756   2.933   0.640  24.853
10043SOL    HW141757   2.970   0.713  24.904
10043SOL    HW241758   2.990   0.634  24.776
10044SOL     OW41759   0.852   2.823  10.052
10044SOL    HW141760   0.818   2.908  10.079
10044SOL    HW241761   0.774   2.774  10.024
10045SOL     OW41762   3.126   1.629   4.997
10045SOL    HW141763   3.113   1.646   5.091
10045SOL    HW241764   3.200   1.568   4.994
10046SOL     OW41765   2.157   4.612  20.623
10046SOL    HW141766   2.156   4.610  20.528
10046SOL    HW241767   2.065   4.622  20.648
10047SOL     OW41768   1.106   2.672  11.762
10047SOL    HW141769   1.078   2.585  11.734
10047SOL    HW241770   1.169   2.656  11.832
10048SOL     OW41771   3.937   4.079   0.912
10048SOL    HW141772   3.923   4.125   0.995
10048SOL    HW241773   4.032   4.070   0.906
10049SOL     OW41774   1.722   1.998  24.880
10049SOL    HW141775   1.734   1.925  24.940
10049SOL    HW241776   1.810   2.033  24.866
10050SOL     OW41777   2.628   1.575   5.373
10050SOL    HW141778   2.722   1.575   5.391
10050SOL    HW241779   2.587   1.563   5.459
10051SOL     OW41780   0.895   1.771   6.666
10051SOL    HW141781   0.901   1.786   6.572
10051SOL    HW241782   0.872   1.678   6.675
10052SOL     OW41783   2.659   0.197   4.826
10052SOL    HW141784   2.631   0.122   4.773
10052SOL    HW241785   2.688   0.157   4.909
10053SOL     OW41786   3.814   3.752   8.419
10053SOL    HW141787   3.841   3.660   8.419
10053SOL    HW241788   3.892   3.800   8.448
10054SOL     OW41789   1.117   4.527   3.910
10054SOL    HW141790   1.048   4.511   3.975
10054SOL    HW241791   1.091   4.608   3.866
10055SOL     OW41792   2.164   0.878  24.022
10055SOL    HW141793   2.214   0.954  24.053
10055SOL    HW241794   2.119   0.909  23.943
10056SOL     OW41795   3.247   1.478  21.392
10056SOL    HW141796   3.209   1.399  21.428
10056SOL    HW241797   3.172   1.531  21.365
10057SOL     OW41798   1.281   3.819   8.885
10057SOL    HW141799   1.208   3.766   8.917
10057SOL    HW241800   1.346   3.755   8.856
10058SOL     OW41801   2.866   4.113   0.025
10058SOL    HW141802   2.804   4.046   0.054
10058SOL    HW241803   2.863   4.180   0.093
10059SOL     OW41804   1.475   1.411  28.290
10059SOL    HW141805   1.562   1.376  28.311
10059SOL    HW241806   1.478   1.502  28.317
10060SOL     OW41807   3.789   4.061   6.643
10060SOL    HW141808   3.876   4.026   6.627
10060SOL    HW241809   3.796   4.155   6.625
10061SOL     OW41810   3.570   1.496  20.882
10061SOL    HW141811   3.666   1.500  20.884
10061SOL    HW241812   3.549   1.413  20.923
10062SOL     OW41813   3.962   3.865   4.386
10062SOL    HW141814   3.915   3.942   4.353
10062SOL    HW241815   3.939   3.795   4.326
10063SOL     OW41816   4.380   3.784   2.023
10063SOL    HW141817   4.309   3.753   2.079
10063SOL    HW241818   4.442   3.827   2.082
10064SOL     OW41819   1.450   1.488   4.646
10064SOL    HW141820   1.469   1.461   4.736
10064SOL    HW241821   1.383   1.556   4.655
10065SOL     OW41822   4.770   3.070  18.420
10065SOL    HW141823   4.746   2.981  18.445
10065SOL    HW241824   0.027   3.061  18.334
10066SOL     OW41825   0.756   2.039   4.079
10066SOL    HW141826   0.724   1.956   4.112
10066SOL    HW241827   0.748   2.099   4.153
10067SOL     OW41828   4.044   1.476  19.880
10067SOL    HW141829   4.121   1.448  19.831
10067SOL    HW241830   4.078   1.503  19.965
10068SOL     OW41831   0.214   3.180   4.209
10068SOL    HW141832   0.132   3.131   4.203
10068SOL    HW241833   0.272   3.123   4.260
10069SOL     OW41834   4.003   2.659   5.177
10069SOL    HW141835   3.993   2.700   5.091
10069SOL    HW241836   4.059   2.719   5.226
10070SOL     OW41837   4.308   4.617   3.372
10070SOL    HW141838   4.305   4.708   3.400
10070SOL    HW241839   4.294   4.620   3.277
10071SOL     OW41840   4.537   3.891  24.408
10071SOL    HW141841   4.469   3.841  24.364
10071SOL    HW241842   4.507   3.898  24.499
10072SOL     OW41843   2.696   4.205  28.204
10072SOL    HW141844   2.685   4.200  28.299
10072SOL    HW241845   2.652   4.127  28.171
10073SOL     OW41846   1.622   4.501  27.300
10073SOL    HW141847   1.577   4.585  27.293
10073SOL    HW241848   1.555   4.436  27.277
10074SOL     OW41849   2.645   2.279   0.775
10074SOL    HW141850   2.611   2.347   0.716
10074SOL    HW241851   2.659   2.324   0.858
10075SOL     OW41852   2.818   2.341   5.706
10075SOL    HW141853   2.812   2.246   5.716
10075SOL    HW241854   2.842   2.373   5.793
10076SOL     OW41855   3.971   4.692   1.345
10076SOL    HW141856   4.053   4.655   1.312
10076SOL    HW241857   3.998   4.774   1.387
10077SOL     OW41858   3.358   3.126  26.481
10077SOL    HW141859   3.422   3.079  26.428
10077SOL    HW241860   3.321   3.060  26.539
10078SOL     OW41861   3.512   4.210   8.430
10078SOL    HW141862   3.603   4.235   8.416
10078SOL    HW241863   3.505   4.121   8.394
10079SOL     OW41864   0.243   0.149   8.830
10079SOL    HW141865   0.171   0.210   8.816
10079SOL    HW241866   0.208   0.063   8.807
10080SOL     OW41867   3.384   0.019   2.979
10080SOL    HW141868   3.356   4.768   3.064
10080SOL    HW241869   3.461   0.073   2.999
10081SOL     OW41870   3.303   3.261   8.301
10081SOL    HW141871   3.295   3.348   8.261
10081SOL    HW241872   3.264   3.271   8.388
10082SOL     OW41873   1.486   0.711  24.720
10082SOL    HW141874   1.472   0.781  24.657
10082SOL    HW241875   1.424   0.731  24.791
10083SOL     OW41876   4.448   1.837  27.654
10083SOL    HW141877   4.475   1.748  27.630
10083SOL    HW241878   4.362   1.848  27.613
10084SOL     OW41879   0.118   4.730  25.219
10084SOL    HW141880   0.148   4.678  25.144
10084SOL    HW241881   0.154   0.035  25.203
10085SOL     OW41882   1.874   0.127  21.326
10085SOL    HW141883   1.940   0.074  21.282
10085SOL    HW241884   1.923   0.199  21.365
10086SOL     OW41885   0.873   3.400   3.165
10086SOL    HW141886   0.783   3.368   3.163
10086SOL    HW241887   0.921   3.333   3.213
10087SOL     OW41888   0.719   3.288   7.537
10087SOL    HW141889   0.712   3.194   7.548
10087SOL    HW241890   0.629   3.320   7.547
10088SOL     OW41891   3.748   0.195  25.804
10088SOL    HW141892   3.802   0.273  25.793
10088SOL    HW241893   3.804   0.133  25.851
10089SOL     OW41894   0.051   1.170  23.521
10089SOL    HW141895   0.075   1.094  23.574
10089SOL    HW241896   0.132   1.218  23.509
10090SOL     OW41897   2.922   0.133   8.035
10090SOL    HW141898   2.999   0.165   7.987
10090SOL    HW241899   2.949   0.046   8.067
10091SOL     OW41900   4.235   2.378   7.184
10091SOL    HW141901   4.298   2.432   7.232
10091SOL    HW241902   4.229   2.297   7.235
10092SOL     OW41903   2.501   4.076  25.150
10092SOL    HW141904   2.572   4.091  25.087
10092SOL    HW241905   2.545   4.066  25.234
10093SOL     OW41906   3.709   0.468   2.719
10093SOL    HW141907   3.630   0.464   2.772
10093SOL    HW241908   3.678   0.468   2.628
10094SOL     OW41909   4.747   2.200  23.651
10094SOL    HW141910   4.655   2.183  23.673
10094SOL    HW241911   4.748   2.291  23.621
10095SOL     OW41912   4.525   0.249   9.540
10095SOL    HW141913   4.571   0.174   9.577
10095SOL    HW241914   4.570   0.266   9.457
10096SOL     OW41915   3.494   0.001   7.825
10096SOL    HW141916   3.573   4.731   7.840
10096SOL    HW241917   3.423   4.720   7.830
10097SOL     OW41918   4.303   4.315   1.327
10097SOL    HW141919   4.309   4.291   1.234
10097SOL    HW241920   4.347   4.244   1.373
10098SOL     OW41921   0.192   2.619   3.074
10098SOL    HW141922   0.144   2.654   2.998
10098SOL    HW241923   0.252   2.690   3.099
10099SOL     OW41924   1.050   0.665   8.390
10099SOL    HW141925   1.140   0.674   8.424
10099SOL    HW241926   1.047   0.576   8.355
10100SOL     OW41927   3.410   3.352  18.352
10100SOL    HW141928   3.332   3.302  18.375
10100SOL    HW241929   3.454   3.368  18.436
10101SOL     OW41930   0.511   1.754  20.830
10101SOL    HW141931   0.477   1.821  20.771
10101SOL    HW241932   0.534   1.801  20.910
10102SOL     OW41933   1.170   1.574  25.089
10102SOL    HW141934   1.147   1.515  25.160
10102SOL    HW241935   1.115   1.547  25.016
10103SOL     OW41936   2.277   2.164  22.832
10103SOL    HW141937   2.298   2.254  22.859
10103SOL    HW241938   2.181   2.162  22.827
10104SOL     OW41939   4.187   0.132  20.808
10104SOL    HW141940   4.133   0.161  20.882
10104SOL    HW241941   4.180   0.203  20.744
10105SOL     OW41942   3.700   3.214  24.134
10105SOL    HW141943   3.708   3.246  24.045
10105SOL    HW241944   3.709   3.119  24.126
10106SOL     OW41945   2.237   0.077   7.172
10106SOL    HW141946   2.248   0.022   7.095
10106SOL    HW241947   2.303   0.146   7.162
10107SOL     OW41948   3.053   1.518   1.796
10107SOL    HW141949   2.981   1.517   1.859
10107SOL    HW241950   3.020   1.471   1.720
10108SOL     OW41951   2.008   4.765  12.513
10108SOL    HW141952   1.932   0.020  12.470
10108SOL    HW241953   1.980   4.677  12.540
10109SOL     OW41954   2.468   3.338  24.825
10109SOL    HW141955   2.460   3.428  24.796
10109SOL    HW241956   2.544   3.338  24.884
10110SOL     OW41957   3.342   1.359  27.290
10110SOL    HW141958   3.387   1.391  27.368
10110SOL    HW241959   3.353   1.429  27.226
10111SOL     OW41960   3.938   3.368   2.791
10111SOL    HW141961   3.883   3.303   2.834
10111SOL    HW241962   3.938   3.343   2.699
10112SOL     OW41963   3.043   1.683   8.272
10112SOL    HW141964   2.994   1.602   8.262
10112SOL    HW241965   2.985   1.751   8.237
10113SOL     OW41966   2.487   2.549   3.549
10113SOL    HW141967   2.576   2.561   3.516
10113SOL    HW241968   2.496   2.479   3.614
10114SOL     OW41969   3.580   3.588  22.854
10114SOL    HW141970   3.535   3.543  22.782
10114SOL    HW241971   3.564   3.534  22.931
10115SOL     OW41972   0.131   2.659   2.077
10115SOL    HW141973   0.147   2.700   1.992
10115SOL    HW241974   0.036   2.666   2.090
10116SOL     OW41975   2.963   2.396   7.719
10116SOL    HW141976   3.046   2.415   7.763
10116SOL    HW241977   2.964   2.452   7.641
10117SOL     OW41978   1.028   3.534  10.646
10117SOL    HW141979   0.995   3.616  10.684
10117SOL    HW241980   0.957   3.504  10.590
10118SOL     OW41981   0.483   3.091  19.032
10118SOL    HW141982   0.516   3.027  18.969
10118SOL    HW241983   0.517   3.175  19.001
10119SOL     OW41984   0.945   4.750   6.495
10119SOL    HW141985   0.926   4.731   6.587
10119SOL    HW241986   1.031   4.712   6.479
10120SOL     OW41987   1.626   4.648   5.848
10120SOL    HW141988   1.695   4.612   5.904
10120SOL    HW241989   1.666   4.726   5.809
10121SOL     OW41990   2.467   1.423   9.291
10121SOL    HW141991   2.515   1.342   9.276
10121SOL    HW241992   2.515   1.467   9.361
10122SOL     OW41993   2.731   1.379   6.080
10122SOL    HW141994   2.806   1.328   6.110
10122SOL    HW241995   2.701   1.333   6.002
10123SOL     OW41996   1.465   1.014   7.985
10123SOL    HW141997   1.532   1.042   8.047
10123SOL    HW241998   1.514   0.961   7.921
10124SOL     OW41999   0.611   1.396  26.179
10124SOL    HW142000   0.677   1.434  26.121
10124SOL    HW242001   0.544   1.361  26.120
10125SOL     OW42002   0.526   2.054   8.913
10125SOL    HW142003   0.537   1.998   8.836
10125SOL    HW242004   0.602   2.034   8.968
10126SOL     OW42005   0.782   1.736   4.962
10126SOL    HW142006   0.710   1.678   4.986
10126SOL    HW242007   0.798   1.788   5.041
10127SOL     OW42008   1.417   2.939   1.505
10127SOL    HW142009   1.416   2.849   1.539
10127SOL    HW242010   1.335   2.948   1.457
10128SOL     OW42011   2.752   2.525   0.468
10128SOL    HW142012   2.746   2.614   0.434
10128SOL    HW242013   2.803   2.533   0.548
10129SOL     OW42014   3.308   3.214   0.166
10129SOL    HW142015   3.277   3.277   0.231
10129SOL    HW242016   3.330   3.269   0.090
10130SOL     OW42017   1.944   2.885  24.020
10130SOL    HW142018   1.860   2.891  24.065
10130SOL    HW242019   2.004   2.934  24.076
10131SOL     OW42020   3.648   3.792   7.488
10131SOL    HW142021   3.609   3.743   7.415
10131SOL    HW242022   3.742   3.784   7.474
10132SOL     OW42023   4.058   0.744   1.715
10132SOL    HW142024   4.116   0.814   1.683
10132SOL    HW242025   4.088   0.666   1.669
10133SOL     OW42026   1.814   2.943  22.737
10133SOL    HW142027   1.854   3.029  22.748
10133SOL    HW242028   1.734   2.959  22.688
10134SOL     OW42029   3.844   4.421   0.710
10134SOL    HW142030   3.934   4.389   0.719
10134SOL    HW242031   3.794   4.344   0.680
10135SOL     OW42032   3.815   3.992  26.535
10135SOL    HW142033   3.859   4.057  26.480
10135SOL    HW242034   3.723   3.996  26.508
10136SOL     OW42035   2.668   3.848  23.790
10136SOL    HW142036   2.653   3.821  23.700
10136SOL    HW242037   2.658   3.944  23.789
10137SOL     OW42038   3.346   2.139  24.216
10137SOL    HW142039   3.330   2.133  24.122
10137SOL    HW242040   3.380   2.227  24.230
10138SOL     OW42041   4.096   0.234  24.858
10138SOL    HW142042   4.125   0.325  24.865
10138SOL    HW242043   4.056   0.228  24.771
10139SOL     OW42044   4.448   0.694   4.832
10139SOL    HW142045   4.369   0.662   4.875
10139SOL    HW242046   4.512   0.624   4.845
10140SOL     OW42047   3.216   2.194   5.577
10140SOL    HW142048   3.144   2.207   5.515
10140SOL    HW242049   3.197   2.253   5.649
10141SOL     OW42050   0.085   4.160  20.045
10141SOL    HW142051   0.091   4.187  19.953
10141SOL    HW242052   0.123   4.234  20.094
10142SOL     OW42053   2.608   3.232   8.150
10142SOL    HW142054   2.589   3.324   8.166
10142SOL    HW242055   2.690   3.215   8.196
10143SOL     OW42056   4.716   0.312   2.012
10143SOL    HW142057   0.006   0.369   1.988
10143SOL    HW242058   4.695   0.264   1.932
10144SOL     OW42059   4.588   4.414  21.454
10144SOL    HW142060   4.567   4.480  21.520
10144SOL    HW242061   4.588   4.332  21.502
10145SOL     OW42062   1.775   3.255  24.870
10145SOL    HW142063   1.686   3.225  24.888
10145SOL    HW242064   1.764   3.326  24.807
10146SOL     OW42065   4.156   2.572  26.847
10146SOL    HW142066   4.094   2.628  26.894
10146SOL    HW242067   4.109   2.544  26.769
10147SOL     OW42068   1.102   1.343   0.894
10147SOL    HW142069   1.039   1.410   0.869
10147SOL    HW242070   1.090   1.274   0.829
10148SOL     OW42071   2.308   1.105  24.097
10148SOL    HW142072   2.394   1.123  24.137
10148SOL    HW242073   2.315   1.139  24.008
10149SOL     OW42074   2.058   2.380  11.618
10149SOL    HW142075   2.030   2.340  11.700
10149SOL    HW242076   2.052   2.474  11.634
10150SOL     OW42077   0.355   0.034  25.616
10150SOL    HW142078   0.395   0.075  25.692
10150SOL    HW242079   0.293   0.099  25.583
10151SOL     OW42080   3.812   2.043   4.371
10151SOL    HW142081   3.795   1.952   4.394
10151SOL    HW242082   3.818   2.044   4.276
10152SOL     OW42083   2.100   2.573  26.441
10152SOL    HW142084   2.036   2.614  26.383
10152SOL    HW242085   2.094   2.480  26.422
10153SOL     OW42086   1.672   4.370  27.797
10153SOL    HW142087   1.762   4.401  27.788
10153SOL    HW242088   1.636   4.375  27.708
10154SOL     OW42089   4.260   2.426  25.714
10154SOL    HW142090   4.330   2.493  25.713
10154SOL    HW242091   4.213   2.440  25.632
10155SOL     OW42092   1.977   3.210  26.176
10155SOL    HW142093   1.970   3.302  26.199
10155SOL    HW242094   1.920   3.200  26.099
10156SOL     OW42095   3.825   1.307  23.654
10156SOL    HW142096   3.805   1.225  23.700
10156SOL    HW242097   3.849   1.280  23.566
10157SOL     OW42098   1.449   2.379   1.099
10157SOL    HW142099   1.497   2.297   1.090
10157SOL    HW242100   1.461   2.423   1.014
10158SOL     OW42101   2.674   4.149   6.670
10158SOL    HW142102   2.708   4.142   6.759
10158SOL    HW242103   2.700   4.236   6.641
10159SOL     OW42104   2.460   0.913   4.344
10159SOL    HW142105   2.392   0.851   4.320
10159SOL    HW242106   2.430   0.997   4.308
10160SOL     OW42107   2.874   1.174   0.929
10160SOL    HW142108   2.901   1.084   0.909
10160SOL    HW242109   2.946   1.211   0.979
10161SOL     OW42110   3.916   4.014   8.805
10161SOL    HW142111   4.005   3.998   8.837
10161SOL    HW242112   3.889   3.932   8.764
10162SOL     OW42113   2.817   4.222   0.557
10162SOL    HW142114   2.889   4.285   0.563
10162SOL    HW242115   2.742   4.269   0.593
10163SOL     OW42116   3.740   4.767   7.639
10163SOL    HW142117   3.692   0.067   7.641
10163SOL    HW242118   3.673   4.701   7.622
10164SOL     OW42119   1.731   4.743   4.739
10164SOL    HW142120   1.778   4.742   4.656
10164SOL    HW242121   1.710   4.651   4.756
10165SOL     OW42122   4.296   1.421  19.756
10165SOL    HW142123   4.312   1.379  19.672
10165SOL    HW242124   4.355   1.497  19.757
10166SOL     OW42125   1.200   1.548  21.340
10166SOL    HW142126   1.273   1.609  21.334
10166SOL    HW242127   1.183   1.540  21.434
10167SOL     OW42128   2.456   2.504   0.600
10167SOL    HW142129   2.443   2.525   0.508
10167SOL    HW242130   2.460   2.590   0.643
10168SOL     OW42131   1.447   4.181   5.393
10168SOL    HW142132   1.361   4.143   5.411
10168SOL    HW242133   1.428   4.269   5.359
10169SOL     OW42134   4.544   0.729  26.205
10169SOL    HW142135   4.527   0.807  26.257
10169SOL    HW242136   4.559   0.761  26.116
10170SOL     OW42137   2.173   4.744   1.512
10170SOL    HW142138   2.161   4.653   1.486
10170SOL    HW242139   2.207   4.739   1.601
10171SOL     OW42140   2.911   3.481  17.759
10171SOL    HW142141   2.944   3.454  17.844
10171SOL    HW242142   2.988   3.513  17.712
10172SOL     OW42143   1.164   2.141  19.963
10172SOL    HW142144   1.146   2.212  20.025
10172SOL    HW242145   1.122   2.168  19.882
10173SOL     OW42146   0.575   4.605  22.238
10173SOL    HW142147   0.488   4.566  22.241
10173SOL    HW242148   0.630   4.538  22.198
10174SOL     OW42149   1.650   3.521   8.112
10174SOL    HW142150   1.672   3.565   8.194
10174SOL    HW242151   1.554   3.517   8.111
10175SOL     OW42152   0.965   0.188   0.942
10175SOL    HW142153   1.051   0.216   0.911
10175SOL    HW242154   0.903   0.238   0.889
10176SOL     OW42155   0.549   2.672  21.221
10176SOL    HW142156   0.479   2.712  21.169
10176SOL    HW242157   0.542   2.578  21.201
10177SOL     OW42158   3.633   0.249  27.159
10177SOL    HW142159   3.728   0.252  27.174
10177SOL    HW242160   3.595   0.251  27.247
10178SOL     OW42161   0.250   0.596   7.800
10178SOL    HW142162   0.331   0.549   7.784
10178SOL    HW242163   0.238   0.651   7.722
10179SOL     OW42164   2.153   0.805   7.879
10179SOL    HW142165   2.242   0.839   7.873
10179SOL    HW242166   2.129   0.785   7.788
10180SOL     OW42167   2.186   4.366   3.871
10180SOL    HW142168   2.215   4.428   3.938
10180SOL    HW242169   2.094   4.387   3.857
10181SOL     OW42170   0.640   2.403  27.095
10181SOL    HW142171   0.620   2.493  27.070
10181SOL    HW242172   0.675   2.410  27.184
10182SOL     OW42173   0.256   2.457  10.140
10182SOL    HW142174   0.249   2.456  10.236
10182SOL    HW242175   0.187   2.517  10.112
10183SOL     OW42176   4.575   3.586  26.732
10183SOL    HW142177   4.483   3.596  26.708
10183SOL    HW242178   4.580   3.617  26.822
10184SOL     OW42179   1.868   0.584  20.781
10184SOL    HW142180   1.956   0.577  20.817
10184SOL    HW242181   1.813   0.535  20.842
10185SOL     OW42182   3.640   1.818  26.802
10185SOL    HW142183   3.623   1.898  26.752
10185SOL    HW242184   3.703   1.769  26.750
10186SOL     OW42185   3.854   2.244  18.249
10186SOL    HW142186   3.778   2.193  18.221
10186SOL    HW242187   3.851   2.323  18.196
10187SOL     OW42188   1.774   0.575  27.328
10187SOL    HW142189   1.772   0.554  27.421
10187SOL    HW242190   1.866   0.574  27.304
10188SOL     OW42191   1.703   3.575   7.542
10188SOL    HW142192   1.621   3.535   7.570
10188SOL    HW242193   1.695   3.582   7.446
10189SOL     OW42194   1.372   4.219  20.764
10189SOL    HW142195   1.349   4.138  20.718
10189SOL    HW242196   1.463   4.205  20.793
10190SOL     OW42197   4.516   1.155   0.259
10190SOL    HW142198   4.603   1.127   0.230
10190SOL    HW242199   4.528   1.181   0.350
10191SOL     OW42200   1.691   3.383   2.007
10191SOL    HW142201   1.684   3.293   2.039
10191SOL    HW242202   1.657   3.437   2.078
10192SOL     OW42203   4.663   0.114  21.126
10192SOL    HW142204   4.708   0.033  21.101
10192SOL    HW242205   4.720   0.184  21.095
10193SOL     OW42206   1.970   2.976  22.336
10193SOL    HW142207   2.026   3.051  22.315
10193SOL    HW242208   2.030   2.901  22.337
10194SOL     OW42209   1.249   3.768  24.635
10194SOL    HW142210   1.252   3.674  24.655
10194SOL    HW242211   1.195   3.806  24.704
10195SOL     OW42212   3.156   2.276  10.532
10195SOL    HW142213   3.104   2.286  10.612
10195SOL    HW242214   3.234   2.228  10.561
10196SOL     OW42215   1.952   2.594  19.879
10196SOL    HW142216   1.976   2.504  19.856
10196SOL    HW242217   2.002   2.649  19.818
10197SOL     OW42218   4.563   3.373  21.145
10197SOL    HW142219   4.530   3.345  21.230
10197SOL    HW242220   4.646   3.327  21.136
10198SOL     OW42221   2.603   3.857   4.777
10198SOL    HW142222   2.608   3.773   4.730
10198SOL    HW242223   2.647   3.840   4.860
10199SOL     OW42224   3.024   3.417   2.427
10199SOL    HW142225   3.105   3.395   2.381
10199SOL    HW242226   3.009   3.510   2.407
10200SOL     OW42227   3.637   0.650  23.638
10200SOL    HW142228   3.645   0.568  23.588
10200SOL    HW242229   3.663   0.626  23.727
10201SOL     OW42230   2.933   0.408   2.361
10201SOL    HW142231   2.968   0.328   2.322
10201SOL    HW242232   3.000   0.436   2.423
10202SOL     OW42233   2.184   1.938  27.352
10202SOL    HW142234   2.090   1.955  27.350
10202SOL    HW242235   2.212   1.967  27.439
10203SOL     OW42236   0.832   1.573   2.868
10203SOL    HW142237   0.806   1.623   2.945
10203SOL    HW242238   0.913   1.529   2.894
10204SOL     OW42239   4.168   2.020   7.665
10204SOL    HW142240   4.208   2.015   7.752
10204SOL    HW242241   4.160   2.114   7.648
10205SOL     OW42242   2.430   3.007   9.317
10205SOL    HW142243   2.514   2.984   9.277
10205SOL    HW242244   2.365   2.963   9.263
10206SOL     OW42245   4.367   0.324   0.726
10206SOL    HW142246   4.383   0.408   0.769
10206SOL    HW242247   4.393   0.339   0.635
10207SOL     OW42248   2.198   4.133  28.420
10207SOL    HW142249   2.263   4.200  28.444
10207SOL    HW242250   2.114   4.172  28.443
10208SOL     OW42251   0.930   0.794  25.930
10208SOL    HW142252   1.014   0.794  25.976
10208SOL    HW242253   0.865   0.782  26.000
10209SOL     OW42254   3.039   2.223   3.520
10209SOL    HW142255   3.017   2.235   3.427
10209SOL    HW242256   3.104   2.153   3.520
10210SOL     OW42257   1.011   3.713  20.914
10210SOL    HW142258   1.083   3.774  20.932
10210SOL    HW242259   0.957   3.757  20.848
10211SOL     OW42260   2.481   0.326  24.064
10211SOL    HW142261   2.470   0.393  23.996
10211SOL    HW242262   2.454   0.244  24.023
10212SOL     OW42263   0.297   0.659   5.000
10212SOL    HW142264   0.331   0.714   5.071
10212SOL    HW242265   0.369   0.651   4.938
10213SOL     OW42266   2.466   1.197  24.816
10213SOL    HW142267   2.419   1.249  24.881
10213SOL    HW242268   2.477   1.111  24.856
10214SOL     OW42269   0.900   3.787  23.549
10214SOL    HW142270   0.979   3.819  23.593
10214SOL    HW242271   0.930   3.755  23.464
10215SOL     OW42272   1.416   3.170   5.071
10215SOL    HW142273   1.395   3.248   5.122
10215SOL    HW242274   1.335   3.148   5.025
10216SOL     OW42275   3.844   3.914  23.007
10216SOL    HW142276   3.935   3.939  23.023
10216SOL    HW242277   3.842   3.819  23.021
10217SOL     OW42278   1.074   3.787  21.986
10217SOL    HW142279   1.144   3.739  22.030
10217SOL    HW242280   1.116   3.865  21.952
10218SOL     OW42281   4.119   2.087  17.258
10218SOL    HW142282   4.096   2.129  17.341
10218SOL    HW242283   4.150   2.159  17.202
10219SOL     OW42284   0.341   1.625  27.619
10219SOL    HW142285   0.394   1.551  27.648
10219SOL    HW242286   0.362   1.695  27.681
10220SOL     OW42287   2.888   4.701  22.195
10220SOL    HW142288   2.957   4.676  22.256
10220SOL    HW242289   2.863   4.620  22.152
10221SOL     OW42290   4.311   1.593  10.380
10221SOL    HW142291   4.264   1.511  10.391
10221SOL    HW242292   4.362   1.603  10.460
10222SOL     OW42293   3.972   2.765  23.484
10222SOL    HW142294   3.944   2.802  23.400
10222SOL    HW242295   3.981   2.671  23.467
10223SOL     OW42296   3.424   2.407   5.412
10223SOL    HW142297   3.351   2.466   5.432
10223SOL    HW242298   3.468   2.392   5.496
10224SOL     OW42299   3.750   1.220  26.247
10224SOL    HW142300   3.757   1.156  26.177
10224SOL    HW242301   3.840   1.237  26.274
10225SOL     OW42302   2.902   1.583   2.924
10225SOL    HW142303   2.939   1.622   3.004
10225SOL    HW242304   2.845   1.651   2.889
10226SOL     OW42305   3.024   2.778   4.406
10226SOL    HW142306   2.936   2.816   4.401
10226SOL    HW242307   3.023   2.726   4.487
10227SOL     OW42308   1.553   2.297   5.554
10227SOL    HW142309   1.535   2.272   5.645
10227SOL    HW242310   1.642   2.334   5.557
10228SOL     OW42311   2.800   0.297   2.992
10228SOL    HW142312   2.802   0.313   3.086
10228SOL    HW242313   2.852   0.218   2.980
10229SOL     OW42314   1.546   1.230   6.258
10229SOL    HW142315   1.568   1.155   6.312
10229SOL    HW242316   1.459   1.256   6.288
10230SOL     OW42317   1.822   4.020   6.762
10230SOL    HW142318   1.789   3.935   6.791
10230SOL    HW242319   1.848   4.065   6.842
10231SOL     OW42320   4.753   0.405  28.415
10231SOL    HW142321   4.717   0.316  28.412
10231SOL    HW242322   4.696   0.452  28.476
10232SOL     OW42323   1.980   3.461  25.222
10232SOL    HW142324   1.969   3.481  25.129
10232SOL    HW242325   1.898   3.418  25.247
10233SOL     OW42326   1.680   3.337   7.748
10233SOL    HW142327   1.654   3.295   7.830
10233SOL    HW242328   1.690   3.429   7.770
10234SOL     OW42329   4.400   1.275  20.400
10234SOL    HW142330   4.388   1.344  20.465
10234SOL    HW242331   4.314   1.265  20.360
10235SOL     OW42332   1.196   2.950   3.988
10235SOL    HW142333   1.167   3.040   3.976
10235SOL    HW242334   1.288   2.958   4.016
10236SOL     OW42335   2.643   1.734   8.875
10236SOL    HW142336   2.558   1.693   8.859
10236SOL    HW242337   2.704   1.684   8.820
10237SOL     OW42338   3.356   2.677   2.339
10237SOL    HW142339   3.269   2.667   2.302
10237SOL    HW242340   3.373   2.772   2.335
10238SOL     OW42341   1.116   3.751   4.554
10238SOL    HW142342   1.190   3.702   4.590
10238SOL    HW242343   1.054   3.684   4.525
10239SOL     OW42344   2.610   2.296  22.105
10239SOL    HW142345   2.607   2.225  22.041
10239SOL    HW242346   2.641   2.372  22.056
10240SOL     OW42347   2.635   2.740   8.931
10240SOL    HW142348   2.697   2.695   8.873
10240SOL    HW242349   2.563   2.679   8.942
10241SOL     OW42350   1.101   0.258  24.896
10241SOL    HW142351   1.115   0.332  24.954
10241SOL    HW242352   1.006   0.248  24.892
10242SOL     OW42353   1.565   1.302  23.850
10242SOL    HW142354   1.570   1.301  23.755
10242SOL    HW242355   1.646   1.344  23.878
10243SOL     OW42356   0.919   0.527   4.459
10243SOL    HW142357   0.975   0.500   4.532
10243SOL    HW242358   0.968   0.502   4.381
10244SOL     OW42359   1.969   1.437  18.677
10244SOL    HW142360   1.979   1.480  18.592
10244SOL    HW242361   1.895   1.482  18.718
10245SOL     OW42362   1.359   2.964   2.778
10245SOL    HW142363   1.389   3.049   2.810
10245SOL    HW242364   1.309   2.927   2.851
10246SOL     OW42365   0.273   1.504   6.103
10246SOL    HW142366   0.188   1.549   6.103
10246SOL    HW242367   0.264   1.436   6.169
10247SOL     OW42368   3.407   0.160  21.851
10247SOL    HW142369   3.410   0.214  21.930
10247SOL    HW242370   3.461   0.084  21.871
10248SOL     OW42371   0.436   0.245   6.875
10248SOL    HW142372   0.477   0.284   6.952
10248SOL    HW242373   0.495   0.172   6.851
10249SOL     OW42374   3.515   2.970   7.419
10249SOL    HW142375   3.445   2.968   7.484
10249SOL    HW242376   3.480   2.921   7.345
10250SOL     OW42377   1.493   1.346   7.871
10250SOL    HW142378   1.571   1.379   7.827
10250SOL    HW242379   1.421   1.395   7.831
10251SOL     OW42380   4.707   2.269  20.471
10251SOL    HW142381   4.747   2.193  20.428
10251SOL    HW242382   4.613   2.259  20.456
10252SOL     OW42383   0.130   4.342  22.089
10252SOL    HW142384   0.211   4.350  22.141
10252SOL    HW242385   0.161   4.320  22.001
10253SOL     OW42386   1.518   3.330  25.972
10253SOL    HW142387   1.433   3.295  25.948
10253SOL    HW242388   1.566   3.255  26.008
10254SOL     OW42389   1.543   1.382  11.475
10254SOL    HW142390   1.596   1.392  11.395
10254SOL    HW242391   1.537   1.471  11.510
10255SOL     OW42392   4.667   3.146  10.555
10255SOL    HW142393   4.610   3.070  10.561
10255SOL    HW242394   4.607   3.221  10.561
10256SOL     OW42395   0.698   3.546  25.879
10256SOL    HW142396   0.603   3.556  25.890
10256SOL    HW242397   0.717   3.589  25.796
10257SOL     OW42398   0.192   2.818   6.039
10257SOL    HW142399   0.178   2.887   6.103
10257SOL    HW242400   0.243   2.858   5.969
10258SOL     OW42401   1.552   3.762  24.757
10258SOL    HW142402   1.481   3.769  24.693
10258SOL    HW242403   1.508   3.737  24.838
10259SOL     OW42404   0.889   1.577   8.877
10259SOL    HW142405   0.932   1.552   8.959
10259SOL    HW242406   0.873   1.671   8.887
10260SOL     OW42407   3.752   2.709   4.144
10260SOL    HW142408   3.661   2.738   4.138
10260SOL    HW242409   3.762   2.647   4.072
10261SOL     OW42410   4.074   1.947   4.876
10261SOL    HW142411   4.045   1.902   4.797
10261SOL    HW242412   3.993   1.958   4.927
10262SOL     OW42413   0.714   2.972   0.788
10262SOL    HW142414   0.802   2.938   0.772
10262SOL    HW242415   0.661   2.894   0.807
10263SOL     OW42416   3.097   1.150   0.671
10263SOL    HW142417   3.097   1.087   0.599
10263SOL    HW242418   3.024   1.123   0.727
10264SOL     OW42419   1.056   0.308  12.450
10264SOL    HW142420   1.068   0.226  12.402
10264SOL    HW242421   1.095   0.291  12.536
10265SOL     OW42422   4.403   2.316   3.496
10265SOL    HW142423   4.366   2.396   3.532
10265SOL    HW242424   4.479   2.345   3.444
10266SOL     OW42425   2.723   3.604   2.344
10266SOL    HW142426   2.668   3.611   2.267
10266SOL    HW242427   2.812   3.620   2.312
10267SOL     OW42428   4.686   2.713   0.797
10267SOL    HW142429   4.700   2.773   0.871
10267SOL    HW242430   4.626   2.647   0.831
10268SOL     OW42431   2.515   3.703   4.156
10268SOL    HW142432   2.579   3.680   4.224
10268SOL    HW242433   2.488   3.792   4.179
10269SOL     OW42434   0.027   3.547  26.526
10269SOL    HW142435   4.782   3.463  26.488
10269SOL    HW242436   4.763   3.551  26.609
10270SOL     OW42437   0.656   3.446  22.058
10270SOL    HW142438   0.630   3.491  21.978
10270SOL    HW242439   0.733   3.494  22.089
10271SOL     OW42440   3.991   3.160  26.395
10271SOL    HW142441   3.971   3.068  26.409
10271SOL    HW242442   3.911   3.197  26.357
10272SOL     OW42443   1.463   2.173   9.254
10272SOL    HW142444   1.543   2.197   9.207
10272SOL    HW242445   1.464   2.229   9.332
10273SOL     OW42446   0.703   3.355  23.761
10273SOL    HW142447   0.666   3.365  23.849
10273SOL    HW242448   0.760   3.431  23.749
10274SOL     OW42449   3.974   0.919  18.656
10274SOL    HW142450   3.958   0.901  18.563
10274SOL    HW242451   3.996   1.012  18.660
10275SOL     OW42452   0.781   4.413   8.994
10275SOL    HW142453   0.723   4.488   9.006
10275SOL    HW242454   0.770   4.361   9.074
10276SOL     OW42455   1.392   3.864   0.565
10276SOL    HW142456   1.373   3.845   0.473
10276SOL    HW242457   1.444   3.944   0.564
10277SOL     OW42458   2.969   2.173   7.437
10277SOL    HW142459   3.058   2.198   7.416
10277SOL    HW242460   2.969   2.161   7.532
10278SOL     OW42461   0.151   2.292   7.496
10278SOL    HW142462   0.115   2.237   7.427
10278SOL    HW242463   0.233   2.326   7.461
10279SOL     OW42464   1.331   4.644  19.623
10279SOL    HW142465   1.353   4.572  19.564
10279SOL    HW242466   1.384   4.629  19.701
10280SOL     OW42467   4.634   0.193   2.822
10280SOL    HW142468   4.615   0.171   2.730
10280SOL    HW242469   4.709   0.138   2.844
10281SOL     OW42470   0.557   1.051  26.543
10281SOL    HW142471   0.564   1.126  26.483
10281SOL    HW242472   0.476   1.007  26.517
10282SOL     OW42473   2.685   0.889   4.765
10282SOL    HW142474   2.720   0.886   4.676
10282SOL    HW242475   2.613   0.952   4.760
10283SOL     OW42476   0.009   0.799  21.996
10283SOL    HW142477   4.709   0.803  21.947
10283SOL    HW242478   0.075   0.778  21.930
10284SOL     OW42479   2.992   2.438   4.494
10284SOL    HW142480   3.075   2.409   4.532
10284SOL    HW242481   2.958   2.501   4.557
10285SOL     OW42482   1.596   2.199  27.601
10285SOL    HW142483   1.606   2.107  27.578
10285SOL    HW242484   1.628   2.205  27.691
10286SOL     OW42485   0.184   2.732   3.830
10286SOL    HW142486   0.237   2.682   3.891
10286SOL    HW242487   0.238   2.808   3.808
10287SOL     OW42488   0.228   4.193   2.508
10287SOL    HW142489   0.136   4.220   2.515
10287SOL    HW242490   0.257   4.183   2.599
10288SOL     OW42491   3.953   0.196  25.071
10288SOL    HW142492   3.860   0.175  25.063
10288SOL    HW242493   3.987   0.193  24.982
10289SOL     OW42494   1.740   0.971   4.576
10289SOL    HW142495   1.750   0.974   4.671
10289SOL    HW242496   1.654   0.931   4.562
10290SOL     OW42497   2.795   1.800   0.870
10290SOL    HW142498   2.776   1.751   0.790
10290SOL    HW242499   2.818   1.887   0.840
10291SOL     OW42500   4.440   4.600   6.961
10291SOL    HW142501   4.481   4.686   6.968
10291SOL    HW242502   4.371   4.601   7.028
10292SOL     OW42503   2.858   4.429  15.749
10292SOL    HW142504   2.870   4.437  15.843
10292SOL    HW242505   2.765   4.411  15.738
10293SOL     OW42506   4.227   0.216  21.994
10293SOL    HW142507   4.293   0.227  21.926
10293SOL    HW242508   4.194   0.128  21.981
10294SOL     OW42509   2.771   1.567   3.728
10294SOL    HW142510   2.848   1.598   3.679
10294SOL    HW242511   2.784   1.472   3.735
10295SOL     OW42512   1.605   1.199   9.349
10295SOL    HW142513   1.516   1.230   9.370
10295SOL    HW242514   1.639   1.264   9.288
10296SOL     OW42515   0.864   0.509  19.775
10296SOL    HW142516   0.902   0.435  19.821
10296SOL    HW242517   0.819   0.559  19.843
10297SOL     OW42518   3.511   3.413  23.033
10297SOL    HW142519   3.474   3.412  23.121
10297SOL    HW242520   3.535   3.322  23.016
10298SOL     OW42521   3.095   3.680  26.199
10298SOL    HW142522   3.081   3.750  26.263
10298SOL    HW242523   3.117   3.725  26.118
10299SOL     OW42524   2.888   1.132   1.395
10299SOL    HW142525   2.946   1.099   1.326
10299SOL    HW242526   2.944   1.139   1.472
10300SOL     OW42527   4.444   2.192  20.494
10300SOL    HW142528   4.375   2.151  20.443
10300SOL    HW242529   4.444   2.144  20.577
10301SOL     OW42530   4.170   0.978   4.741
10301SOL    HW142531   4.228   1.009   4.811
10301SOL    HW242532   4.083   0.975   4.781
10302SOL     OW42533   0.109   0.587   9.386
10302SOL    HW142534   0.096   0.573   9.292
10302SOL    HW242535   0.104   0.499   9.424
10303SOL     OW42536   4.112   4.301  22.382
10303SOL    HW142537   4.087   4.387  22.348
10303SOL    HW242538   4.195   4.317  22.428
10304SOL     OW42539   1.746   1.553   4.547
10304SOL    HW142540   1.670   1.603   4.518
10304SOL    HW242541   1.798   1.616   4.596
10305SOL     OW42542   2.767   0.989   6.155
10305SOL    HW142543   2.840   1.019   6.209
10305SOL    HW242544   2.780   0.895   6.146
10306SOL     OW42545   3.682   4.768  23.619
10306SOL    HW142546   3.645   0.019  23.701
10306SOL    HW242547   3.658   4.676  23.618
10307SOL     OW42548   1.065   3.631   8.565
10307SOL    HW142549   1.001   3.659   8.499
10307SOL    HW242550   1.078   3.708   8.620
10308SOL     OW42551   4.246   4.423  18.833
10308SOL    HW142552   4.184   4.387  18.897
10308SOL    HW242553   4.322   4.365  18.838
10309SOL     OW42554   1.558   2.418  10.411
10309SOL    HW142555   1.609   2.340  10.437
10309SOL    HW242556   1.600   2.449  10.331
10310SOL     OW42557   3.432   3.073   9.844
10310SOL    HW142558   3.369   3.071   9.916
10310SOL    HW242559   3.379   3.065   9.765
10311SOL     OW42560   2.736   0.322   7.681
10311SOL    HW142561   2.813   0.268   7.700
10311SOL    HW242562   2.698   0.283   7.603
10312SOL     OW42563   2.092   0.614  25.112
10312SOL    HW142564   2.114   0.600  25.020
10312SOL    HW242565   2.077   0.527  25.147
10313SOL     OW42566   3.701   4.437   5.237
10313SOL    HW142567   3.719   4.425   5.330
10313SOL    HW242568   3.775   4.489   5.204
10314SOL     OW42569   4.465   2.655   2.651
10314SOL    HW142570   4.432   2.718   2.715
10314SOL    HW242571   4.518   2.594   2.702
10315SOL     OW42572   0.757   2.431   5.341
10315SOL    HW142573   0.790   2.493   5.276
10315SOL    HW242574   0.835   2.396   5.383
10316SOL     OW42575   3.932   0.263  22.511
10316SOL    HW142576   3.856   0.242  22.566
10316SOL    HW242577   3.924   0.205  22.435
10317SOL     OW42578   4.058   2.572  12.489
10317SOL    HW142579   3.975   2.555  12.444
10317SOL    HW242580   4.036   2.634  12.558
10318SOL     OW42581   0.580   0.705   9.210
10318SOL    HW142582   0.626   0.788   9.223
10318SOL    HW242583   0.503   0.711   9.266
10319SOL     OW42584   0.078   1.289   5.987
10319SOL    HW142585   0.051   1.257   6.073
10319SOL    HW242586   0.112   1.377   6.005
10320SOL     OW42587   0.120   2.047   2.793
10320SOL    HW142588   0.063   2.027   2.867
10320SOL    HW242589   0.148   2.137   2.808
10321SOL     OW42590   0.830   4.691  20.179
10321SOL    HW142591   0.917   4.655  20.199
10321SOL    HW242592   0.847   4.760  20.115
10322SOL     OW42593   4.293   2.767  22.035
10322SOL    HW142594   4.285   2.704  22.107
10322SOL    HW242595   4.265   2.718  21.957
10323SOL     OW42596   3.085   2.619  20.917
10323SOL    HW142597   3.132   2.547  20.876
10323SOL    HW242598   3.151   2.688  20.928
10324SOL     OW42599   1.820   0.427  25.548
10324SOL    HW142600   1.901   0.452  25.593
10324SOL    HW242601   1.761   0.400  25.619
10325SOL     OW42602   0.730   4.250  26.607
10325SOL    HW142603   0.677   4.197  26.667
10325SOL    HW242604   0.791   4.187  26.567
10326SOL     OW42605   1.072   2.481   1.168
10326SOL    HW142606   1.035   2.540   1.235
10326SOL    HW242607   1.139   2.431   1.215
10327SOL     OW42608   1.699   4.624  26.329
10327SOL    HW142609   1.675   4.681  26.257
10327SOL    HW242610   1.792   4.639  26.342
10328SOL     OW42611   0.117   2.154  19.319
10328SOL    HW142612   0.133   2.247  19.335
10328SOL    HW242613   0.053   2.153  19.248
10329SOL     OW42614   1.041   4.295  22.122
10329SOL    HW142615   1.077   4.364  22.177
10329SOL    HW242616   1.081   4.309  22.036
10330SOL     OW42617   1.114   2.664   5.659
10330SOL    HW142618   1.115   2.671   5.564
10330SOL    HW242619   1.186   2.604   5.680
10331SOL     OW42620   1.096   2.745   1.646
10331SOL    HW142621   1.178   2.754   1.695
10331SOL    HW242622   1.079   2.832   1.610
10332SOL     OW42623   3.209   2.419   1.858
10332SOL    HW142624   3.155   2.343   1.878
10332SOL    HW242625   3.233   2.408   1.766
10333SOL     OW42626   3.390   3.258  19.638
10333SOL    HW142627   3.338   3.338  19.629
10333SOL    HW242628   3.330   3.194  19.675
10334SOL     OW42629   3.149   4.680  22.966
10334SOL    HW142630   3.135   4.586  22.973
10334SOL    HW242631   3.210   4.691  22.894
10335SOL     OW42632   4.559   1.744  17.814
10335SOL    HW142633   4.547   1.783  17.727
10335SOL    HW242634   4.516   1.659  17.808
10336SOL     OW42635   0.984   1.499  24.897
10336SOL    HW142636   0.904   1.490  24.844
10336SOL    HW242637   1.053   1.462  24.842
10337SOL     OW42638   2.983   2.785   0.532
10337SOL    HW142639   2.974   2.873   0.496
10337SOL    HW242640   2.930   2.786   0.612
10338SOL     OW42641   1.593   3.315   3.103
10338SOL    HW142642   1.547   3.328   3.186
10338SOL    HW242643   1.658   3.248   3.121
10339SOL     OW42644   1.318   2.399  25.023
10339SOL    HW142645   1.389   2.337  25.043
10339SOL    HW242646   1.297   2.383  24.931
10340SOL     OW42647   4.605   1.911   2.765
10340SOL    HW142648   4.635   1.850   2.832
10340SOL    HW242649   4.574   1.987   2.813
10341SOL     OW42650   1.745   4.347   1.518
10341SOL    HW142651   1.754   4.439   1.494
10341SOL    HW242652   1.788   4.299   1.447
10342SOL     OW42653   0.136   3.594   3.455
10342SOL    HW142654   0.167   3.525   3.397
10342SOL    HW242655   0.176   3.674   3.421
10343SOL     OW42656   4.622   0.328   9.293
10343SOL    HW142657   4.568   0.405   9.275
10343SOL    HW242658   4.687   0.327   9.223
10344SOL     OW42659   2.951   1.571   1.049
10344SOL    HW142660   2.943   1.655   1.004
10344SOL    HW242661   2.867   1.527   1.033
10345SOL     OW42662   4.695   4.457  28.289
10345SOL    HW142663   4.693   4.444  28.384
10345SOL    HW242664   4.641   4.534  28.275
10346SOL     OW42665   2.610   4.351  21.639
10346SOL    HW142666   2.548   4.312  21.700
10346SOL    HW242667   2.696   4.327  21.673
10347SOL     OW42668   2.644   2.795   1.452
10347SOL    HW142669   2.720   2.812   1.507
10347SOL    HW242670   2.589   2.873   1.461
10348SOL     OW42671   0.401   3.135   9.230
10348SOL    HW142672   0.468   3.068   9.216
10348SOL    HW242673   0.329   3.089   9.273
10349SOL     OW42674   0.843   1.045   9.507
10349SOL    HW142675   0.915   1.012   9.561
10349SOL    HW242676   0.884   1.110   9.451
10350SOL     OW42677   1.543   2.577  25.734
10350SOL    HW142678   1.525   2.651  25.791
10350SOL    HW242679   1.638   2.576  25.724
10351SOL     OW42680   2.182   1.045  25.159
10351SOL    HW142681   2.157   0.990  25.233
10351SOL    HW242682   2.140   1.003  25.084
10352SOL     OW42683   0.814   2.702  19.859
10352SOL    HW142684   0.811   2.626  19.917
10352SOL    HW242685   0.908   2.717  19.845
10353SOL     OW42686   0.942   1.284  19.053
10353SOL    HW142687   1.037   1.277  19.064
10353SOL    HW242688   0.925   1.242  18.969
10354SOL     OW42689   3.676   0.188   0.894
10354SOL    HW142690   3.675   0.094   0.876
10354SOL    HW242691   3.730   0.225   0.824
10355SOL     OW42692   4.221   3.337  10.842
10355SOL    HW142693   4.174   3.255  10.826
10355SOL    HW242694   4.305   3.310  10.879
10356SOL     OW42695   2.406   0.303   2.898
10356SOL    HW142696   2.460   0.342   2.830
10356SOL    HW242697   2.469   0.271   2.964
10357SOL     OW42698   2.619   3.157   5.912
10357SOL    HW142699   2.576   3.229   5.957
10357SOL    HW242700   2.634   3.188   5.823
10358SOL     OW42701   1.946   1.328  21.055
10358SOL    HW142702   1.985   1.277  20.984
10358SOL    HW242703   1.913   1.408  21.013
10359SOL     OW42704   2.415   3.021   5.719
10359SOL    HW142705   2.421   3.024   5.814
10359SOL    HW242706   2.348   3.087   5.697
10360SOL     OW42707   4.008   4.022   0.393
10360SOL    HW142708   3.964   4.017   0.477
10360SOL    HW242709   3.987   4.109   0.359
10361SOL     OW42710   2.494   2.082  21.232
10361SOL    HW142711   2.506   2.176  21.214
10361SOL    HW242712   2.528   2.070  21.320
10362SOL     OW42713   3.518   2.652  19.704
10362SOL    HW142714   3.548   2.741  19.688
10362SOL    HW242715   3.570   2.621  19.778
10363SOL     OW42716   1.648   0.417  24.348
10363SOL    HW142717   1.610   0.337  24.383
10363SOL    HW242718   1.737   0.419  24.385
10364SOL     OW42719   1.160   4.729   4.825
10364SOL    HW142720   1.085   4.736   4.884
10364SOL    HW242721   1.233   4.702   4.881
10365SOL     OW42722   4.494   1.846  22.881
10365SOL    HW142723   4.471   1.859  22.973
10365SOL    HW242724   4.496   1.935  22.845
10366SOL     OW42725   4.773   2.540   6.540
10366SOL    HW142726   0.085   2.526   6.552
10366SOL    HW242727   4.767   2.613   6.479
10367SOL     OW42728   3.604   1.287  28.049
10367SOL    HW142729   3.597   1.193  28.033
10367SOL    HW242730   3.698   1.303  28.055
10368SOL     OW42731   4.532   2.095   1.518
10368SOL    HW142732   4.528   2.006   1.481
10368SOL    HW242733   4.468   2.145   1.468
10369SOL     OW42734   1.577   4.451   9.609
10369SOL    HW142735   1.666   4.468   9.577
10369SOL    HW242736   1.520   4.482   9.540
10370SOL     OW42737   0.956   4.555  19.885
10370SOL    HW142738   0.869   4.528  19.917
10370SOL    HW242739   1.017   4.518  19.949
10371SOL     OW42740   2.749   4.422   4.856
10371SOL    HW142741   2.841   4.420   4.829
10371SOL    HW242742   2.750   4.388   4.945
10372SOL     OW42743   0.809   4.726  25.071
10372SOL    HW142744   0.883   4.712  25.011
10372SOL    HW242745   0.845   4.705  25.158
10373SOL     OW42746   2.615   3.558  24.433
10373SOL    HW142747   2.558   3.599  24.367
10373SOL    HW242748   2.575   3.581  24.517
10374SOL     OW42749   3.644   4.632  21.550
10374SOL    HW142750   3.654   4.727  21.543
10374SOL    HW242751   3.589   4.620  21.627
10375SOL     OW42752   0.153   1.289   5.339
10375SOL    HW142753   0.238   1.308   5.300
10375SOL    HW242754   0.171   1.275   5.432
10376SOL     OW42755   3.574   1.382  22.477
10376SOL    HW142756   3.515   1.457  22.485
10376SOL    HW242757   3.519   1.311  22.443
10377SOL     OW42758   1.781   4.068  27.337
10377SOL    HW142759   1.719   3.996  27.321
10377SOL    HW242760   1.729   4.147  27.326
10378SOL     OW42761   2.987   4.496  11.263
10378SOL    HW142762   3.041   4.440  11.206
10378SOL    HW242763   3.046   4.521  11.334
10379SOL     OW42764   3.280   0.147   0.765
10379SOL    HW142765   3.339   0.219   0.788
10379SOL    HW242766   3.335   0.068   0.772
10380SOL     OW42767   2.063   0.579   7.430
10380SOL    HW142768   1.977   0.587   7.389
10380SOL    HW242769   2.095   0.493   7.403
10381SOL     OW42770   4.499   0.899   5.599
10381SOL    HW142771   4.582   0.859   5.572
10381SOL    HW242772   4.460   0.835   5.658
10382SOL     OW42773   2.346   1.198   3.456
10382SOL    HW142774   2.262   1.226   3.421
10382SOL    HW242775   2.324   1.159   3.541
10383SOL     OW42776   2.274   2.184   1.620
10383SOL    HW142777   2.355   2.207   1.574
10383SOL    HW242778   2.210   2.170   1.550
10384SOL     OW42779   4.578   0.316   1.208
10384SOL    HW142780   4.643   0.251   1.233
10384SOL    HW242781   4.584   0.321   1.113
10385SOL     OW42782   2.516   0.849  26.920
10385SOL    HW142783   2.483   0.932  26.955
10385SOL    HW242784   2.443   0.788  26.929
10386SOL     OW42785   2.429   4.486   0.351
10386SOL    HW142786   2.374   4.513   0.424
10386SOL    HW242787   2.458   4.398   0.374
10387SOL     OW42788   1.256   3.855  20.148
10387SOL    HW142789   1.180   3.839  20.092
10387SOL    HW242790   1.293   3.937  20.115
10388SOL     OW42791   1.984   3.171   0.264
10388SOL    HW142792   2.040   3.165   0.341
10388SOL    HW242793   1.929   3.093   0.268
10389SOL     OW42794   3.406   0.499   4.730
10389SOL    HW142795   3.331   0.445   4.706
10389SOL    HW242796   3.368   0.583   4.753
10390SOL     OW42797   3.750   2.735   2.658
10390SOL    HW142798   3.753   2.662   2.595
10390SOL    HW242799   3.835   2.730   2.703
10391SOL     OW42800   4.560   0.982   0.624
10391SOL    HW142801   4.559   1.065   0.577
10391SOL    HW242802   4.636   0.935   0.588
10392SOL     OW42803   2.150   1.778  18.608
10392SOL    HW142804   2.113   1.850  18.557
10392SOL    HW242805   2.090   1.768  18.682
10393SOL     OW42806   0.306   2.794   4.812
10393SOL    HW142807   0.260   2.827   4.734
10393SOL    HW242808   0.241   2.739   4.856
10394SOL     OW42809   2.025   1.069  28.352
10394SOL    HW142810   1.942   1.022  28.361
10394SOL    HW242811   2.069   1.056  28.436
10395SOL     OW42812   2.813   1.515   4.649
10395SOL    HW142813   2.851   1.455   4.586
10395SOL    HW242814   2.776   1.586   4.596
10396SOL     OW42815   1.040   1.339   1.328
10396SOL    HW142816   1.007   1.287   1.401
10396SOL    HW242817   1.003   1.297   1.250
10397SOL     OW42818   1.257   0.814   4.628
10397SOL    HW142819   1.244   0.780   4.717
10397SOL    HW242820   1.168   0.826   4.594
10398SOL     OW42821   2.356   2.140   8.735
10398SOL    HW142822   2.425   2.074   8.743
10398SOL    HW242823   2.403   2.224   8.739
10399SOL     OW42824   4.498   2.290  26.389
10399SOL    HW142825   4.464   2.373  26.422
10399SOL    HW242826   4.581   2.312  26.347
10400SOL     OW42827   0.668   4.750  22.498
10400SOL    HW142828   0.633   0.054  22.522
10400SOL    HW242829   0.661   4.747  22.403
10401SOL     OW42830   2.352   1.346  18.630
10401SOL    HW142831   2.418   1.325  18.564
10401SOL    HW242832   2.340   1.441  18.622
10402SOL     OW42833   0.888   4.491  28.424
10402SOL    HW142834   0.982   4.483  28.410
10402SOL    HW242835   0.849   4.471  28.339
10403SOL     OW42836   4.764   3.797   5.760
10403SOL    HW142837   4.743   3.769   5.670
10403SOL    HW242838   0.027   3.881   5.749
10404SOL     OW42839   0.116   0.168   2.122
10404SOL    HW142840   0.060   0.232   2.079
10404SOL    HW242841   0.060   0.124   2.185
10405SOL     OW42842   3.941   0.857  25.377
10405SOL    HW142843   3.973   0.847  25.466
10405SOL    HW242844   4.004   0.916  25.335
10406SOL     OW42845   2.916   3.925  20.314
10406SOL    HW142846   2.851   3.964  20.374
10406SOL    HW242847   2.987   3.896  20.372
10407SOL     OW42848   1.887   1.270  27.751
10407SOL    HW142849   1.849   1.246  27.835
10407SOL    HW242850   1.921   1.359  27.764
10408SOL     OW42851   2.916   3.427  10.013
10408SOL    HW142852   2.899   3.345  10.059
10408SOL    HW242853   2.846   3.486  10.043
10409SOL     OW42854   2.327   0.633  25.885
10409SOL    HW142855   2.374   0.600  25.808
10409SOL    HW242856   2.391   0.631  25.955
10410SOL     OW42857   0.977   4.470   8.440
10410SOL    HW142858   1.015   4.396   8.488
10410SOL    HW242859   1.015   4.548   8.482
10411SOL     OW42860   1.695   1.762   5.994
10411SOL    HW142861   1.648   1.682   6.019
10411SOL    HW242862   1.764   1.731   5.936
10412SOL     OW42863   3.492   0.321  26.730
10412SOL    HW142864   3.401   0.314  26.758
10412SOL    HW242865   3.490   0.379  26.655
10413SOL     OW42866   1.033   2.153  24.891
10413SOL    HW142867   0.986   2.104  24.959
10413SOL    HW242868   1.123   2.119  24.895
10414SOL     OW42869   2.974   1.980  23.445
10414SOL    HW142870   2.972   2.073  23.468
10414SOL    HW242871   2.894   1.966  23.395
10415SOL     OW42872   4.249   2.820  21.550
10415SOL    HW142873   4.186   2.835  21.621
10415SOL    HW242874   4.221   2.739  21.509
10416SOL     OW42875   2.985   4.445  27.640
10416SOL    HW142876   2.936   4.403  27.710
10416SOL    HW242877   3.006   4.532  27.673
10417SOL     OW42878   0.421   1.402  10.210
10417SOL    HW142879   0.474   1.346  10.152
10417SOL    HW242880   0.482   1.469  10.240
10418SOL     OW42881   4.330   1.848  10.329
10418SOL    HW142882   4.318   1.755  10.350
10418SOL    HW242883   4.345   1.849  10.234
10419SOL     OW42884   2.545   4.104  23.683
10419SOL    HW142885   2.526   4.198  23.691
10419SOL    HW242886   2.530   4.085  23.590
10420SOL     OW42887   1.807   0.410   0.619
10420SOL    HW142888   1.759   0.392   0.700
10420SOL    HW242889   1.897   0.387   0.639
10421SOL     OW42890   1.799   0.009  12.351
10421SOL    HW142891   1.749   4.741  12.416
10421SOL    HW242892   1.751   0.092  12.343
10422SOL     OW42893   2.664   4.023   5.546
10422SOL    HW142894   2.756   4.048   5.559
10422SOL    HW242895   2.617   4.073   5.613
10423SOL     OW42896   0.370   1.753   9.455
10423SOL    HW142897   0.321   1.753   9.372
10423SOL    HW242898   0.392   1.661   9.470
10424SOL     OW42899   4.185   0.532  22.833
10424SOL    HW142900   4.092   0.549  22.817
10424SOL    HW242901   4.201   0.448  22.790
10425SOL     OW42902   0.862   4.009   2.076
10425SOL    HW142903   0.893   4.008   1.986
10425SOL    HW242904   0.793   4.075   2.076
10426SOL     OW42905   4.582   1.907  21.866
10426SOL    HW142906   4.587   1.932  21.958
10426SOL    HW242907   4.545   1.984  21.822
10427SOL     OW42908   3.727   1.376   9.266
10427SOL    HW142909   3.703   1.376   9.359
10427SOL    HW242910   3.646   1.400   9.221
10428SOL     OW42911   4.379   2.820   0.509
10428SOL    HW142912   4.408   2.893   0.454
10428SOL    HW242913   4.384   2.853   0.598
10429SOL     OW42914   4.730   0.320  17.921
10429SOL    HW142915   4.681   0.375  17.859
10429SOL    HW242916   0.022   0.374  17.947
10430SOL     OW42917   0.962   0.304  23.098
10430SOL    HW142918   1.007   0.387  23.080
10430SOL    HW242919   1.002   0.241  23.038
10431SOL     OW42920   4.478   2.491  24.885
10431SOL    HW142921   4.430   2.413  24.912
10431SOL    HW242922   4.566   2.460  24.866
10432SOL     OW42923   2.351   0.076   3.352
10432SOL    HW142924   2.281   0.015   3.374
10432SOL    HW242925   2.374   0.118   3.435
10433SOL     OW42926   2.528   3.104   0.091
10433SOL    HW142927   2.472   3.164   0.140
10433SOL    HW242928   2.573   3.159   0.027
10434SOL     OW42929   2.877   3.443   9.737
10434SOL    HW142930   2.867   3.414   9.828
10434SOL    HW242931   2.968   3.423   9.715
10435SOL     OW42932   2.837   3.141  10.634
10435SOL    HW142933   2.895   3.071  10.665
10435SOL    HW242934   2.830   3.201  10.708
10436SOL     OW42935   2.897   0.073  10.742
10436SOL    HW142936   2.905   0.159  10.784
10436SOL    HW242937   2.962   0.076  10.671
10437SOL     OW42938   1.358   2.293  21.303
10437SOL    HW142939   1.293   2.279  21.234
10437SOL    HW242940   1.422   2.352  21.264
10438SOL     OW42941   2.521   0.672   8.419
10438SOL    HW142942   2.442   0.620   8.402
10438SOL    HW242943   2.575   0.615   8.473
10439SOL     OW42944   3.224   3.340  10.583
10439SOL    HW142945   3.196   3.348  10.674
10439SOL    HW242946   3.299   3.280  10.585
10440SOL     OW42947   1.387   1.764  22.595
10440SOL    HW142948   1.412   1.718  22.514
10440SOL    HW242949   1.396   1.856  22.573
10441SOL     OW42950   1.197   3.784   4.268
10441SOL    HW142951   1.194   3.707   4.324
10441SOL    HW242952   1.272   3.769   4.210
10442SOL     OW42953   0.868   3.568  16.990
10442SOL    HW142954   0.851   3.662  16.989
10442SOL    HW242955   0.943   3.556  16.931
10443SOL     OW42956   4.637   3.933   0.900
10443SOL    HW142957   4.569   3.868   0.918
10443SOL    HW242958   4.719   3.884   0.902
10444SOL     OW42959   4.116   2.494  18.018
10444SOL    HW142960   4.128   2.408  17.978
10444SOL    HW242961   4.199   2.514  18.059
10445SOL     OW42962   1.316   0.295  25.310
10445SOL    HW142963   1.288   0.213  25.351
10445SOL    HW242964   1.237   0.328  25.266
10446SOL     OW42965   1.575   0.164  11.229
10446SOL    HW142966   1.628   0.199  11.301
10446SOL    HW242967   1.533   0.242  11.191
10447SOL     OW42968   0.046   2.822   8.427
10447SOL    HW142969   4.759   2.764   8.460
10447SOL    HW242970   0.037   2.818   8.331
10448SOL     OW42971   0.877   1.247  23.731
10448SOL    HW142972   0.850   1.162  23.697
10448SOL    HW242973   0.952   1.271  23.676
10449SOL     OW42974   4.472   1.823  24.196
10449SOL    HW142975   4.439   1.855  24.281
10449SOL    HW242976   4.396   1.784  24.154
10450SOL     OW42977   2.158   2.504  22.328
10450SOL    HW142978   2.230   2.469  22.380
10450SOL    HW242979   2.081   2.456  22.359
10451SOL     OW42980   1.354   0.166   9.292
10451SOL    HW142981   1.401   0.115   9.358
10451SOL    HW242982   1.352   0.111   9.214
10452SOL     OW42983   0.662   3.549  11.148
10452SOL    HW142984   0.631   3.632  11.112
10452SOL    HW242985   0.695   3.572  11.235
10453SOL     OW42986   4.471   3.234  22.326
10453SOL    HW142987   4.413   3.214  22.252
10453SOL    HW242988   4.428   3.195  22.402
10454SOL     OW42989   1.122   3.561   3.195
10454SOL    HW142990   1.158   3.574   3.283
10454SOL    HW242991   1.034   3.526   3.211
10455SOL     OW42992   2.243   2.467   7.970
10455SOL    HW142993   2.320   2.500   7.925
10455SOL    HW242994   2.171   2.522   7.940
10456SOL     OW42995   0.877   2.941   2.923
10456SOL    HW142996   0.828   2.897   2.854
10456SOL    HW242997   0.810   2.979   2.980
10457SOL     OW42998   4.422   0.972  24.253
10457SOL    HW142999   4.445   0.897  24.198
10457SOL    HW243000   4.331   0.956  24.277
10458SOL     OW43001   4.386   2.689  28.345
10458SOL    HW143002   4.401   2.745  28.269
10458SOL    HW243003   4.364   2.751  28.415
10459SOL     OW43004   4.438   1.683   2.240
10459SOL    HW143005   4.506   1.750   2.251
10459SOL    HW243006   4.475   1.622   2.177
10460SOL     OW43007   3.621   0.438  23.910
10460SOL    HW143008   3.637   0.397  23.824
10460SOL    HW243009   3.709   0.457  23.943
10461SOL     OW43010   3.754   1.608  22.928
10461SOL    HW143011   3.848   1.606  22.916
10461SOL    HW243012   3.736   1.533  22.985
10462SOL     OW43013   2.868   0.150   5.378
10462SOL    HW143014   2.836   0.068   5.415
10462SOL    HW243015   2.855   0.214   5.448
10463SOL     OW43016   1.519   0.393  22.645
10463SOL    HW143017   1.591   0.329  22.647
10463SOL    HW243018   1.447   0.348  22.689
10464SOL     OW43019   2.932   2.207   8.073
10464SOL    HW143020   2.860   2.216   8.135
10464SOL    HW243021   2.892   2.227   7.988
10465SOL     OW43022   1.251   2.106   8.561
10465SOL    HW143023   1.189   2.053   8.610
10465SOL    HW243024   1.266   2.183   8.617
10466SOL     OW43025   0.157   1.644   5.185
10466SOL    HW143026   0.193   1.684   5.106
10466SOL    HW243027   0.233   1.605   5.228
10467SOL     OW43028   2.920   4.440  22.495
10467SOL    HW143029   3.014   4.437  22.509
10467SOL    HW243030   2.908   4.408  22.406
10468SOL     OW43031   0.670   4.439  27.169
10468SOL    HW143032   0.744   4.390  27.202
10468SOL    HW243033   0.654   4.403  27.082
10469SOL     OW43034   2.938   0.313  10.859
10469SOL    HW143035   2.924   0.378  10.790
10469SOL    HW243036   2.984   0.361  10.928
10470SOL     OW43037   0.953   2.571   1.811
10470SOL    HW143038   0.998   2.495   1.773
10470SOL    HW243039   0.991   2.646   1.766
10471SOL     OW43040   1.086   1.254   7.360
10471SOL    HW143041   1.113   1.277   7.271
10471SOL    HW243042   1.164   1.267   7.413
10472SOL     OW43043   4.086   2.071   2.403
10472SOL    HW143044   4.156   2.030   2.352
10472SOL    HW243045   4.131   2.110   2.478
10473SOL     OW43046   4.482   1.637   7.991
10473SOL    HW143047   4.567   1.596   8.003
10473SOL    HW243048   4.450   1.653   8.080
10474SOL     OW43049   4.645   2.447   6.250
10474SOL    HW143050   4.671   2.446   6.343
10474SOL    HW243051   4.706   2.507   6.208
10475SOL     OW43052   0.537   4.565  23.635
10475SOL    HW143053   0.586   4.639  23.672
10475SOL    HW243054   0.488   4.530  23.709
10476SOL     OW43055   1.061   3.330   5.323
10476SOL    HW143056   1.052   3.316   5.417
10476SOL    HW243057   1.131   3.395   5.315
10477SOL     OW43058   0.432   4.773   5.957
10477SOL    HW143059   0.374   4.735   6.022
10477SOL    HW243060   0.458   4.700   5.901
10478SOL     OW43061   3.704   4.017   2.969
10478SOL    HW143062   3.614   4.033   2.999
10478SOL    HW243063   3.756   4.085   3.013
10479SOL     OW43064   4.668   2.063   0.258
10479SOL    HW143065   4.600   2.114   0.213
10479SOL    HW243066   4.631   1.975   0.265
10480SOL     OW43067   3.771   3.279   6.210
10480SOL    HW143068   3.859   3.250   6.187
10480SOL    HW243069   3.738   3.212   6.269
10481SOL     OW43070   1.089   0.006  24.098
10481SOL    HW143071   1.039   0.086  24.081
10481SOL    HW243072   1.113   0.012  24.190
10482SOL     OW43073   3.142   1.968  27.256
10482SOL    HW143074   3.158   2.044  27.201
10482SOL    HW243075   3.054   1.983  27.292
10483SOL     OW43076   4.265   2.485   6.499
10483SOL    HW143077   4.270   2.399   6.457
10483SOL    HW243078   4.210   2.470   6.576
10484SOL     OW43079   2.794   0.126  22.064
10484SOL    HW143080   2.826   0.054  22.119
10484SOL    HW243081   2.803   0.092  21.974
10485SOL     OW43082   0.385   3.703   9.783
10485SOL    HW143083   0.434   3.744   9.854
10485SOL    HW243084   0.453   3.671   9.723
10486SOL     OW43085   4.076   0.479  22.437
10486SOL    HW143086   4.016   0.553  22.436
10486SOL    HW243087   4.021   0.405  22.464
10487SOL     OW43088   4.720   4.389   7.523
10487SOL    HW143089   0.018   4.435   7.500
10487SOL    HW243090   4.669   4.388   7.442
10488SOL     OW43091   4.064   1.281  11.923
10488SOL    HW143092   4.129   1.278  11.853
10488SOL    HW243093   4.106   1.240  11.998
10489SOL     OW43094   1.052   4.736   3.752
10489SOL    HW143095   0.970   4.780   3.771
10489SOL    HW243096   1.120   0.016   3.778
10490SOL     OW43097   1.060   3.724  26.810
10490SOL    HW143098   1.148   3.760  26.814
10490SOL    HW243099   1.004   3.798  26.786
10491SOL     OW43100   1.197   3.993  21.894
10491SOL    HW143101   1.147   4.075  21.902
10491SOL    HW243102   1.223   3.990  21.802
10492SOL     OW43103   0.925   2.850  24.753
10492SOL    HW143104   0.988   2.878  24.686
10492SOL    HW243105   0.840   2.854  24.709
10493SOL     OW43106   1.572   4.188   1.689
10493SOL    HW143107   1.608   4.247   1.622
10493SOL    HW243108   1.508   4.135   1.642
10494SOL     OW43109   4.042   1.762  25.070
10494SOL    HW143110   3.997   1.783  25.152
10494SOL    HW243111   4.092   1.683  25.089
10495SOL     OW43112   1.435   3.993  18.968
10495SOL    HW143113   1.384   4.073  18.965
10495SOL    HW243114   1.460   3.983  19.060
10496SOL     OW43115   4.666   0.473   9.717
10496SOL    HW143116   4.661   0.543   9.781
10496SOL    HW243117   4.614   0.402   9.755
10497SOL     OW43118   4.738   1.710   5.428
10497SOL    HW143119   4.741   1.804   5.449
10497SOL    HW243120   4.665   1.702   5.367
10498SOL     OW43121   3.591   3.128   3.173
10498SOL    HW143122   3.521   3.069   3.146
10498SOL    HW243123   3.658   3.071   3.211
10499SOL     OW43124   1.126   1.522  18.826
10499SOL    HW143125   1.132   1.434  18.790
10499SOL    HW243126   1.217   1.552  18.832
10500SOL     OW43127   3.408   1.042  22.423
10500SOL    HW143128   3.483   1.007  22.375
10500SOL    HW243129   3.343   1.061  22.355
10501SOL     OW43130   3.387   0.345   0.180
10501SOL    HW143131   3.382   0.384   0.267
10501SOL    HW243132   3.346   0.260   0.190
10502SOL     OW43133   0.515   3.021  28.277
10502SOL    HW143134   0.514   2.928  28.254
10502SOL    HW243135   0.453   3.062  28.217
10503SOL     OW43136   4.588   1.960  28.183
10503SOL    HW143137   4.645   2.000  28.117
10503SOL    HW243138   4.526   2.029  28.207
10504SOL     OW43139   3.607   3.606   9.016
10504SOL    HW143140   3.523   3.561   9.009
10504SOL    HW243141   3.600   3.656   9.098
10505SOL     OW43142   3.135   2.003  20.770
10505SOL    HW143143   3.168   2.086  20.807
10505SOL    HW243144   3.113   2.024  20.679
10506SOL     OW43145   3.338   0.646  19.748
10506SOL    HW143146   3.332   0.733  19.788
10506SOL    HW243147   3.332   0.662  19.654
10507SOL     OW43148   3.715   4.029   6.983
10507SOL    HW143149   3.735   4.113   7.024
10507SOL    HW243150   3.693   4.051   6.893
10508SOL     OW43151   1.428   1.365   0.396
10508SOL    HW143152   1.501   1.313   0.361
10508SOL    HW243153   1.470   1.438   0.442
10509SOL     OW43154   4.160   3.001   8.027
10509SOL    HW143155   4.196   2.936   7.967
10509SOL    HW243156   4.197   3.084   7.997
10510SOL     OW43157   0.011   4.220  24.229
10510SOL    HW143158   4.740   4.281  24.179
10510SOL    HW243159   4.776   4.241  24.320
10511SOL     OW43160   1.544   3.312  21.718
10511SOL    HW143161   1.494   3.383  21.678
10511SOL    HW243162   1.629   3.351  21.738
10512SOL     OW43163   2.272   3.267   2.609
10512SOL    HW143164   2.234   3.185   2.641
10512SOL    HW243165   2.217   3.336   2.647
10513SOL     OW43166   4.458   3.663  21.864
10513SOL    HW143167   4.490   3.750  21.842
10513SOL    HW243168   4.364   3.667  21.844
10514SOL     OW43169   0.555   2.172  20.037
10514SOL    HW143170   0.628   2.156  19.978
10514SOL    HW243171   0.573   2.116  20.113
10515SOL     OW43172   4.556   2.970   7.318
10515SOL    HW143173   4.541   2.876   7.316
10515SOL    HW243174   4.510   3.004   7.241
10516SOL     OW43175   0.935   4.620   7.688
10516SOL    HW143176   1.010   4.563   7.701
10516SOL    HW243177   0.859   4.562   7.689
10517SOL     OW43178   1.708   3.672   3.066
10517SOL    HW143179   1.758   3.614   3.123
10517SOL    HW243180   1.661   3.731   3.126
10518SOL     OW43181   3.339   3.777  27.644
10518SOL    HW143182   3.293   3.718  27.704
10518SOL    HW243183   3.415   3.727  27.615
10519SOL     OW43184   0.124   4.295   1.107
10519SOL    HW143185   0.136   4.287   1.013
10519SOL    HW243186   0.143   4.207   1.141
10520SOL     OW43187   0.181   4.512   0.065
10520SOL    HW143188   0.201   4.418   0.063
10520SOL    HW243189   0.256   4.552   0.109
10521SOL     OW43190   2.881   3.876  23.456
10521SOL    HW143191   2.895   3.969  23.473
10521SOL    HW243192   2.840   3.874  23.369
10522SOL     OW43193   0.468   1.657  26.079
10522SOL    HW143194   0.517   1.610  26.146
10522SOL    HW243195   0.384   1.679  26.121
10523SOL     OW43196   3.909   4.072   8.243
10523SOL    HW143197   3.880   4.154   8.204
10523SOL    HW243198   3.993   4.093   8.283
10524SOL     OW43199   4.082   1.124   7.810
10524SOL    HW143200   4.154   1.127   7.873
10524SOL    HW243201   4.097   1.044   7.759
10525SOL     OW43202   2.495   1.852   3.964
10525SOL    HW143203   2.514   1.915   3.895
10525SOL    HW243204   2.441   1.900   4.027
10526SOL     OW43205   0.550   2.732   4.731
10526SOL    HW143206   0.461   2.742   4.765
10526SOL    HW243207   0.600   2.694   4.803
10527SOL     OW43208   3.209   3.634  25.608
10527SOL    HW143209   3.145   3.663  25.543
10527SOL    HW243210   3.267   3.575  25.560
10528SOL     OW43211   3.525   3.789  20.112
10528SOL    HW143212   3.459   3.848  20.075
10528SOL    HW243213   3.529   3.717  20.050
10529SOL     OW43214   0.060   1.315  11.609
10529SOL    HW143215   0.127   1.378  11.585
10529SOL    HW243216   0.107   1.247  11.658
10530SOL     OW43217   1.573   0.330  25.203
10530SOL    HW143218   1.625   0.262  25.245
10530SOL    HW243219   1.484   0.294  25.199
10531SOL     OW43220   2.369   0.312  25.316
10531SOL    HW143221   2.285   0.357  25.319
10531SOL    HW243222   2.404   0.333  25.229
10532SOL     OW43223   3.421   0.788  25.650
10532SOL    HW143224   3.515   0.774  25.660
10532SOL    HW243225   3.414   0.844  25.572
10533SOL     OW43226   1.768   2.994  11.332
10533SOL    HW143227   1.838   2.935  11.304
10533SOL    HW243228   1.722   2.946  11.402
10534SOL     OW43229   3.653   2.451  26.289
10534SOL    HW143230   3.574   2.504  26.280
10534SOL    HW243231   3.648   2.388  26.217
10535SOL     OW43232   4.440   0.202  20.219
10535SOL    HW143233   4.531   0.206  20.189
10535SOL    HW243234   4.405   0.290  20.201
10536SOL     OW43235   3.041   1.796  25.158
10536SOL    HW143236   3.131   1.764  25.147
10536SOL    HW243237   3.025   1.848  25.080
10537SOL     OW43238   2.706   1.580  22.193
10537SOL    HW143239   2.611   1.583  22.184
10537SOL    HW243240   2.722   1.591  22.287
10538SOL     OW43241   0.637   3.420   9.810
10538SOL    HW143242   0.642   3.456   9.898
10538SOL    HW243243   0.639   3.325   9.823
10539SOL     OW43244   0.454   3.114  24.194
10539SOL    HW143245   0.365   3.145  24.177
10539SOL    HW243246   0.481   3.073  24.111
10540SOL     OW43247   2.711   4.574   9.041
10540SOL    HW143248   2.740   4.506   9.102
10540SOL    HW243249   2.616   4.578   9.053
10541SOL     OW43250   3.204   3.713   6.212
10541SOL    HW143251   3.256   3.789   6.240
10541SOL    HW243252   3.146   3.695   6.286
10542SOL     OW43253   1.321   2.644  26.803
10542SOL    HW143254   1.227   2.643  26.822
10542SOL    HW243255   1.326   2.660  26.709
10543SOL     OW43256   4.164   0.727   0.208
10543SOL    HW143257   4.254   0.742   0.236
10543SOL    HW243258   4.115   0.800   0.246
10544SOL     OW43259   3.104   0.389  11.111
10544SOL    HW143260   3.182   0.356  11.154
10544SOL    HW243261   3.031   0.360  11.167
10545SOL     OW43262   0.537   0.171  28.097
10545SOL    HW143263   0.560   0.084  28.130
10545SOL    HW243264   0.528   0.159  28.002
10546SOL     OW43265   1.622   3.177  20.447
10546SOL    HW143266   1.714   3.199  20.433
10546SOL    HW243267   1.607   3.192  20.541
10547SOL     OW43268   1.089   2.051   2.724
10547SOL    HW143269   1.031   1.976   2.709
10547SOL    HW243270   1.054   2.092   2.804
10548SOL     OW43271   0.748   0.655  27.139
10548SOL    HW143272   0.713   0.568  27.119
10548SOL    HW243273   0.830   0.637  27.185
10549SOL     OW43274   2.198   1.821  24.075
10549SOL    HW143275   2.276   1.876  24.070
10549SOL    HW243276   2.177   1.801  23.984
10550SOL     OW43277   3.356   3.394  25.528
10550SOL    HW143278   3.324   3.323  25.586
10550SOL    HW243279   3.341   3.360  25.440
10551SOL     OW43280   2.312   3.494   2.928
10551SOL    HW143281   2.400   3.532   2.923
10551SOL    HW243282   2.311   3.447   3.012
10552SOL     OW43283   0.303   3.850  22.776
10552SOL    HW143284   0.367   3.913  22.810
10552SOL    HW243285   0.346   3.811  22.699
10553SOL     OW43286   3.750   3.207  21.619
10553SOL    HW143287   3.664   3.186  21.584
10553SOL    HW243288   3.800   3.237  21.543
10554SOL     OW43289   2.058   1.118   2.321
10554SOL    HW143290   2.067   1.132   2.227
10554SOL    HW243291   2.053   1.206   2.359
10555SOL     OW43292   3.180   2.137   3.922
10555SOL    HW143293   3.200   2.188   4.001
10555SOL    HW243294   3.245   2.067   3.921
10556SOL     OW43295   2.750   3.115   1.641
10556SOL    HW143296   2.743   3.192   1.697
10556SOL    HW243297   2.804   3.054   1.692
10557SOL     OW43298   3.232   3.813   3.836
10557SOL    HW143299   3.268   3.738   3.883
10557SOL    HW243300   3.175   3.774   3.769
10558SOL     OW43301   3.835   4.023   6.283
10558SOL    HW143302   3.748   3.989   6.303
10558SOL    HW243303   3.882   4.019   6.366
10559SOL     OW43304   3.170   1.098  27.806
10559SOL    HW143305   3.201   1.146  27.883
10559SOL    HW243306   3.240   1.035  27.787
10560SOL     OW43307   2.037   1.408  20.321
10560SOL    HW143308   1.992   1.475  20.269
10560SOL    HW243309   2.124   1.445  20.336
10561SOL     OW43310   3.579   4.007   2.715
10561SOL    HW143311   3.642   3.998   2.786
10561SOL    HW243312   3.627   4.052   2.646
10562SOL     OW43313   0.373   1.082   7.253
10562SOL    HW143314   0.381   1.074   7.348
10562SOL    HW243315   0.410   1.168   7.233
10563SOL     OW43316   4.289   3.390  28.467
10563SOL    HW143317   4.259   3.339   0.011
10563SOL    HW243318   4.303   3.478  28.502
10564SOL     OW43319   3.049   0.094  24.932
10564SOL    HW143320   3.112   0.121  24.999
10564SOL    HW243321   2.964   0.101  24.975
10565SOL     OW43322   3.988   3.766  21.140
10565SOL    HW143323   3.993   3.849  21.092
10565SOL    HW243324   4.041   3.780  21.218
10566SOL     OW43325   4.449   2.145   0.122
10566SOL    HW143326   4.413   2.114   0.039
10566SOL    HW243327   4.373   2.153   0.180
10567SOL     OW43328   2.893   1.023   3.699
10567SOL    HW143329   2.919   0.997   3.610
10567SOL    HW243330   2.811   0.975   3.714
10568SOL     OW43331   2.086   2.667   5.880
10568SOL    HW143332   2.136   2.656   5.799
10568SOL    HW243333   2.151   2.663   5.950
10569SOL     OW43334   4.383   3.822   5.251
10569SOL    HW143335   4.414   3.882   5.183
10569SOL    HW243336   4.416   3.736   5.223
10570SOL     OW43337   2.810   2.260  19.990
10570SOL    HW143338   2.839   2.190  20.048
10570SOL    HW243339   2.802   2.337  20.046
10571SOL     OW43340   0.082   4.047   5.722
10571SOL    HW143341   0.043   4.103   5.789
10571SOL    HW243342   0.161   4.094   5.695
10572SOL     OW43343   2.653   1.945   9.345
10572SOL    HW143344   2.668   1.881   9.276
10572SOL    HW243345   2.597   1.898   9.408
10573SOL     OW43346   1.504   2.951  10.676
10573SOL    HW143347   1.555   2.913  10.605
10573SOL    HW243348   1.413   2.934  10.652
10574SOL     OW43349   0.656   0.338  20.028
10574SOL    HW143350   0.583   0.309  20.083
10574SOL    HW243351   0.718   0.264  20.029
10575SOL     OW43352   2.807   3.947  21.654
10575SOL    HW143353   2.858   3.969  21.576
10575SOL    HW243354   2.824   3.855  21.669
10576SOL     OW43355   3.490   2.775   6.778
10576SOL    HW143356   3.502   2.687   6.813
10576SOL    HW243357   3.436   2.820   6.844
10577SOL     OW43358   1.864   2.627  25.780
10577SOL    HW143359   1.925   2.671  25.720
10577SOL    HW243360   1.915   2.556  25.818
10578SOL     OW43361   1.922   0.859  21.554
10578SOL    HW143362   1.965   0.894  21.476
10578SOL    HW243363   1.960   0.771  21.564
10579SOL     OW43364   2.585   1.007   9.540
10579SOL    HW143365   2.525   0.933   9.548
10579SOL    HW243366   2.647   0.995   9.612
10580SOL     OW43367   1.436   1.614   3.438
10580SOL    HW143368   1.489   1.594   3.360
10580SOL    HW243369   1.500   1.631   3.507
10581SOL     OW43370   0.503   1.952   6.900
10581SOL    HW143371   0.483   2.002   6.821
10581SOL    HW243372   0.418   1.941   6.943
10582SOL     OW43373   2.868   3.451  20.391
10582SOL    HW143374   2.936   3.515  20.367
10582SOL    HW243375   2.787   3.502  20.395
10583SOL     OW43376   2.030   1.313   1.699
10583SOL    HW143377   1.961   1.306   1.633
10583SOL    HW243378   2.107   1.342   1.650
10584SOL     OW43379   4.496   0.436  28.077
10584SOL    HW143380   4.403   0.420  28.063
10584SOL    HW243381   4.505   0.531  28.068
10585SOL     OW43382   3.272   2.154  19.081
10585SOL    HW143383   3.268   2.114  18.994
10585SOL    HW243384   3.182   2.151  19.113
10586SOL     OW43385   3.501   1.467   3.441
10586SOL    HW143386   3.512   1.562   3.448
10586SOL    HW243387   3.589   1.432   3.454
10587SOL     OW43388   3.211   4.363  27.521
10587SOL    HW143389   3.137   4.397  27.570
10587SOL    HW243390   3.282   4.358  27.586
10588SOL     OW43391   2.854   3.675  24.898
10588SOL    HW143392   2.941   3.709  24.877
10588SOL    HW243393   2.856   3.584  24.868
10589SOL     OW43394   3.522   3.810   6.978
10589SOL    HW143395   3.457   3.849   6.920
10589SOL    HW243396   3.596   3.872   6.976
10590SOL     OW43397   2.528   3.602  20.759
10590SOL    HW143398   2.578   3.522  20.778
10590SOL    HW243399   2.519   3.603  20.664
10591SOL     OW43400   0.261   4.055   1.368
10591SOL    HW143401   0.234   4.124   1.428
10591SOL    HW243402   0.247   3.974   1.416
10592SOL     OW43403   3.800   1.482   3.456
10592SOL    HW143404   3.819   1.388   3.450
10592SOL    HW243405   3.825   1.505   3.546
10593SOL     OW43406   1.672   4.745  27.186
10593SOL    HW143407   1.581   4.752  27.157
10593SOL    HW243408   1.723   4.763  27.108
10594SOL     OW43409   3.682   0.688   1.784
10594SOL    HW143410   3.594   0.715   1.759
10594SOL    HW243411   3.723   0.768   1.816
10595SOL     OW43412   1.938   1.867   5.567
10595SOL    HW143413   1.855   1.886   5.522
10595SOL    HW243414   1.924   1.899   5.656
10596SOL     OW43415   2.491   4.719   4.806
10596SOL    HW143416   2.567   4.662   4.804
10596SOL    HW243417   2.429   4.679   4.746
10597SOL     OW43418   3.942   0.551  22.732
10597SOL    HW143419   3.861   0.589  22.766
10597SOL    HW243420   3.970   0.612  22.664
10598SOL     OW43421   1.105   1.813   9.639
10598SOL    HW143422   1.185   1.771   9.609
10598SOL    HW243423   1.048   1.815   9.562
10599SOL     OW43424   0.498   3.776   2.505
10599SOL    HW143425   0.547   3.852   2.472
10599SOL    HW243426   0.549   3.746   2.580
10600SOL     OW43427   1.273   0.298   9.760
10600SOL    HW143428   1.263   0.383   9.803
10600SOL    HW243429   1.304   0.239   9.829
10601SOL     OW43430   3.338   1.571   6.808
10601SOL    HW143431   3.386   1.622   6.744
10601SOL    HW243432   3.247   1.573   6.778
10602SOL     OW43433   2.945   0.472   1.933
10602SOL    HW143434   3.031   0.497   1.901
10602SOL    HW243435   2.886   0.489   1.859
10603SOL     OW43436   2.438   0.576  24.798
10603SOL    HW143437   2.382   0.610  24.728
10603SOL    HW243438   2.497   0.648  24.818
10604SOL     OW43439   1.870   2.280   4.705
10604SOL    HW143440   1.961   2.308   4.693
10604SOL    HW243441   1.848   2.308   4.793
10605SOL     OW43442   0.265   3.859   3.448
10605SOL    HW143443   0.263   3.870   3.353
10605SOL    HW243444   0.356   3.838   3.467
10606SOL     OW43445   3.896   3.986   9.739
10606SOL    HW143446   3.979   4.008   9.781
10606SOL    HW243447   3.901   4.027   9.653
10607SOL     OW43448   1.836   1.739  24.286
10607SOL    HW143449   1.928   1.756  24.301
10607SOL    HW243450   1.825   1.646  24.307
10608SOL     OW43451   2.539   0.403  21.552
10608SOL    HW143452   2.596   0.388  21.628
10608SOL    HW243453   2.575   0.345  21.484
10609SOL     OW43454   1.178   4.508   4.638
10609SOL    HW143455   1.148   4.588   4.681
10609SOL    HW243456   1.098   4.459   4.621
10610SOL     OW43457   1.145   4.087   4.853
10610SOL    HW143458   1.148   4.108   4.946
10610SOL    HW243459   1.227   4.121   4.818
10611SOL     OW43460   4.645   1.302  22.337
10611SOL    HW143461   4.720   1.259  22.295
10611SOL    HW243462   4.628   1.379  22.282
10612SOL     OW43463   0.670   3.946   3.267
10612SOL    HW143464   0.703   4.017   3.212
10612SOL    HW243465   0.658   3.872   3.207
10613SOL     OW43466   1.797   0.524   4.782
10613SOL    HW143467   1.775   0.443   4.828
10613SOL    HW243468   1.809   0.588   4.852
10614SOL     OW43469   2.398   1.759   5.673
10614SOL    HW143470   2.439   1.677   5.646
10614SOL    HW243471   2.436   1.825   5.615
10615SOL     OW43472   1.346   0.053  22.405
10615SOL    HW143473   1.286   0.014  22.341
10615SOL    HW243474   1.327   0.146  22.402
10616SOL     OW43475   4.293   0.509   6.588
10616SOL    HW143476   4.237   0.556   6.527
10616SOL    HW243477   4.326   0.577   6.647
10617SOL     OW43478   3.148   2.170  17.844
10617SOL    HW143479   3.161   2.263  17.825
10617SOL    HW243480   3.055   2.155  17.826
10618SOL     OW43481   3.909   3.112   0.384
10618SOL    HW143482   3.864   3.195   0.371
10618SOL    HW243483   3.936   3.086   0.296
10619SOL     OW43484   2.563   1.932  25.053
10619SOL    HW143485   2.477   1.890  25.047
10619SOL    HW243486   2.604   1.915  24.968
10620SOL     OW43487   4.323   2.208  18.263
10620SOL    HW143488   4.245   2.227  18.314
10620SOL    HW243489   4.355   2.294  18.235
10621SOL     OW43490   1.900   1.962   2.273
10621SOL    HW143491   1.824   2.020   2.272
10621SOL    HW243492   1.864   1.875   2.253
10622SOL     OW43493   2.493   1.012  26.314
10622SOL    HW143494   2.442   1.090  26.290
10622SOL    HW243495   2.584   1.041  26.311
10623SOL     OW43496   4.294   1.586   7.625
10623SOL    HW143497   4.376   1.543   7.649
10623SOL    HW243498   4.295   1.668   7.674
10624SOL     OW43499   1.391   1.682  20.363
10624SOL    HW143500   1.427   1.765  20.392
10624SOL    HW243501   1.299   1.699  20.347
10625SOL     OW43502   2.228   3.048   4.753
10625SOL    HW143503   2.261   3.011   4.671
10625SOL    HW243504   2.248   3.141   4.748
10626SOL     OW43505   4.752   3.304   6.862
10626SOL    HW143506   4.762   3.277   6.953
10626SOL    HW243507   4.758   3.400   6.864
10627SOL     OW43508   3.193   3.963   7.148
10627SOL    HW143509   3.146   3.995   7.225
10627SOL    HW243510   3.237   3.884   7.177
10628SOL     OW43511   3.686   2.420   9.600
10628SOL    HW143512   3.638   2.398   9.680
10628SOL    HW243513   3.730   2.502   9.620
10629SOL     OW43514   3.113   1.928  24.170
10629SOL    HW143515   3.027   1.901  24.140
10629SOL    HW243516   3.163   1.945  24.090
10630SOL     OW43517   1.195   0.559   8.746
10630SOL    HW143518   1.121   0.524   8.697
10630SOL    HW243519   1.210   0.496   8.817
10631SOL     OW43520   0.861   4.153   4.797
10631SOL    HW143521   0.882   4.229   4.852
10631SOL    HW243522   0.942   4.102   4.797
10632SOL     OW43523   0.396   3.438  10.817
10632SOL    HW143524   0.316   3.395  10.785
10632SOL    HW243525   0.399   3.521  10.770
10633SOL     OW43526   0.283   0.304  10.223
10633SOL    HW143527   0.192   0.327  10.243
10633SOL    HW243528   0.330   0.313  10.306
10634SOL     OW43529   4.643   1.942  24.908
10634SOL    HW143530   4.552   1.949  24.882
10634SOL    HW243531   4.642   1.881  24.982
10635SOL     OW43532   0.439   1.690  19.071
10635SOL    HW143533   0.416   1.620  19.011
10635SOL    HW243534   0.483   1.756  19.017
10636SOL     OW43535   1.361   1.540  19.738
10636SOL    HW143536   1.370   1.618  19.682
10636SOL    HW243537   1.277   1.502  19.711
10637SOL     OW43538   3.590   0.998  25.438
10637SOL    HW143539   3.632   1.048  25.369
10637SOL    HW243540   3.517   1.053  25.466
10638SOL     OW43541   2.501   1.742   1.604
10638SOL    HW143542   2.563   1.814   1.593
10638SOL    HW243543   2.486   1.710   1.515
10639SOL     OW43544   0.805   3.159   3.938
10639SOL    HW143545   0.792   3.222   4.009
10639SOL    HW243546   0.733   3.178   3.877
10640SOL     OW43547   2.517   2.202   0.019
10640SOL    HW143548   2.583   2.136  28.528
10640SOL    HW243549   2.566   2.269   0.068
10641SOL     OW43550   0.411   2.239   4.467
10641SOL    HW143551   0.436   2.146   4.471
10641SOL    HW243552   0.377   2.258   4.555
10642SOL     OW43553   0.480   4.036  23.620
10642SOL    HW143554   0.421   3.970  23.582
10642SOL    HW243555   0.428   4.078  23.688
10643SOL     OW43556   3.604   1.126   3.452
10643SOL    HW143557   3.608   1.053   3.515
10643SOL    HW243558   3.553   1.091   3.379
10644SOL     OW43559   4.266   3.436   6.666
10644SOL    HW143560   4.342   3.405   6.616
10644SOL    HW243561   4.303   3.469   6.748
10645SOL     OW43562   1.452   1.899   9.675
10645SOL    HW143563   1.380   1.868   9.621
10645SOL    HW243564   1.444   1.994   9.673
10646SOL     OW43565   0.978   3.627  11.127
10646SOL    HW143566   0.991   3.585  11.212
10646SOL    HW243567   0.923   3.566  11.078
10647SOL     OW43568   0.801   3.841   3.858
10647SOL    HW143569   0.891   3.870   3.874
10647SOL    HW243570   0.779   3.786   3.933
10648SOL     OW43571   4.342   4.656   8.534
10648SOL    HW143572   4.380   4.737   8.500
10648SOL    HW243573   4.283   4.684   8.604
10649SOL     OW43574   2.262   0.444   2.318
10649SOL    HW143575   2.269   0.379   2.248
10649SOL    HW243576   2.315   0.517   2.289
10650SOL     OW43577   3.817   3.101  18.184
10650SOL    HW143578   3.873   3.121  18.260
10650SOL    HW243579   3.738   3.153  18.197
10651SOL     OW43580   4.479   0.751   9.737
10651SOL    HW143581   4.511   0.741   9.647
10651SOL    HW243582   4.419   0.825   9.733
10652SOL     OW43583   0.823   3.765  26.473
10652SOL    HW143584   0.870   3.686  26.445
10652SOL    HW243585   0.742   3.732  26.511
10653SOL     OW43586   0.994   1.949  21.448
10653SOL    HW143587   1.085   1.925  21.431
10653SOL    HW243588   0.983   2.035  21.406
10654SOL     OW43589   3.517   3.780  25.482
10654SOL    HW143590   3.497   3.687  25.490
10654SOL    HW243591   3.515   3.813  25.572
10655SOL     OW43592   4.446   1.267  22.015
10655SOL    HW143593   4.409   1.228  21.935
10655SOL    HW243594   4.540   1.272  21.997
10656SOL     OW43595   1.191   2.937   8.134
10656SOL    HW143596   1.182   2.847   8.104
10656SOL    HW243597   1.274   2.967   8.097
10657SOL     OW43598   4.663   1.004  10.003
10657SOL    HW143599   4.617   1.084  10.028
10657SOL    HW243600   4.754   1.032   9.991
10658SOL     OW43601   3.361   2.905   1.975
10658SOL    HW143602   3.335   2.975   1.915
10658SOL    HW243603   3.304   2.831   1.951
10659SOL     OW43604   1.772   0.279   3.075
10659SOL    HW143605   1.720   0.237   3.144
10659SOL    HW243606   1.859   0.288   3.113
10660SOL     OW43607   3.667   3.525  21.938
10660SOL    HW143608   3.670   3.433  21.913
10660SOL    HW243609   3.742   3.537  21.996
10661SOL     OW43610   0.978   2.396  23.382
10661SOL    HW143611   0.984   2.320  23.440
10661SOL    HW243612   0.921   2.457  23.430
10662SOL     OW43613   2.142   1.977  23.486
10662SOL    HW143614   2.106   1.950  23.401
10662SOL    HW243615   2.074   1.953  23.549
10663SOL     OW43616   2.845   3.325  22.451
10663SOL    HW143617   2.837   3.238  22.490
10663SOL    HW243618   2.763   3.369  22.473
10664SOL     OW43619   0.330   2.188   9.611
10664SOL    HW143620   0.328   2.139   9.694
10664SOL    HW243621   0.387   2.262   9.629
10665SOL     OW43622   0.969   1.356   3.426
10665SOL    HW143623   0.993   1.311   3.507
10665SOL    HW243624   1.011   1.304   3.357
10666SOL     OW43625   0.318   3.538  28.506
10666SOL    HW143626   0.395   3.513  28.454
10666SOL    HW243627   0.355   3.579   0.053
10667SOL     OW43628   0.340   2.352  26.062
10667SOL    HW143629   0.254   2.359  26.103
10667SOL    HW243630   0.384   2.283  26.112
10668SOL     OW43631   2.341   1.602  23.643
10668SOL    HW143632   2.378   1.666  23.703
10668SOL    HW243633   2.416   1.552  23.612
10669SOL     OW43634   3.362   2.375   0.290
10669SOL    HW143635   3.448   2.344   0.317
10669SOL    HW243636   3.332   2.429   0.363
10670SOL     OW43637   0.999   1.848  27.254
10670SOL    HW143638   0.912   1.813  27.235
10670SOL    HW243639   1.055   1.812  27.185
10671SOL     OW43640   1.621   3.732   3.865
10671SOL    HW143641   1.580   3.778   3.939
10671SOL    HW243642   1.585   3.775   3.788
10672SOL     OW43643   3.975   2.535  17.344
10672SOL    HW143644   3.881   2.543  17.357
10672SOL    HW243645   4.005   2.625  17.329
10673SOL     OW43646   0.932   4.454  20.488
10673SOL    HW143647   0.891   4.423  20.408
10673SOL    HW243648   0.864   4.444  20.555
10674SOL     OW43649   1.091   1.345  21.169
10674SOL    HW143650   1.065   1.364  21.079
10674SOL    HW243651   1.148   1.419  21.193
10675SOL     OW43652   4.006   1.662  22.887
10675SOL    HW143653   4.026   1.756  22.895
10675SOL    HW243654   4.051   1.634  22.807
10676SOL     OW43655   2.854   4.300  19.908
10676SOL    HW143656   2.787   4.249  19.863
10676SOL    HW243657   2.874   4.372  19.848
10677SOL     OW43658   3.671   3.493   6.090
10677SOL    HW143659   3.712   3.552   6.154
10677SOL    HW243660   3.719   3.411   6.099
10678SOL     OW43661   0.789   1.509  23.680
10678SOL    HW143662   0.794   1.421  23.717
10678SOL    HW243663   0.729   1.500  23.606
10679SOL     OW43664   1.151   1.866   5.103
10679SOL    HW143665   1.116   1.785   5.139
10679SOL    HW243666   1.224   1.889   5.162
10680SOL     OW43667   1.155   0.649  21.298
10680SOL    HW143668   1.065   0.617  21.296
10680SOL    HW243669   1.148   0.743  21.282
10681SOL     OW43670   1.762   2.338  23.939
10681SOL    HW143671   1.757   2.420  23.890
10681SOL    HW243672   1.721   2.358  24.023
10682SOL     OW43673   1.787   0.383  11.257
10682SOL    HW143674   1.823   0.455  11.309
10682SOL    HW243675   1.848   0.311  11.269
10683SOL     OW43676   3.511   2.109  12.007
10683SOL    HW143677   3.545   2.042  11.947
10683SOL    HW243678   3.464   2.060  12.074
10684SOL     OW43679   0.367   0.563  20.481
10684SOL    HW143680   0.350   0.558  20.575
10684SOL    HW243681   0.461   0.581  20.475
10685SOL     OW43682   3.510   4.206   5.529
10685SOL    HW143683   3.574   4.150   5.573
10685SOL    HW243684   3.447   4.146   5.490
10686SOL     OW43685   1.950   0.925   9.118
10686SOL    HW143686   1.940   0.869   9.195
10686SOL    HW243687   2.044   0.943   9.113
10687SOL     OW43688   0.679   3.202  17.694
10687SOL    HW143689   0.670   3.257  17.772
10687SOL    HW243690   0.771   3.213  17.668
10688SOL     OW43691   2.872   1.061  22.038
10688SOL    HW143692   2.942   1.111  22.079
10688SOL    HW243693   2.857   0.988  22.097
10689SOL     OW43694   3.956   0.754  24.115
10689SOL    HW143695   3.927   0.715  24.197
10689SOL    HW243696   4.002   0.683  24.070
10690SOL     OW43697   3.225   4.035  24.986
10690SOL    HW143698   3.303   4.063  24.937
10690SOL    HW243699   3.248   3.949  25.020
10691SOL     OW43700   2.024   0.792   5.143
10691SOL    HW143701   2.079   0.862   5.178
10691SOL    HW243702   2.063   0.771   5.058
10692SOL     OW43703   4.330   4.472  23.100
10692SOL    HW143704   4.421   4.458  23.126
10692SOL    HW243705   4.336   4.501  23.009
10693SOL     OW43706   1.262   2.219   3.454
10693SOL    HW143707   1.176   2.258   3.437
10693SOL    HW243708   1.278   2.164   3.378
10694SOL     OW43709   4.568   1.892  20.427
10694SOL    HW143710   4.485   1.905  20.473
10694SOL    HW243711   4.547   1.831  20.356
10695SOL     OW43712   0.748   4.619   4.381
10695SOL    HW143713   0.770   4.528   4.364
10695SOL    HW243714   0.659   4.630   4.346
10696SOL     OW43715   4.490   2.706   7.359
10696SOL    HW143716   4.425   2.657   7.308
10696SOL    HW243717   4.572   2.692   7.313
10697SOL     OW43718   2.898   4.022   3.014
10697SOL    HW143719   2.963   4.033   3.083
10697SOL    HW243720   2.822   4.073   3.044
10698SOL     OW43721   0.897   2.164  18.806
10698SOL    HW143722   0.964   2.231  18.790
10698SOL    HW243723   0.877   2.171  18.899
10699SOL     OW43724   4.304   1.906   6.150
10699SOL    HW143725   4.231   1.953   6.190
10699SOL    HW243726   4.313   1.827   6.202
10700SOL     OW43727   1.269   4.428   5.769
10700SOL    HW143728   1.304   4.497   5.713
10700SOL    HW243729   1.198   4.471   5.817
10701SOL     OW43730   3.206   4.634  25.563
10701SOL    HW143731   3.157   4.565  25.608
10701SOL    HW243732   3.243   4.591  25.486
10702SOL     OW43733   3.442   2.541  25.281
10702SOL    HW143734   3.474   2.528  25.192
10702SOL    HW243735   3.516   2.517  25.337
10703SOL     OW43736   4.473   0.298  23.230
10703SOL    HW143737   4.498   0.208  23.212
10703SOL    HW243738   4.401   0.317  23.170
10704SOL     OW43739   3.860   0.725  23.118
10704SOL    HW143740   3.801   0.678  23.059
10704SOL    HW243741   3.907   0.656  23.164
10705SOL     OW43742   2.588   3.917  20.133
10705SOL    HW143743   2.511   3.934  20.078
10705SOL    HW243744   2.590   3.822  20.143
10706SOL     OW43745   0.151   0.942  20.816
10706SOL    HW143746   0.215   0.909  20.879
10706SOL    HW243747   0.131   1.030  20.845
10707SOL     OW43748   3.307   3.426   1.125
10707SOL    HW143749   3.349   3.432   1.211
10707SOL    HW243750   3.380   3.422   1.063
10708SOL     OW43751   1.167   3.870   3.562
10708SOL    HW143752   1.190   3.963   3.568
10708SOL    HW243753   1.130   3.850   3.648
10709SOL     OW43754   0.007   0.228   0.229
10709SOL    HW143755   0.044   0.309   0.264
10709SOL    HW243756   4.702   0.223   0.266
10710SOL     OW43757   3.005   2.216   6.122
10710SOL    HW143758   3.003   2.125   6.150
10710SOL    HW243759   3.083   2.223   6.067
10711SOL     OW43760   1.049   0.972   1.195
10711SOL    HW143761   1.076   0.910   1.127
10711SOL    HW243762   1.062   1.058   1.157
10712SOL     OW43763   3.827   2.012   6.737
10712SOL    HW143764   3.812   1.946   6.670
10712SOL    HW243765   3.773   2.086   6.711
10713SOL     OW43766   1.131   1.320  26.972
10713SOL    HW143767   1.223   1.325  26.996
10713SOL    HW243768   1.130   1.265  26.893
10714SOL     OW43769   1.966   0.779   5.996
10714SOL    HW143770   1.983   0.869   5.967
10714SOL    HW243771   1.888   0.786   6.052
10715SOL     OW43772   4.222   4.092   1.709
10715SOL    HW143773   4.138   4.051   1.732
10715SOL    HW243774   4.287   4.022   1.721
10716SOL     OW43775   0.617   2.450  24.690
10716SOL    HW143776   0.687   2.449  24.624
10716SOL    HW243777   0.644   2.386  24.755
10717SOL     OW43778   3.844   0.711   6.546
10717SOL    HW143779   3.752   0.724   6.570
10717SOL    HW243780   3.847   0.622   6.511
10718SOL     OW43781   1.396   1.195  28.149
10718SOL    HW143782   1.388   1.281  28.190
10718SOL    HW243783   1.335   1.139  28.198
10719SOL     OW43784   0.478   3.384   4.639
10719SOL    HW143785   0.490   3.307   4.694
10719SOL    HW243786   0.401   3.427   4.675
10720SOL     OW43787   0.612   1.746  21.614
10720SOL    HW143788   0.693   1.731  21.567
10720SOL    HW243789   0.587   1.836  21.593
10721SOL     OW43790   0.982   1.961  28.525
10721SOL    HW143791   1.017   1.982   0.081
10721SOL    HW243792   0.899   2.008  28.520
10722SOL     OW43793   0.884   3.099   2.227
10722SOL    HW143794   0.830   3.022   2.209
10722SOL    HW243795   0.955   3.094   2.163
10723SOL     OW43796   2.150   1.036   0.046
10723SOL    HW143797   2.157   1.001   0.135
10723SOL    HW243798   2.215   1.106   0.043
10724SOL     OW43799   2.357   0.798  10.867
10724SOL    HW143800   2.272   0.771  10.903
10724SOL    HW243801   2.384   0.872  10.921
10725SOL     OW43802   2.879   0.898  24.627
10725SOL    HW143803   2.899   0.977  24.577
10725SOL    HW243804   2.958   0.881  24.679
10726SOL     OW43805   0.174   0.528   5.948
10726SOL    HW143806   0.268   0.536   5.961
10726SOL    HW243807   0.147   0.457   6.006
10727SOL     OW43808   3.111   1.987   1.909
10727SOL    HW143809   3.091   1.946   1.993
10727SOL    HW243810   3.142   1.915   1.854
10728SOL     OW43811   4.747   3.695  19.923
10728SOL    HW143812   4.700   3.735  19.850
10728SOL    HW243813   4.681   3.643  19.969
10729SOL     OW43814   0.598   2.598  24.936
10729SOL    HW143815   0.627   2.689  24.936
10729SOL    HW243816   0.635   2.561  24.855
10730SOL     OW43817   0.355   2.454  18.205
10730SOL    HW143818   0.270   2.471  18.165
10730SOL    HW243819   0.403   2.536  18.195
10731SOL     OW43820   3.154   1.687  23.667
10731SOL    HW143821   3.194   1.600  23.676
10731SOL    HW243822   3.067   1.669  23.630
10732SOL     OW43823   0.394   0.981   6.682
10732SOL    HW143824   0.335   1.031   6.740
10732SOL    HW243825   0.475   1.032   6.680
10733SOL     OW43826   4.715   0.188   0.613
10733SOL    HW143827   4.761   0.270   0.631
10733SOL    HW243828   4.693   0.153   0.699
10734SOL     OW43829   0.077   0.741   9.710
10734SOL    HW143830   0.077   0.690   9.629
10734SOL    HW243831   0.071   0.675   9.779
10735SOL     OW43832   0.870   2.361  26.574
10735SOL    HW143833   0.935   2.377  26.643
10735SOL    HW243834   0.837   2.273  26.592
10736SOL     OW43835   4.340   0.546   1.573
10736SOL    HW143836   4.249   0.517   1.566
10736SOL    HW243837   4.381   0.515   1.493
10737SOL     OW43838   0.049   0.680   4.184
10737SOL    HW143839   4.766   0.647   4.245
10737SOL    HW243840   0.003   0.690   4.101
10738SOL     OW43841   2.251   0.164   8.897
10738SOL    HW143842   2.195   0.188   8.971
10738SOL    HW243843   2.199   0.102   8.846
10739SOL     OW43844   1.045   2.646  26.834
10739SOL    HW143845   0.990   2.656  26.912
10739SOL    HW243846   1.018   2.718  26.777
10740SOL     OW43847   1.498   1.433  24.671
10740SOL    HW143848   1.469   1.475  24.589
10740SOL    HW243849   1.551   1.359  24.643
10741SOL     OW43850   0.112   0.928  25.385
10741SOL    HW143851   0.059   0.873  25.328
10741SOL    HW243852   0.109   1.015  25.345
10742SOL     OW43853   1.509   2.345  27.149
10742SOL    HW143854   1.459   2.425  27.130
10742SOL    HW243855   1.572   2.339  27.078
10743SOL     OW43856   1.133   3.932  10.416
10743SOL    HW143857   1.091   4.004  10.463
10743SOL    HW243858   1.226   3.940  10.440
10744SOL     OW43859   2.747   2.734   5.972
10744SOL    HW143860   2.811   2.663   5.969
10744SOL    HW243861   2.775   2.789   6.045
10745SOL     OW43862   3.510   4.293  26.948
10745SOL    HW143863   3.568   4.254  27.013
10745SOL    HW243864   3.521   4.239  26.869
10746SOL     OW43865   1.115   1.663   2.731
10746SOL    HW143866   1.133   1.569   2.728
10746SOL    HW243867   1.081   1.684   2.644
10747SOL     OW43868   4.252   3.598  25.770
10747SOL    HW143869   4.195   3.663  25.810
10747SOL    HW243870   4.209   3.514  25.787
10748SOL     OW43871   2.874   1.321   3.724
10748SOL    HW143872   2.961   1.326   3.763
10748SOL    HW243873   2.869   1.234   3.685
10749SOL     OW43874   1.221   3.260   0.645
10749SOL    HW143875   1.294   3.308   0.683
10749SOL    HW243876   1.150   3.324   0.639
10750SOL     OW43877   1.315   0.543   2.930
10750SOL    HW143878   1.384   0.579   2.986
10750SOL    HW243879   1.305   0.607   2.859
10751SOL     OW43880   1.205   1.370  24.439
10751SOL    HW143881   1.219   1.437  24.373
10751SOL    HW243882   1.196   1.289  24.388
10752SOL     OW43883   1.719   4.566  24.290
10752SOL    HW143884   1.648   4.554  24.226
10752SOL    HW243885   1.767   4.483  24.288
10753SOL     OW43886   1.594   2.236  20.633
10753SOL    HW143887   1.562   2.216  20.545
10753SOL    HW243888   1.689   2.234  20.625
10754SOL     OW43889   0.450   2.522   8.783
10754SOL    HW143890   0.397   2.589   8.740
10754SOL    HW243891   0.393   2.446   8.787
10755SOL     OW43892   0.278   3.078  23.357
10755SOL    HW143893   0.216   3.069  23.286
10755SOL    HW243894   0.275   3.171  23.380
10756SOL     OW43895   4.637   0.336   6.624
10756SOL    HW143896   4.566   0.273   6.607
10756SOL    HW243897   4.715   0.294   6.588
10757SOL     OW43898   2.247   2.579  24.333
10757SOL    HW143899   2.177   2.635  24.365
10757SOL    HW243900   2.314   2.583  24.402
10758SOL     OW43901   1.527   3.587  20.481
10758SOL    HW143902   1.454   3.619  20.428
10758SOL    HW243903   1.602   3.638  20.454
10759SOL     OW43904   0.217   0.492   0.888
10759SOL    HW143905   0.272   0.418   0.862
10759SOL    HW243906   0.273   0.543   0.947
10760SOL     OW43907   2.071   1.803   1.515
10760SOL    HW143908   2.060   1.740   1.443
10760SOL    HW243909   2.010   1.874   1.494
10761SOL     OW43910   3.556   0.363   8.498
10761SOL    HW143911   3.483   0.306   8.473
10761SOL    HW243912   3.524   0.412   8.573
10762SOL     OW43913   0.618   0.210  25.626
10762SOL    HW143914   0.664   0.287  25.659
10762SOL    HW243915   0.528   0.239  25.613
10763SOL     OW43916   4.407   4.343  25.702
10763SOL    HW143917   4.410   4.248  25.713
10763SOL    HW243918   4.499   4.370  25.708
10764SOL     OW43919   2.673   1.373  22.468
10764SOL    HW143920   2.632   1.358  22.554
10764SOL    HW243921   2.766   1.352  22.483
10765SOL     OW43922   1.239   4.676  21.370
10765SOL    HW143923   1.269   4.596  21.413
10765SOL    HW243924   1.186   4.646  21.297
10766SOL     OW43925   0.685   3.705  28.025
10766SOL    HW143926   0.595   3.724  27.997
10766SOL    HW243927   0.732   3.787  28.011
10767SOL     OW43928   0.200   1.126  25.969
10767SOL    HW143929   0.257   1.094  26.039
10767SOL    HW243930   0.134   1.179  26.014
10768SOL     OW43931   2.253   1.107   9.640
10768SOL    HW143932   2.235   1.107   9.546
10768SOL    HW243933   2.178   1.062   9.679
10769SOL     OW43934   3.392   4.009   0.452
10769SOL    HW143935   3.323   3.942   0.449
10769SOL    HW243936   3.422   4.017   0.362
10770SOL     OW43937   2.537   0.941  21.825
10770SOL    HW143938   2.614   0.987  21.792
10770SOL    HW243939   2.507   0.992  21.900
10771SOL     OW43940   3.977   3.559   3.637
10771SOL    HW143941   4.069   3.584   3.631
10771SOL    HW243942   3.950   3.545   3.546
10772SOL     OW43943   1.933   3.951  24.497
10772SOL    HW143944   1.889   3.891  24.436
10772SOL    HW243945   1.867   3.970  24.563
10773SOL     OW43946   3.013   3.912   6.705
10773SOL    HW143947   3.034   3.913   6.612
10773SOL    HW243948   2.921   3.886   6.708
10774SOL     OW43949   1.128   1.776  23.664
10774SOL    HW143950   1.044   1.738  23.640
10774SOL    HW243951   1.111   1.822  23.747
10775SOL     OW43952   4.715   2.398   8.114
10775SOL    HW143953   4.624   2.415   8.139
10775SOL    HW243954   4.755   2.361   8.192
10776SOL     OW43955   3.243   1.809   5.665
10776SOL    HW143956   3.227   1.728   5.714
10776SOL    HW243957   3.268   1.873   5.731
10777SOL     OW43958   2.709   2.025   0.548
10777SOL    HW143959   2.673   2.106   0.512
10777SOL    HW243960   2.644   1.997   0.613
10778SOL     OW43961   0.311   1.543   8.229
10778SOL    HW143962   0.326   1.449   8.236
10778SOL    HW243963   0.217   1.554   8.244
10779SOL     OW43964   0.231   4.224  25.900
10779SOL    HW143965   0.271   4.244  25.815
10779SOL    HW243966   0.288   4.266  25.964
10780SOL     OW43967   3.097   3.146  28.450
10780SOL    HW143968   3.159   3.122  28.519
10780SOL    HW243969   3.011   3.125  28.486
10781SOL     OW43970   2.694   3.788  22.133
10781SOL    HW143971   2.669   3.854  22.197
10781SOL    HW243972   2.620   3.782  22.073
10782SOL     OW43973   0.727   2.359   0.179
10782SOL    HW143974   0.643   2.387   0.144
10782SOL    HW243975   0.754   2.430   0.237
10783SOL     OW43976   2.701   3.084  27.002
10783SOL    HW143977   2.654   3.167  27.002
10783SOL    HW243978   2.726   3.071  27.094
10784SOL     OW43979   1.408   4.100   7.934
10784SOL    HW143980   1.371   4.180   7.900
10784SOL    HW243981   1.501   4.120   7.949
10785SOL     OW43982   4.262   0.890  25.241
10785SOL    HW143983   4.239   0.982  25.224
10785SOL    HW243984   4.218   0.841  25.172
10786SOL     OW43985   2.971   4.018  21.049
10786SOL    HW143986   2.939   4.066  20.973
10786SOL    HW243987   3.063   4.001  21.031
10787SOL     OW43988   1.149   1.234  18.342
10787SOL    HW143989   1.165   1.277  18.258
10787SOL    HW243990   1.137   1.142  18.319
10788SOL     OW43991   2.580   0.275  19.844
10788SOL    HW143992   2.559   0.361  19.882
10788SOL    HW243993   2.612   0.295  19.756
10789SOL     OW43994   1.322   1.953   1.843
10789SOL    HW143995   1.393   1.891   1.859
10789SOL    HW243996   1.366   2.037   1.830
10790SOL     OW43997   1.252   4.729  23.693
10790SOL    HW143998   1.292   4.722  23.607
10790SOL    HW243999   1.184   4.662  23.693
10791SOL     OW44000   4.774   2.714  19.213
10791SOL    HW144001   0.014   2.712  19.306
10791SOL    HW244002   4.685   2.750  19.210
10792SOL     OW44003   3.241   2.894  23.273
10792SOL    HW144004   3.299   2.822  23.250
10792SOL    HW244005   3.239   2.893  23.369
10793SOL     OW44006   2.411   2.384   2.733
10793SOL    HW144007   2.458   2.430   2.803
10793SOL    HW244008   2.345   2.446   2.703
10794SOL     OW44009   3.877   0.221   4.282
10794SOL    HW144010   3.888   0.274   4.203
10794SOL    HW244011   3.966   0.202   4.312
10795SOL     OW44012   2.800   2.513   4.743
10795SOL    HW144013   2.870   2.578   4.746
10795SOL    HW244014   2.742   2.543   4.673
10796SOL     OW44015   2.138   3.432  25.001
10796SOL    HW144016   2.138   3.483  24.920
10796SOL    HW244017   2.195   3.482  25.060
10797SOL     OW44018   1.954   4.666   3.224
10797SOL    HW144019   1.975   4.576   3.249
10797SOL    HW244020   1.997   4.721   3.290
10798SOL     OW44021   2.974   1.971   4.339
10798SOL    HW144022   2.978   1.895   4.281
10798SOL    HW244023   2.950   1.935   4.424
10799SOL     OW44024   3.935   2.411  11.696
10799SOL    HW144025   3.885   2.468  11.638
10799SOL    HW244026   3.940   2.458  11.779
10800SOL     OW44027   1.928   1.136  12.731
10800SOL    HW144028   1.905   1.072  12.798
10800SOL    HW244029   2.021   1.153  12.745
10801SOL     OW44030   2.790   1.306  17.874
10801SOL    HW144031   2.763   1.214  17.872
10801SOL    HW244032   2.780   1.336  17.784
10802SOL     OW44033   4.698   2.760  25.952
10802SOL    HW144034   4.638   2.734  26.023
10802SOL    HW244035   4.652   2.735  25.872
10803SOL     OW44036   0.610   1.203   4.058
10803SOL    HW144037   0.650   1.201   4.145
10803SOL    HW244038   0.516   1.197   4.075
10804SOL     OW44039   2.546   2.699   7.354
10804SOL    HW144040   2.473   2.680   7.294
10804SOL    HW244041   2.505   2.739   7.430
10805SOL     OW44042   3.965   2.082  22.019
10805SOL    HW144043   4.053   2.084  22.056
10805SOL    HW244044   3.918   2.018  22.071
10806SOL     OW44045   1.246   0.137  27.793
10806SOL    HW144046   1.332   0.102  27.770
10806SOL    HW244047   1.193   0.059  27.812
10807SOL     OW44048   1.756   1.093  20.671
10807SOL    HW144049   1.774   1.177  20.628
10807SOL    HW244050   1.704   1.044  20.608
10808SOL     OW44051   0.576   3.077  20.821
10808SOL    HW144052   0.540   3.145  20.763
10808SOL    HW244053   0.539   3.098  20.907
10809SOL     OW44054   1.770   0.404  22.399
10809SOL    HW144055   1.770   0.495  22.372
10809SOL    HW244056   1.831   0.401  22.473
10810SOL     OW44057   2.501   1.004   6.050
10810SOL    HW144058   2.455   1.087   6.057
10810SOL    HW244059   2.590   1.024   6.079
10811SOL     OW44060   4.776   0.125  22.183
10811SOL    HW144061   0.081   0.106  22.219
10811SOL    HW244062   4.719   0.059  22.222
10812SOL     OW44063   2.155   3.586  26.989
10812SOL    HW144064   2.106   3.638  26.925
10812SOL    HW244065   2.221   3.540  26.937
10813SOL     OW44066   3.944   0.183   7.956
10813SOL    HW144067   3.854   0.189   7.925
10813SOL    HW244068   3.944   0.111   8.018
10814SOL     OW44069   1.802   1.622   7.188
10814SOL    HW144070   1.771   1.531   7.186
10814SOL    HW244071   1.732   1.670   7.232
10815SOL     OW44072   3.360   1.625  18.340
10815SOL    HW144073   3.288   1.641  18.401
10815SOL    HW244074   3.409   1.553  18.380
10816SOL     OW44075   4.672   4.032  16.888
10816SOL    HW144076   4.730   4.028  16.812
10816SOL    HW244077   4.591   4.071  16.854
10817SOL     OW44078   2.543   0.772   5.869
10817SOL    HW144079   2.459   0.727   5.870
10817SOL    HW244080   2.548   0.815   5.955
10818SOL     OW44081   2.107   0.320  21.372
10818SOL    HW144082   2.152   0.241  21.402
10818SOL    HW244083   2.152   0.392  21.417
10819SOL     OW44084   2.708   2.585  10.156
10819SOL    HW144085   2.740   2.594  10.066
10819SOL    HW244086   2.694   2.492  10.167
10820SOL     OW44087   3.229   3.251   8.819
10820SOL    HW144088   3.275   3.176   8.782
10820SOL    HW244089   3.264   3.259   8.908
10821SOL     OW44090   0.857   2.479   7.318
10821SOL    HW144091   0.930   2.466   7.258
10821SOL    HW244092   0.885   2.551   7.375
10822SOL     OW44093   3.614   1.834   1.370
10822SOL    HW144094   3.665   1.911   1.346
10822SOL    HW244095   3.537   1.837   1.313
10823SOL     OW44096   0.702   3.493   3.815
10823SOL    HW144097   0.684   3.399   3.813
10823SOL    HW244098   0.637   3.530   3.755
10824SOL     OW44099   0.133   1.509  19.902
10824SOL    HW144100   0.222   1.543  19.907
10824SOL    HW244101   0.134   1.450  19.826
10825SOL     OW44102   3.963   1.859  22.199
10825SOL    HW144103   4.022   1.784  22.211
10825SOL    HW244104   3.880   1.831  22.239
10826SOL     OW44105   2.912   4.672   8.549
10826SOL    HW144106   2.885   4.639   8.635
10826SOL    HW244107   2.840   4.651   8.491
10827SOL     OW44108   2.630   1.850   3.388
10827SOL    HW144109   2.721   1.880   3.378
10827SOL    HW244110   2.618   1.840   3.482
10828SOL     OW44111   4.440   2.978   5.888
10828SOL    HW144112   4.491   2.930   5.954
10828SOL    HW244113   4.468   2.940   5.805
10829SOL     OW44114   0.700   1.572   6.967
10829SOL    HW144115   0.763   1.639   6.990
10829SOL    HW244116   0.675   1.593   6.877
10830SOL     OW44117   1.494   2.683   8.325
10830SOL    HW144118   1.508   2.756   8.386
10830SOL    HW244119   1.452   2.615   8.379
10831SOL     OW44120   3.867   0.508  23.969
10831SOL    HW144121   3.880   0.588  24.020
10831SOL    HW244122   3.942   0.505  23.910
10832SOL     OW44123   2.203   1.474   9.458
10832SOL    HW144124   2.219   1.500   9.549
10832SOL    HW244125   2.286   1.438   9.428
10833SOL     OW44126   1.970   1.912   2.529
10833SOL    HW144127   2.002   1.944   2.445
10833SOL    HW244128   1.945   1.991   2.577
10834SOL     OW44129   2.775   3.168  21.617
10834SOL    HW144130   2.735   3.225  21.682
10834SOL    HW244131   2.752   3.207  21.533
10835SOL     OW44132   3.629   0.917  20.351
10835SOL    HW144133   3.556   0.856  20.341
10835SOL    HW244134   3.635   0.932  20.445
10836SOL     OW44135   0.622   4.522  27.927
10836SOL    HW144136   0.597   4.441  27.972
10836SOL    HW244137   0.539   4.562  27.903
10837SOL     OW44138   1.028   2.217   4.079
10837SOL    HW144139   0.962   2.166   4.126
10837SOL    HW244140   1.110   2.195   4.122
10838SOL     OW44141   1.841   0.041  28.034
10838SOL    HW144142   1.810   4.780  28.114
10838SOL    HW244143   1.764   0.088  28.002
10839SOL     OW44144   3.398   0.128   8.489
10839SOL    HW144145   3.442   0.094   8.567
10839SOL    HW244146   3.305   0.118   8.507
10840SOL     OW44147   1.237   1.460   7.787
10840SOL    HW144148   1.163   1.403   7.807
10840SOL    HW244149   1.210   1.510   7.711
10841SOL     OW44150   0.888   1.555  21.199
10841SOL    HW144151   0.906   1.494  21.127
10841SOL    HW244152   0.936   1.519  21.274
10842SOL     OW44153   1.019   3.045   1.902
10842SOL    HW144154   1.096   3.006   1.859
10842SOL    HW244155   0.946   3.021   1.846
10843SOL     OW44156   3.320   3.567  24.386
10843SOL    HW144157   3.287   3.520  24.310
10843SOL    HW244158   3.298   3.512  24.461
10844SOL     OW44159   2.394   0.950   9.825
10844SOL    HW144160   2.383   0.888   9.752
10844SOL    HW244161   2.374   1.035   9.787
10845SOL     OW44162   3.398   1.865  11.761
10845SOL    HW144163   3.482   1.881  11.804
10845SOL    HW244164   3.420   1.832  11.674
10846SOL     OW44165   2.998   2.225  11.468
10846SOL    HW144166   3.072   2.267  11.425
10846SOL    HW244167   3.037   2.155  11.520
10847SOL     OW44168   3.470   2.122  10.179
10847SOL    HW144169   3.402   2.157  10.122
10847SOL    HW244170   3.538   2.190  10.181
10848SOL     OW44171   1.637   4.284  27.513
10848SOL    HW144172   1.592   4.202  27.529
10848SOL    HW244173   1.581   4.331  27.451
10849SOL     OW44174   1.988   3.835   0.785
10849SOL    HW144175   2.007   3.845   0.879
10849SOL    HW244176   1.957   3.922   0.758
10850SOL     OW44177   0.403   0.893  11.510
10850SOL    HW144178   0.450   0.917  11.590
10850SOL    HW244179   0.317   0.864  11.541
10851SOL     OW44180   4.703   3.568   6.892
10851SOL    HW144181   4.611   3.579   6.868
10851SOL    HW244182   4.709   3.602   6.981
10852SOL     OW44183   1.474   2.128   2.988
10852SOL    HW144184   1.465   2.103   3.081
10852SOL    HW244185   1.558   2.091   2.961
10853SOL     OW44186   3.470   4.116  21.183
10853SOL    HW144187   3.462   4.023  21.161
10853SOL    HW244188   3.517   4.117  21.266
10854SOL     OW44189   1.685   3.592  26.997
10854SOL    HW144190   1.604   3.608  27.047
10854SOL    HW244191   1.747   3.560  27.062
10855SOL     OW44192   3.392   4.731  11.550
10855SOL    HW144193   3.404   4.730  11.644
10855SOL    HW244194   3.411   0.038  11.523
10856SOL     OW44195   4.567   2.615  21.706
10856SOL    HW144196   4.633   2.553  21.736
10856SOL    HW244197   4.491   2.560  21.686
10857SOL     OW44198   2.644   4.518  19.674
10857SOL    HW144199   2.592   4.457  19.726
10857SOL    HW244200   2.713   4.547  19.732
10858SOL     OW44201   0.553   0.057   4.651
10858SOL    HW144202   0.491   0.098   4.711
10858SOL    HW244203   0.501   0.034   4.574
10859SOL     OW44204   2.285   2.456   6.508
10859SOL    HW144205   2.356   2.504   6.552
10859SOL    HW244206   2.296   2.366   6.537
10860SOL     OW44207   2.143   2.150   7.306
10860SOL    HW144208   2.156   2.239   7.273
10860SOL    HW244209   2.048   2.140   7.310
10861SOL     OW44210   3.074   4.576   7.425
10861SOL    HW144211   2.993   4.596   7.378
10861SOL    HW244212   3.126   4.525   7.363
10862SOL     OW44213   2.425   2.208   9.201
10862SOL    HW144214   2.460   2.145   9.138
10862SOL    HW244215   2.348   2.165   9.237
10863SOL     OW44216   2.998   2.229  23.902
10863SOL    HW144217   2.966   2.278  23.977
10863SOL    HW244218   2.989   2.290  23.828
10864SOL     OW44219   2.662   3.131  18.632
10864SOL    HW144220   2.596   3.126  18.563
10864SOL    HW244221   2.623   3.186  18.699
10865SOL     OW44222   0.187   4.636  21.352
10865SOL    HW144223   0.146   4.558  21.388
10865SOL    HW244224   0.278   4.632  21.380
10866SOL     OW44225   2.614   0.676  21.338
10866SOL    HW144226   2.702   0.707  21.318
10866SOL    HW244227   2.579   0.645  21.254
10867SOL     OW44228   1.192   3.062   0.446
10867SOL    HW144229   1.277   3.070   0.404
10867SOL    HW244230   1.190   3.132   0.511
10868SOL     OW44231   4.738   3.463   5.815
10868SOL    HW144232   4.769   3.376   5.837
10868SOL    HW244233   4.768   3.478   5.725
10869SOL     OW44234   4.484   1.891   9.343
10869SOL    HW144235   4.453   1.966   9.291
10869SOL    HW244236   4.579   1.900   9.343
10870SOL     OW44237   4.112   1.640  11.631
10870SOL    HW144238   4.133   1.732  11.645
10870SOL    HW244239   4.128   1.598  11.715
10871SOL     OW44240   1.287   1.967   7.554
10871SOL    HW144241   1.330   1.883   7.541
10871SOL    HW244242   1.289   1.981   7.648
10872SOL     OW44243   3.576   2.902  11.023
10872SOL    HW144244   3.589   2.859  10.938
10872SOL    HW244245   3.655   2.880  11.073
10873SOL     OW44246   3.625   1.369  21.454
10873SOL    HW144247   3.551   1.397  21.508
10873SOL    HW244248   3.635   1.440  21.390
10874SOL     OW44249   0.627   0.911   1.540
10874SOL    HW144250   0.572   0.976   1.584
10874SOL    HW244251   0.717   0.937   1.562
10875SOL     OW44252   3.691   1.723   0.772
10875SOL    HW144253   3.698   1.740   0.678
10875SOL    HW244254   3.651   1.802   0.808
10876SOL     OW44255   1.856   0.849  19.944
10876SOL    HW144256   1.767   0.814  19.944
10876SOL    HW244257   1.854   0.919  20.010
10877SOL     OW44258   0.957   3.674   3.457
10877SOL    HW144259   0.929   3.764   3.474
10877SOL    HW244260   1.032   3.683   3.398
10878SOL     OW44261   4.011   3.138   7.563
10878SOL    HW144262   4.014   3.044   7.549
10878SOL    HW244263   3.930   3.153   7.611
10879SOL     OW44264   0.557   4.560  26.816
10879SOL    HW144265   0.585   4.489  26.873
10879SOL    HW244266   0.537   4.518  26.733
10880SOL     OW44267   3.828   3.175  12.016
10880SOL    HW144268   3.826   3.243  11.948
10880SOL    HW244269   3.866   3.219  12.092
10881SOL     OW44270   3.350   3.143   5.388
10881SOL    HW144271   3.263   3.129   5.424
10881SOL    HW244272   3.409   3.097   5.448
10882SOL     OW44273   0.559   2.504  22.895
10882SOL    HW144274   0.551   2.595  22.869
10882SOL    HW244275   0.529   2.454  22.819
10883SOL     OW44276   0.071   0.594   9.126
10883SOL    HW144277   0.146   0.642   9.090
10883SOL    HW244278   4.778   0.629   9.079
10884SOL     OW44279   3.290   2.829   1.647
10884SOL    HW144280   3.257   2.919   1.640
10884SOL    HW244281   3.230   2.786   1.707
10885SOL     OW44282   3.660   1.226  11.752
10885SOL    HW144283   3.565   1.236  11.765
10885SOL    HW244284   3.673   1.132  11.742
10886SOL     OW44285   4.164   4.773  21.587
10886SOL    HW144286   4.134   4.686  21.613
10886SOL    HW244287   4.089   0.048  21.604
10887SOL     OW44288   1.378   2.977   9.506
10887SOL    HW144289   1.296   2.948   9.466
10887SOL    HW244290   1.435   2.900   9.503
10888SOL     OW44291   3.878   1.303   4.185
10888SOL    HW144292   3.887   1.218   4.229
10888SOL    HW244293   3.873   1.366   4.257
10889SOL     OW44294   2.678   1.841   3.664
10889SOL    HW144295   2.726   1.912   3.705
10889SOL    HW244296   2.716   1.761   3.701
10890SOL     OW44297   0.759   3.574   0.213
10890SOL    HW144298   0.670   3.566   0.179
10890SOL    HW244299   0.782   3.485   0.240
10891SOL     OW44300   3.782   2.204  27.239
10891SOL    HW144301   3.717   2.134  27.232
10891SOL    HW244302   3.756   2.268  27.172
10892SOL     OW44303   2.442   1.248   8.432
10892SOL    HW144304   2.376   1.313   8.410
10892SOL    HW244305   2.436   1.183   8.361
10893SOL     OW44306   2.534   2.175  19.928
10893SOL    HW144307   2.474   2.229  19.979
10893SOL    HW244308   2.619   2.219  19.936
10894SOL     OW44309   3.788   3.687  20.764
10894SOL    HW144310   3.827   3.645  20.687
10894SOL    HW244311   3.707   3.726  20.732
10895SOL     OW44312   2.543   3.765   9.707
10895SOL    HW144313   2.607   3.732   9.770
10895SOL    HW244314   2.592   3.829   9.654
10896SOL     OW44315   2.942   0.004  11.987
10896SOL    HW144316   2.928   0.096  11.969
10896SOL    HW244317   3.024   4.765  11.943
10897SOL     OW44318   0.800   3.494   2.116
10897SOL    HW144319   0.786   3.542   2.198
10897SOL    HW244320   0.773   3.404   2.136
10898SOL     OW44321   0.178   4.771   7.815
10898SOL    HW144322   0.238   4.703   7.786
10898SOL    HW244323   0.171   4.758   7.910
10899SOL     OW44324   4.771   2.719   4.201
10899SOL    HW144325   0.083   2.711   4.185
10899SOL    HW244326   4.756   2.665   4.279
10900SOL     OW44327   2.534   0.376   7.078
10900SOL    HW144328   2.450   0.331   7.075
10900SOL    HW244329   2.516   0.458   7.122
10901SOL     OW44330   1.750   3.928  17.757
10901SOL    HW144331   1.821   3.988  17.776
10901SOL    HW244332   1.741   3.875  17.836
10902SOL     OW44333   2.605   2.327   6.932
10902SOL    HW144334   2.698   2.319   6.913
10902SOL    HW244335   2.598   2.316   7.027
10903SOL     OW44336   1.035   0.657  12.177
10903SOL    HW144337   1.044   0.593  12.107
10903SOL    HW244338   1.068   0.613  12.255
10904SOL     OW44339   4.436   2.645  12.331
10904SOL    HW144340   4.382   2.718  12.362
10904SOL    HW244341   4.380   2.568  12.337
10905SOL     OW44342   1.660   3.046   6.068
10905SOL    HW144343   1.572   3.009   6.064
10905SOL    HW244344   1.655   3.124   6.012
10906SOL     OW44345   0.472   0.637  27.472
10906SOL    HW144346   0.392   0.659  27.424
10906SOL    HW244347   0.455   0.666  27.562
10907SOL     OW44348   1.961   1.386  12.128
10907SOL    HW144349   1.993   1.388  12.218
10907SOL    HW244350   1.957   1.293  12.106
10908SOL     OW44351   2.623   2.116   4.200
10908SOL    HW144352   2.673   2.036   4.181
10908SOL    HW244353   2.687   2.174   4.241
10909SOL     OW44354   0.235   0.793   4.451
10909SOL    HW144355   0.219   0.699   4.439
10909SOL    HW244356   0.268   0.822   4.366
10910SOL     OW44357   2.706   0.338  28.337
10910SOL    HW144358   2.642   0.400  28.373
10910SOL    HW244359   2.771   0.329  28.406
10911SOL     OW44360   0.250   3.427  27.225
10911SOL    HW144361   0.283   3.437  27.135
10911SOL    HW244362   0.195   3.505  27.238
10912SOL     OW44363   2.486   2.074   6.871
10912SOL    HW144364   2.449   2.074   6.959
10912SOL    HW244365   2.537   2.155   6.866
10913SOL     OW44366   3.801   0.872   6.239
10913SOL    HW144367   3.825   0.782   6.216
10913SOL    HW244368   3.885   0.917   6.250
10914SOL     OW44369   1.178   0.842   8.621
10914SOL    HW144370   1.128   0.787   8.680
10914SOL    HW244371   1.217   0.909   8.677
10915SOL     OW44372   3.657   2.182  21.057
10915SOL    HW144373   3.607   2.106  21.029
10915SOL    HW244374   3.659   2.175  21.153
10916SOL     OW44375   1.091   3.087  23.131
10916SOL    HW144376   1.171   3.135  23.112
10916SOL    HW244377   1.021   3.144  23.102
10917SOL     OW44378   2.267   1.965   0.252
10917SOL    HW144379   2.274   2.060   0.240
10917SOL    HW244380   2.328   1.929   0.188
10918SOL     OW44381   1.397   4.640  23.458
10918SOL    HW144382   1.383   4.665  23.367
10918SOL    HW244383   1.445   4.714  23.496
10919SOL     OW44384   4.661   4.588  13.227
10919SOL    HW144385   4.722   4.537  13.282
10919SOL    HW244386   4.574   4.563  13.258
10920SOL     OW44387   0.303   4.765   1.976
10920SOL    HW144388   0.231   0.042   1.994
10920SOL    HW244389   0.280   4.685   2.024
10921SOL     OW44390   3.673   2.313   0.102
10921SOL    HW144391   3.637   2.401   0.090
10921SOL    HW244392   3.649   2.266   0.022
10922SOL     OW44393   2.519   0.582   9.915
10922SOL    HW144394   2.550   0.669   9.940
10922SOL    HW244395   2.428   0.596   9.890
10923SOL     OW44396   3.681   3.901   8.211
10923SOL    HW144397   3.743   3.963   8.248
10923SOL    HW244398   3.676   3.830   8.274
10924SOL     OW44399   4.629   3.055  27.872
10924SOL    HW144400   4.572   3.131  27.877
10924SOL    HW244401   4.574   2.985  27.837
10925SOL     OW44402   2.982   4.760   7.048
10925SOL    HW144403   3.012   4.671   7.065
10925SOL    HW244404   2.889   4.751   7.029
10926SOL     OW44405   4.449   1.220  28.513
10926SOL    HW144406   4.428   1.311  28.492
10926SOL    HW244407   4.491   1.224   0.068
10927SOL     OW44408   3.999   2.408  19.864
10927SOL    HW144409   4.075   2.356  19.840
10927SOL    HW244410   3.928   2.374  19.810
10928SOL     OW44411   3.029   4.249  10.326
10928SOL    HW144412   3.112   4.268  10.282
10928SOL    HW244413   3.023   4.153  10.325
10929SOL     OW44414   4.554   1.758  12.609
10929SOL    HW144415   4.495   1.807  12.666
10929SOL    HW244416   4.635   1.810  12.608
10930SOL     OW44417   0.639   0.323   7.886
10930SOL    HW144418   0.640   0.376   7.966
10930SOL    HW244419   0.592   0.243   7.910
10931SOL     OW44420   3.182   0.847  10.706
10931SOL    HW144421   3.144   0.844  10.619
10931SOL    HW244422   3.251   0.912  10.700
10932SOL     OW44423   1.164   0.090   9.008
10932SOL    HW144424   1.121   0.042   9.080
10932SOL    HW244425   1.169   0.026   8.937
10933SOL     OW44426   0.340   0.229   4.249
10933SOL    HW144427   0.386   0.278   4.318
10933SOL    HW244428   0.261   0.280   4.232
10934SOL     OW44429   3.538   3.019  11.901
10934SOL    HW144430   3.632   3.002  11.909
10934SOL    HW244431   3.497   2.935  11.921
10935SOL     OW44432   0.013   0.437  26.334
10935SOL    HW144433   0.070   0.507  26.305
10935SOL    HW244434   0.002   0.451  26.428
10936SOL     OW44435   1.706   3.805  27.399
10936SOL    HW144436   1.650   3.842  27.467
10936SOL    HW244437   1.683   3.712  27.398
10937SOL     OW44438   3.819   0.065   2.994
10937SOL    HW144439   3.778   0.030   2.915
10937SOL    HW244440   3.848   0.153   2.970
10938SOL     OW44441   2.359   1.028   7.081
10938SOL    HW144442   2.411   1.031   7.000
10938SOL    HW244443   2.364   1.118   7.115
10939SOL     OW44444   0.208   2.766  19.076
10939SOL    HW144445   0.130   2.749  19.128
10939SOL    HW244446   0.214   2.862  19.071
10940SOL     OW44447   3.966   1.252  11.655
10940SOL    HW144448   3.980   1.163  11.622
10940SOL    HW244449   4.023   1.307  11.602
10941SOL     OW44450   2.047   4.317  26.440
10941SOL    HW144451   2.130   4.344  26.479
10941SOL    HW244452   2.072   4.271  26.360
10942SOL     OW44453   3.959   1.163   0.314
10942SOL    HW144454   3.914   1.198   0.391
10942SOL    HW244455   4.015   1.235   0.285
10943SOL     OW44456   4.539   1.538  22.247
10943SOL    HW144457   4.563   1.570  22.160
10943SOL    HW244458   4.443   1.537  22.246
10944SOL     OW44459   3.520   4.222   4.935
10944SOL    HW144460   3.573   4.152   4.897
10944SOL    HW244461   3.550   4.227   5.026
10945SOL     OW44462   1.825   3.950  18.347
10945SOL    HW144463   1.854   3.916  18.433
10945SOL    HW244464   1.824   3.873  18.290
10946SOL     OW44465   0.543   1.011  12.020
10946SOL    HW144466   0.619   1.056  12.057
10946SOL    HW244467   0.550   0.921  12.052
10947SOL     OW44468   1.747   3.703   2.044
10947SOL    HW144469   1.716   3.687   2.133
10947SOL    HW244470   1.800   3.626   2.023
10948SOL     OW44471   1.206   0.680   3.772
10948SOL    HW144472   1.240   0.695   3.860
10948SOL    HW244473   1.114   0.658   3.785
10949SOL     OW44474   2.475   1.823   9.609
10949SOL    HW144475   2.494   1.736   9.574
10949SOL    HW244476   2.538   1.835   9.680
10950SOL     OW44477   1.474   0.323   5.004
10950SOL    HW144478   1.505   0.289   4.920
10950SOL    HW244479   1.433   0.407   4.982
10951SOL     OW44480   3.023   0.912  11.334
10951SOL    HW144481   2.989   0.946  11.416
10951SOL    HW244482   2.998   0.977  11.268
10952SOL     OW44483   1.452   3.184   2.526
10952SOL    HW144484   1.528   3.228   2.487
10952SOL    HW244485   1.377   3.220   2.478
10953SOL     OW44486   0.838   3.916   2.546
10953SOL    HW144487   0.933   3.909   2.557
10953SOL    HW244488   0.823   3.890   2.455
10954SOL     OW44489   4.522   1.827   0.217
10954SOL    HW144490   4.467   1.856   0.144
10954SOL    HW244491   4.590   1.774   0.177
10955SOL     OW44492   1.660   1.435  11.236
10955SOL    HW144493   1.721   1.366  11.211
10955SOL    HW244494   1.707   1.516  11.219
10956SOL     OW44495   1.642   0.542  28.307
10956SOL    HW144496   1.684   0.568  28.225
10956SOL    HW244497   1.563   0.496  28.280
10957SOL     OW44498   1.706   2.056   7.340
10957SOL    HW144499   1.693   2.024   7.430
10957SOL    HW244500   1.761   2.134   7.351
10958SOL     OW44501   3.867   3.566  27.922
10958SOL    HW144502   3.916   3.484  27.922
10958SOL    HW244503   3.846   3.583  27.830
10959SOL     OW44504   0.362   3.693  25.578
10959SOL    HW144505   0.408   3.651  25.506
10959SOL    HW244506   0.269   3.686  25.554
10960SOL     OW44507   4.342   2.091  10.006
10960SOL    HW144508   4.381   2.004   9.996
10960SOL    HW244509   4.263   2.076  10.058
10961SOL     OW44510   3.021   3.550  23.763
10961SOL    HW144511   3.024   3.457  23.740
10961SOL    HW244512   3.108   3.582  23.742
10962SOL     OW44513   1.390   4.100  26.592
10962SOL    HW144514   1.385   4.136  26.681
10962SOL    HW244515   1.344   4.164  26.538
10963SOL     OW44516   2.120   1.717   9.090
10963SOL    HW144517   2.172   1.781   9.041
10963SOL    HW244518   2.174   1.638   9.091
10964SOL     OW44519   2.389   0.965   7.996
10964SOL    HW144520   2.454   0.907   8.036
10964SOL    HW244521   2.437   1.046   7.978
10965SOL     OW44522   1.879   4.336  28.201
10965SOL    HW144523   1.790   4.348  28.167
10965SOL    HW244524   1.935   4.385  28.141
10966SOL     OW44525   4.769   2.298  17.972
10966SOL    HW144526   0.011   2.379  18.017
10966SOL    HW244527   0.027   2.229  18.024
10967SOL     OW44528   1.379   3.155  19.164
10967SOL    HW144529   1.299   3.131  19.116
10967SOL    HW244530   1.350   3.166  19.254
10968SOL     OW44531   3.744   0.414   4.434
10968SOL    HW144532   3.799   0.354   4.383
10968SOL    HW244533   3.667   0.429   4.379
10969SOL     OW44534   3.841   0.952  24.621
10969SOL    HW144535   3.794   0.870  24.641
10969SOL    HW244536   3.927   0.923  24.592
10970SOL     OW44537   1.678   1.034   3.198
10970SOL    HW144538   1.631   0.969   3.252
10970SOL    HW244539   1.617   1.107   3.191
10971SOL     OW44540   2.153   4.478   5.085
10971SOL    HW144541   2.142   4.506   4.994
10971SOL    HW244542   2.193   4.553   5.129
10972SOL     OW44543   3.075   1.549  18.744
10972SOL    HW144544   3.091   1.463  18.705
10972SOL    HW244545   3.113   1.542  18.832
10973SOL     OW44546   1.865   1.489  27.936
10973SOL    HW144547   1.817   1.440  28.003
10973SOL    HW244548   1.925   1.545  27.986
10974SOL     OW44549   2.142   3.789  24.589
10974SOL    HW144550   2.060   3.829  24.558
10974SOL    HW244551   2.208   3.857  24.574
10975SOL     OW44552   3.215   3.378  12.519
10975SOL    HW144553   3.164   3.436  12.576
10975SOL    HW244554   3.216   3.294  12.564
10976SOL     OW44555   4.083   0.041  12.878
10976SOL    HW144556   4.066   4.729  12.870
10976SOL    HW244557   4.005   0.075  12.922
10977SOL     OW44558   4.678   4.268  12.408
10977SOL    HW144559   4.612   4.240  12.345
10977SOL    HW244560   4.638   4.345  12.450
10978SOL     OW44561   2.084   2.262  11.868
10978SOL    HW144562   2.018   2.193  11.860
10978SOL    HW244563   2.077   2.292  11.959
10979SOL     OW44564   2.598   2.524  12.176
10979SOL    HW144565   2.685   2.489  12.196
10979SOL    HW244566   2.576   2.578  12.252
10980SOL     OW44567   4.686   1.361  13.180
10980SOL    HW144568   4.726   1.369  13.267
10980SOL    HW244569   4.754   1.392  13.120
10981SOL     OW44570   2.918   2.338   1.982
10981SOL    HW144571   2.824   2.321   1.979
10981SOL    HW244572   2.929   2.397   2.057
10982SOL     OW44573   0.236   4.645  12.402
10982SOL    HW144574   0.227   4.552  12.384
10982SOL    HW244575   0.188   4.659  12.484
10983SOL     OW44576   3.461   1.798  11.514
10983SOL    HW144577   3.543   1.844  11.497
10983SOL    HW244578   3.489   1.710  11.541
10984SOL     OW44579   0.867   2.119  12.980
10984SOL    HW144580   0.847   2.085  13.067
10984SOL    HW244581   0.879   2.213  12.993
10985SOL     OW44582   3.270   1.381  11.633
10985SOL    HW144583   3.317   1.307  11.674
10985SOL    HW244584   3.204   1.339  11.577
10986SOL     OW44585   3.894   2.137  11.393
10986SOL    HW144586   3.850   2.221  11.407
10986SOL    HW244587   3.947   2.124  11.471
10987SOL     OW44588   4.268   0.237  12.949
10987SOL    HW144589   4.201   0.174  12.922
10987SOL    HW244590   4.223   0.322  12.950
10988SOL     OW44591   1.119   1.225  12.326
10988SOL    HW144592   1.108   1.130  12.332
10988SOL    HW244593   1.214   1.237  12.322
10989SOL     OW44594   4.103   4.779  23.583
10989SOL    HW144595   4.162   0.015  23.511
10989SOL    HW244596   4.023   4.748  23.541
10990SOL     OW44597   3.114   1.203  11.441
10990SOL    HW144598   3.060   1.148  11.499
10990SOL    HW244599   3.090   1.173  11.353
10991SOL     OW44600   0.711   4.158   3.093
10991SOL    HW144601   0.768   4.201   3.029
10991SOL    HW244602   0.672   4.229   3.143
10992SOL     OW44603   4.427   0.807  13.107
10992SOL    HW144604   4.447   0.869  13.038
10992SOL    HW244605   4.511   0.791  13.151
10993SOL     OW44606   2.215   4.740  12.744
10993SOL    HW144607   2.163   4.779  12.674
10993SOL    HW244608   2.162   4.751  12.823
10994SOL     OW44609   0.070   1.421  12.958
10994SOL    HW144610   0.128   1.425  12.882
10994SOL    HW244611   0.127   1.440  13.032
10995SOL     OW44612   4.301   0.969  11.348
10995SOL    HW144613   4.263   1.055  11.369
10995SOL    HW244614   4.380   0.989  11.297
10996SOL     OW44615   4.568   0.455  12.673
10996SOL    HW144616   4.638   0.436  12.736
10996SOL    HW244617   4.498   0.394  12.696
10997SOL     OW44618   4.544   0.584   6.732
10997SOL    HW144619   4.470   0.554   6.784
10997SOL    HW244620   4.571   0.508   6.681
10998SOL     OW44621   1.046   2.559  21.396
10998SOL    HW144622   1.092   2.475  21.399
10998SOL    HW244623   1.112   2.621  21.364
10999SOL     OW44624   0.348   0.630  12.427
10999SOL    HW144625   0.358   0.670  12.513
10999SOL    HW244626   0.391   0.545  12.434
11000SOL     OW44627   0.611   3.792  22.688
11000SOL    HW144628   0.612   3.705  22.727
11000SOL    HW244629   0.684   3.838  22.730
11001SOL     OW44630   3.000   3.453  13.092
11001SOL    HW144631   2.973   3.529  13.041
11001SOL    HW244632   2.957   3.379  13.048
11002SOL     OW44633   4.552   4.147  12.161
11002SOL    HW144634   4.484   4.160  12.095
11002SOL    HW244635   4.631   4.126  12.112
11003SOL     OW44636   3.838   2.100  11.893
11003SOL    HW144637   3.839   2.016  11.939
11003SOL    HW244638   3.898   2.155  11.944
11004SOL     OW44639   4.102   3.488   5.723
11004SOL    HW144640   4.139   3.457   5.806
11004SOL    HW244641   4.159   3.560   5.697
11005SOL     OW44642   3.819   1.088  11.932
11005SOL    HW144643   3.793   1.099  12.024
11005SOL    HW244644   3.794   0.999  11.911
11006SOL     OW44645   3.355   1.028  10.366
11006SOL    HW144646   3.442   0.994  10.388
11006SOL    HW244647   3.340   0.998  10.276
11007SOL     OW44648   0.136   2.287   1.388
11007SOL    HW144649   0.089   2.204   1.394
11007SOL    HW244650   0.178   2.297   1.473
11008SOL     OW44651   3.041   0.890  12.158
11008SOL    HW144652   2.973   0.909  12.224
11008SOL    HW244653   2.996   0.836  12.093
11009SOL     OW44654   4.343   2.680  13.256
11009SOL    HW144655   4.386   2.765  13.245
11009SOL    HW244656   4.303   2.684  13.343
11010SOL     OW44657   1.110   0.780  12.511
11010SOL    HW144658   1.123   0.697  12.466
11010SOL    HW244659   1.109   0.845  12.440
11011SOL     OW44660   4.550   0.851  12.565
11011SOL    HW144661   4.505   0.772  12.598
11011SOL    HW244662   4.488   0.922  12.582
11012SOL     OW44663   3.772   2.332  13.294
11012SOL    HW144664   3.823   2.297  13.221
11012SOL    HW244665   3.740   2.254  13.340
11013SOL     OW44666   4.260   0.275  12.151
11013SOL    HW144667   4.304   0.312  12.228
11013SOL    HW244668   4.292   0.327  12.077
11014SOL     OW44669   3.323   3.071   5.101
11014SOL    HW144670   3.325   3.094   5.194
11014SOL    HW244671   3.289   3.149   5.058
11015SOL     OW44672   4.516   2.457  13.206
11015SOL    HW144673   4.591   2.514  13.190
11015SOL    HW244674   4.447   2.515  13.237
11016SOL     OW44675   3.984   4.146  11.903
11016SOL    HW144676   3.894   4.145  11.936
11016SOL    HW244677   4.020   4.229  11.935
11017SOL     OW44678   3.813   4.386  13.765
11017SOL    HW144679   3.747   4.339  13.816
11017SOL    HW244680   3.793   4.478  13.778
11018SOL     OW44681   0.935   2.955  13.616
11018SOL    HW144682   0.944   3.050  13.624
11018SOL    HW244683   0.863   2.932  13.675
11019SOL     OW44684   3.444   0.682  26.101
11019SOL    HW144685   3.425   0.591  26.078
11019SOL    HW244686   3.378   0.704  26.166
11020SOL     OW44687   4.591   2.281  12.747
11020SOL    HW144688   4.674   2.330  12.746
11020SOL    HW244689   4.524   2.347  12.734
11021SOL     OW44690   3.535   4.608  11.337
11021SOL    HW144691   3.474   4.645  11.401
11021SOL    HW244692   3.622   4.635  11.368
11022SOL     OW44693   0.195   0.081  13.438
11022SOL    HW144694   0.139   0.155  13.415
11022SOL    HW244695   0.259   0.077  13.367
11023SOL     OW44696   1.272   2.439  12.906
11023SOL    HW144697   1.204   2.483  12.956
11023SOL    HW244698   1.262   2.346  12.928
11024SOL     OW44699   4.575   0.730  12.201
11024SOL    HW144700   4.507   0.699  12.261
11024SOL    HW244701   4.656   0.725  12.253
11025SOL     OW44702   4.361   4.443  12.931
11025SOL    HW144703   4.453   4.434  12.955
11025SOL    HW244704   4.344   4.537  12.935
11026SOL     OW44705   2.920   1.351  12.695
11026SOL    HW144706   2.990   1.416  12.706
11026SOL    HW244707   2.936   1.287  12.764
11027SOL     OW44708   3.943   0.473   6.280
11027SOL    HW144709   3.926   0.429   6.363
11027SOL    HW244710   3.946   0.403   6.216
11028SOL     OW44711   4.474   0.955  12.882
11028SOL    HW144712   4.425   1.006  12.818
11028SOL    HW244713   4.543   0.912  12.831
11029SOL     OW44714   3.721   0.609  12.814
11029SOL    HW144715   3.653   0.546  12.837
11029SOL    HW244716   3.803   0.561  12.823
11030SOL     OW44717   4.293   1.637  13.550
11030SOL    HW144718   4.359   1.674  13.491
11030SOL    HW244719   4.251   1.712  13.590
11031SOL     OW44720   3.790   1.297  12.606
11031SOL    HW144721   3.830   1.220  12.565
11031SOL    HW244722   3.785   1.276  12.699
11032SOL     OW44723   1.550   2.641  13.838
11032SOL    HW144724   1.483   2.587  13.881
11032SOL    HW244725   1.627   2.584  13.833
11033SOL     OW44726   3.629   2.109  13.410
11033SOL    HW144727   3.563   2.043  13.435
11033SOL    HW244728   3.623   2.113  13.315
11034SOL     OW44729   3.218   2.742  12.695
11034SOL    HW144730   3.185   2.655  12.673
11034SOL    HW244731   3.149   2.802  12.667
11035SOL     OW44732   3.000   1.805  12.714
11035SOL    HW144733   2.939   1.872  12.743
11035SOL    HW244734   2.986   1.798  12.620
11036SOL     OW44735   2.873   0.696  12.018
11036SOL    HW144736   2.838   0.691  11.929
11036SOL    HW244737   2.924   0.616  12.029
11037SOL     OW44738   2.798   1.028   2.476
11037SOL    HW144739   2.778   1.081   2.553
11037SOL    HW244740   2.712   1.010   2.437
11038SOL     OW44741   4.556   1.786   3.368
11038SOL    HW144742   4.632   1.740   3.404
11038SOL    HW244743   4.493   1.717   3.349
11039SOL     OW44744   0.404   2.135  10.867
11039SOL    HW144745   0.359   2.196  10.925
11039SOL    HW244746   0.375   2.159  10.779
11040SOL     OW44747   4.755   4.500  27.520
11040SOL    HW144748   4.676   4.449  27.540
11040SOL    HW244749   4.777   4.543  27.603
11041SOL     OW44750   4.154   1.041  10.894
11041SOL    HW144751   4.109   1.060  10.976
11041SOL    HW244752   4.247   1.051  10.915
11042SOL     OW44753   4.476   0.022  13.167
11042SOL    HW144754   4.505   0.111  13.148
11042SOL    HW244755   4.557   4.755  13.178
11043SOL     OW44756   4.219   1.396  13.029
11043SOL    HW144757   4.281   1.458  12.989
11043SOL    HW244758   4.275   1.335  13.078
11044SOL     OW44759   0.351   1.514  13.503
11044SOL    HW144760   0.350   1.418  13.496
11044SOL    HW244761   0.326   1.531  13.594
11045SOL     OW44762   0.468   3.643   3.143
11045SOL    HW144763   0.505   3.627   3.230
11045SOL    HW244764   0.540   3.680   3.092
11046SOL     OW44765   0.181   2.496  12.314
11046SOL    HW144766   0.253   2.524  12.371
11046SOL    HW244767   0.125   2.443  12.371
11047SOL     OW44768   1.097   0.924  12.289
11047SOL    HW144769   1.154   0.860  12.246
11047SOL    HW244770   1.009   0.900  12.260
11048SOL     OW44771   4.532   0.834  13.997
11048SOL    HW144772   4.587   0.767  14.037
11048SOL    HW244773   4.553   0.915  14.044
11049SOL     OW44774   4.399   0.812  14.620
11049SOL    HW144775   4.372   0.760  14.545
11049SOL    HW244776   4.410   0.749  14.691
11050SOL     OW44777   3.761   2.126  15.327
11050SOL    HW144778   3.690   2.163  15.274
11050SOL    HW244779   3.718   2.088  15.403
11051SOL     OW44780   4.087   0.656  15.142
11051SOL    HW144781   4.105   0.685  15.231
11051SOL    HW244782   4.173   0.643  15.102
11052SOL     OW44783   0.092   0.555  12.509
11052SOL    HW144784   0.175   0.571  12.463
11052SOL    HW244785   0.106   0.473  12.556
11053SOL     OW44786   3.602   2.383  12.680
11053SOL    HW144787   3.639   2.457  12.727
11053SOL    HW244788   3.518   2.367  12.723
11054SOL     OW44789   3.786   1.901  13.113
11054SOL    HW144790   3.698   1.939  13.110
11054SOL    HW244791   3.798   1.861  13.027
11055SOL     OW44792   0.400   0.085  13.249
11055SOL    HW144793   0.466   0.141  13.288
11055SOL    HW244794   0.447   0.005  13.227
11056SOL     OW44795   4.686   2.040  12.886
11056SOL    HW144796   4.646   2.106  12.830
11056SOL    HW244797   4.736   1.985  12.826
11057SOL     OW44798   4.199   1.352  13.808
11057SOL    HW144799   4.162   1.287  13.868
11057SOL    HW244800   4.281   1.313  13.777
11058SOL     OW44801   3.734   1.467  13.854
11058SOL    HW144802   3.665   1.403  13.833
11058SOL    HW244803   3.788   1.469  13.775
11059SOL     OW44804   0.168   1.750  13.879
11059SOL    HW144805   0.099   1.815  13.886
11059SOL    HW244806   0.244   1.800  13.847
11060SOL     OW44807   0.533   0.758  14.056
11060SOL    HW144808   0.604   0.699  14.029
11060SOL    HW244809   0.477   0.704  14.112
11061SOL     OW44810   0.076   0.935  13.747
11061SOL    HW144811   0.121   0.861  13.789
11061SOL    HW244812   0.142   0.973  13.689
11062SOL     OW44813   0.135   1.557  13.688
11062SOL    HW144814   0.158   1.586  13.776
11062SOL    HW244815   0.054   1.603  13.667
11063SOL     OW44816   4.689   1.524  13.473
11063SOL    HW144817   4.701   1.594  13.537
11063SOL    HW244818   4.594   1.511  13.470
11064SOL     OW44819   4.743   1.401  16.021
11064SOL    HW144820   0.018   1.476  16.038
11064SOL    HW244821   0.019   1.334  15.984
11065SOL     OW44822   2.412   4.661  12.418
11065SOL    HW144823   2.327   4.700  12.441
11065SOL    HW244824   2.468   4.736  12.398
11066SOL     OW44825   3.887   1.352  14.078
11066SOL    HW144826   3.840   1.397  14.008
11066SOL    HW244827   3.974   1.334  14.041
11067SOL     OW44828   3.813   3.987  12.259
11067SOL    HW144829   3.861   3.924  12.312
11067SOL    HW244830   3.728   3.947  12.245
11068SOL     OW44831   0.380   4.594  15.113
11068SOL    HW144832   0.355   4.506  15.087
11068SOL    HW244833   0.369   4.647  15.034
11069SOL     OW44834   0.163   4.586  13.566
11069SOL    HW144835   0.248   4.558  13.601
11069SOL    HW244836   0.184   4.661  13.511
11070SOL     OW44837   0.134   1.267  13.689
11070SOL    HW144838   0.126   1.361  13.700
11070SOL    HW244839   0.124   1.231  13.777
11071SOL     OW44840   0.846   0.735  13.879
11071SOL    HW144841   0.843   0.815  13.931
11071SOL    HW244842   0.813   0.667  13.937
11072SOL     OW44843   3.389   2.978  12.928
11072SOL    HW144844   3.422   3.012  12.844
11072SOL    HW244845   3.331   3.047  12.960
11073SOL     OW44846   4.742   1.936  13.789
11073SOL    HW144847   0.000   2.017  13.818
11073SOL    HW244848   4.676   1.964  13.724
11074SOL     OW44849   4.386   0.186  13.959
11074SOL    HW144850   4.338   0.255  14.006
11074SOL    HW244851   4.319   0.141  13.907
11075SOL     OW44852   0.569   1.356  16.302
11075SOL    HW144853   0.576   1.308  16.385
11075SOL    HW244854   0.543   1.444  16.327
11076SOL     OW44855   0.108   0.621  13.247
11076SOL    HW144856   0.062   0.616  13.331
11076SOL    HW244857   0.038   0.625  13.181
11077SOL     OW44858   4.198   4.360  11.908
11077SOL    HW144859   4.171   4.372  11.817
11077SOL    HW244860   4.294   4.364  11.905
11078SOL     OW44861   4.295   0.688  13.954
11078SOL    HW144862   4.368   0.746  13.973
11078SOL    HW244863   4.263   0.660  14.040
11079SOL     OW44864   0.600   1.930  14.460
11079SOL    HW144865   0.606   1.838  14.433
11079SOL    HW244866   0.650   1.935  14.541
11080SOL     OW44867   0.900   0.156  13.804
11080SOL    HW144868   0.832   0.223  13.806
11080SOL    HW244869   0.920   0.139  13.896
11081SOL     OW44870   4.291   0.392  14.098
11081SOL    HW144871   4.263   0.464  14.155
11081SOL    HW244872   4.361   0.430  14.045
11082SOL     OW44873   3.850   1.008  14.260
11082SOL    HW144874   3.782   0.974  14.202
11082SOL    HW244875   3.860   0.941  14.328
11083SOL     OW44876   0.438   0.574  14.238
11083SOL    HW144877   0.471   0.536  14.319
11083SOL    HW244878   0.402   0.499  14.189
11084SOL     OW44879   3.754   1.255  14.282
11084SOL    HW144880   3.794   1.294  14.204
11084SOL    HW244881   3.788   1.165  14.283
11085SOL     OW44882   0.050   4.415  13.349
11085SOL    HW144883   0.104   4.423  13.427
11085SOL    HW244884   0.001   4.334  13.361
11086SOL     OW44885   0.210   0.171  13.688
11086SOL    HW144886   0.128   0.222  13.691
11086SOL    HW244887   0.213   0.138  13.598
11087SOL     OW44888   3.970   2.249  14.141
11087SOL    HW144889   3.901   2.261  14.206
11087SOL    HW244890   4.026   2.326  14.151
11088SOL     OW44891   0.851   2.338  17.490
11088SOL    HW144892   0.847   2.246  17.516
11088SOL    HW244893   0.944   2.354  17.472
11089SOL     OW44894   2.959   0.444  14.705
11089SOL    HW144895   2.977   0.361  14.661
11089SOL    HW244896   3.028   0.502  14.675
11090SOL     OW44897   0.945   0.096  14.058
11090SOL    HW144898   0.920   0.004  14.068
11090SOL    HW244899   0.939   0.132  14.147
11091SOL     OW44900   4.420   2.311  14.279
11091SOL    HW144901   4.493   2.294  14.338
11091SOL    HW244902   4.456   2.368  14.212
11092SOL     OW44903   0.246   1.448  14.289
11092SOL    HW144904   0.276   1.490  14.209
11092SOL    HW244905   0.212   1.520  14.343
11093SOL     OW44906   0.832   1.594  14.837
11093SOL    HW144907   0.858   1.508  14.804
11093SOL    HW244908   0.914   1.642  14.846
11094SOL     OW44909   4.744   1.247  13.485
11094SOL    HW144910   0.025   1.251  13.557
11094SOL    HW244911   4.709   1.336  13.480
11095SOL     OW44912   0.291   1.559  14.029
11095SOL    HW144913   0.252   1.633  13.981
11095SOL    HW244914   0.297   1.489  13.964
11096SOL     OW44915   1.393   0.365  12.317
11096SOL    HW144916   1.325   0.324  12.262
11096SOL    HW244917   1.435   0.429  12.259
11097SOL     OW44918   0.785   1.582  14.054
11097SOL    HW144919   0.808   1.654  14.113
11097SOL    HW244920   0.690   1.572  14.065
11098SOL     OW44921   4.486   0.455  13.513
11098SOL    HW144922   4.393   0.468  13.495
11098SOL    HW244923   4.490   0.432  13.606
11099SOL     OW44924   0.864   0.252  13.541
11099SOL    HW144925   0.932   0.318  13.526
11099SOL    HW244926   0.896   0.201  13.616
11100SOL     OW44927   4.328   1.219  13.341
11100SOL    HW144928   4.365   1.194  13.257
11100SOL    HW244929   4.392   1.280  13.378
11101SOL     OW44930   0.591   1.235  14.461
11101SOL    HW144931   0.680   1.222  14.493
11101SOL    HW244932   0.539   1.251  14.540
11102SOL     OW44933   3.102   1.558  12.768
11102SOL    HW144934   3.068   1.641  12.734
11102SOL    HW244935   3.161   1.583  12.839
11103SOL     OW44936   0.377   4.524  13.317
11103SOL    HW144937   0.461   4.565  13.295
11103SOL    HW244938   0.386   4.500  13.410
11104SOL     OW44939   4.152   1.437  13.458
11104SOL    HW144940   4.229   1.383  13.437
11104SOL    HW244941   4.189   1.523  13.478
11105SOL     OW44942   4.451   1.634  13.814
11105SOL    HW144943   4.369   1.665  13.776
11105SOL    HW244944   4.426   1.601  13.901
11106SOL     OW44945   4.681   4.123  14.025
11106SOL    HW144946   4.711   4.032  14.023
11106SOL    HW244947   4.733   4.167  13.959
11107SOL     OW44948   4.497   0.357  13.773
11107SOL    HW144949   4.519   0.425  13.837
11107SOL    HW244950   4.451   0.290  13.824
11108SOL     OW44951   3.775   1.182  16.341
11108SOL    HW144952   3.732   1.174  16.426
11108SOL    HW244953   3.705   1.209  16.281
11109SOL     OW44954   0.394   0.853  15.012
11109SOL    HW144955   0.470   0.797  14.995
11109SOL    HW244956   0.324   0.813  14.961
11110SOL     OW44957   4.777   2.293  16.364
11110SOL    HW144958   4.780   2.385  16.338
11110SOL    HW244959   4.742   2.248  16.287
11111SOL     OW44960   4.576   3.806  15.595
11111SOL    HW144961   4.531   3.885  15.626
11111SOL    HW244962   4.656   3.839  15.554
11112SOL     OW44963   3.778   2.113  16.456
11112SOL    HW144964   3.710   2.108  16.389
11112SOL    HW244965   3.829   2.033  16.444
11113SOL     OW44966   0.245   1.888  15.347
11113SOL    HW144967   0.251   1.894  15.252
11113SOL    HW244968   0.281   1.802  15.368
11114SOL     OW44969   1.325   1.289  15.490
11114SOL    HW144970   1.249   1.263  15.542
11114SOL    HW244971   1.300   1.374  15.452
11115SOL     OW44972   3.817   2.073  14.535
11115SOL    HW144973   3.901   2.030  14.525
11115SOL    HW244974   3.793   2.101  14.447
11116SOL     OW44975   1.246   3.358  15.463
11116SOL    HW144976   1.159   3.330  15.491
11116SOL    HW244977   1.229   3.417  15.389
11117SOL     OW44978   3.502   0.626  15.095
11117SOL    HW144979   3.423   0.585  15.059
11117SOL    HW244980   3.514   0.705  15.042
11118SOL     OW44981   0.983   4.496  15.285
11118SOL    HW144982   0.947   4.567  15.232
11118SOL    HW244983   0.926   4.421  15.266
11119SOL     OW44984   0.125   1.028  15.226
11119SOL    HW144985   0.051   1.087  15.235
11119SOL    HW244986   0.098   0.966  15.158
11120SOL     OW44987   1.172   2.343  15.141
11120SOL    HW144988   1.087   2.309  15.170
11120SOL    HW244989   1.225   2.345  15.221
11121SOL     OW44990   4.603   1.004  14.612
11121SOL    HW144991   4.564   1.069  14.670
11121SOL    HW244992   4.549   0.926  14.623
11122SOL     OW44993   3.985   0.912  18.374
11122SOL    HW144994   3.904   0.929  18.325
11122SOL    HW244995   4.040   0.862  18.314
11123SOL     OW44996   0.298   1.114  14.985
11123SOL    HW144997   0.300   1.031  14.937
11123SOL    HW244998   0.364   1.103  15.053
11124SOL     OW44999   0.621   4.534  15.273
11124SOL    HW145000   0.683   4.577  15.215
11124SOL    HW245001   0.536   4.546  15.231
11125SOL     OW45002   0.973   1.280  15.370
11125SOL    HW145003   0.939   1.353  15.319
11125SOL    HW245004   0.895   1.244  15.414
11126SOL     OW45005   4.695   0.311  16.396
11126SOL    HW145006   4.622   0.364  16.366
11126SOL    HW245007   4.709   0.338  16.486
11127SOL     OW45008   4.740   1.893  16.351
11127SOL    HW145009   4.737   1.847  16.267
11127SOL    HW245010   4.698   1.977  16.334
11128SOL     OW45011   4.279   4.669  15.920
11128SOL    HW145012   4.277   4.578  15.891
11128SOL    HW245013   4.371   4.685  15.943
11129SOL     OW45014   1.073   1.681  14.889
11129SOL    HW145015   1.092   1.621  14.962
11129SOL    HW245016   1.124   1.760  14.909
11130SOL     OW45017   3.734   2.157  16.041
11130SOL    HW145018   3.706   2.128  15.955
11130SOL    HW245019   3.725   2.252  16.039
11131SOL     OW45020   0.395   1.606  15.464
11131SOL    HW145021   0.404   1.657  15.383
11131SOL    HW245022   0.482   1.569  15.478
11132SOL     OW45023   0.480   0.264  15.280
11132SOL    HW145024   0.417   0.263  15.208
11132SOL    HW245025   0.472   0.352  15.317
11133SOL     OW45026   0.137   0.789  15.714
11133SOL    HW145027   0.087   0.711  15.691
11133SOL    HW245028   0.169   0.823  15.631
11134SOL     OW45029   0.025   1.678  16.522
11134SOL    HW145030   0.052   1.647  16.436
11134SOL    HW245031   4.771   1.765  16.507
11135SOL     OW45032   0.568   1.186  16.091
11135SOL    HW145033   0.659   1.164  16.070
11135SOL    HW245034   0.573   1.230  16.176
11136SOL     OW45035   4.676   1.650  16.990
11136SOL    HW145036   4.691   1.556  16.985
11136SOL    HW245037   4.724   1.686  16.916
11137SOL     OW45038   0.536   0.040  15.440
11137SOL    HW145039   0.456   4.771  15.434
11137SOL    HW245040   0.524   0.111  15.376
11138SOL     OW45041   0.321   1.215  15.577
11138SOL    HW145042   0.333   1.290  15.635
11138SOL    HW245043   0.226   1.209  15.564
11139SOL     OW45044   3.120   0.570  16.133
11139SOL    HW145045   3.088   0.600  16.047
11139SOL    HW245046   3.194   0.628  16.151
11140SOL     OW45047   0.162   0.762  13.974
11140SOL    HW145048   0.188   0.853  13.989
11140SOL    HW245049   0.139   0.729  14.061
11141SOL     OW45050   0.657   1.561  15.457
11141SOL    HW145051   0.668   1.648  15.419
11141SOL    HW245052   0.706   1.503  15.398
11142SOL     OW45053   0.182   1.334  14.912
11142SOL    HW145054   0.211   1.257  14.961
11142SOL    HW245055   0.167   1.302  14.823
11143SOL     OW45056   3.968   1.434  13.668
11143SOL    HW145057   4.014   1.424  13.585
11143SOL    HW245058   4.036   1.422  13.735
11144SOL     OW45059   0.554   1.231  15.821
11144SOL    HW145060   0.527   1.153  15.771
11144SOL    HW245061   0.539   1.206  15.912
11145SOL     OW45062   0.072   4.334  16.789
11145SOL    HW145063   0.078   4.323  16.694
11145SOL    HW245064   4.767   4.371  16.803
11146SOL     OW45065   0.024   0.601  13.733
11146SOL    HW145066   4.736   0.659  13.763
11146SOL    HW245067   0.103   0.634  13.776
11147SOL     OW45068   4.549   4.011  15.848
11147SOL    HW145069   4.510   4.046  15.768
11147SOL    HW245070   4.607   4.082  15.878
11148SOL     OW45071   0.751   1.193  15.492
11148SOL    HW145072   0.724   1.164  15.579
11148SOL    HW245073   0.675   1.177  15.437
11149SOL     OW45074   4.000   4.260  14.835
11149SOL    HW145075   4.005   4.250  14.740
11149SOL    HW245076   3.956   4.345  14.847
11150SOL     OW45077   0.908   1.762  15.174
11150SOL    HW145078   0.905   1.807  15.258
11150SOL    HW245079   0.856   1.817  15.115
11151SOL     OW45080   1.215   1.516  15.403
11151SOL    HW145081   1.133   1.539  15.447
11151SOL    HW245082   1.207   1.555  15.316
11152SOL     OW45083   0.541   2.824  16.782
11152SOL    HW145084   0.569   2.914  16.798
11152SOL    HW245085   0.572   2.805  16.693
11153SOL     OW45086   0.434   0.161  15.948
11153SOL    HW145087   0.480   0.101  15.890
11153SOL    HW245088   0.402   0.230  15.890
11154SOL     OW45089   3.180   2.137  16.362
11154SOL    HW145090   3.264   2.096  16.383
11154SOL    HW245091   3.189   2.227  16.393
11155SOL     OW45092   4.459   0.633  17.146
11155SOL    HW145093   4.386   0.571  17.146
11155SOL    HW245094   4.490   0.633  17.055
11156SOL     OW45095   4.090   2.358  25.907
11156SOL    HW145096   4.150   2.348  25.833
11156SOL    HW245097   4.089   2.272  25.949
11157SOL     OW45098   3.408   0.651  14.720
11157SOL    HW145099   3.413   0.747  14.716
11157SOL    HW245100   3.498   0.622  14.712
11158SOL     OW45101   4.582   0.738  13.735
11158SOL    HW145102   4.500   0.719  13.690
11158SOL    HW245103   4.557   0.795  13.808
11159SOL     OW45104   4.478   1.440  15.922
11159SOL    HW145105   4.564   1.402  15.941
11159SOL    HW245106   4.494   1.535  15.920
11160SOL     OW45107   0.843   2.147  14.042
11160SOL    HW145108   0.898   2.072  14.017
11160SOL    HW245109   0.783   2.112  14.107
11161SOL     OW45110   3.517   1.621  15.599
11161SOL    HW145111   3.475   1.594  15.518
11161SOL    HW245112   3.600   1.659  15.572
11162SOL     OW45113   4.740   1.790  14.594
11162SOL    HW145114   4.697   1.821  14.514
11162SOL    HW245115   0.025   1.730  14.562
11163SOL     OW45116   4.436   0.266  16.028
11163SOL    HW145117   4.372   0.196  16.041
11163SOL    HW245118   4.510   0.223  15.984
11164SOL     OW45119   4.277   2.081  14.967
11164SOL    HW145120   4.239   2.165  14.993
11164SOL    HW245121   4.260   2.075  14.873
11165SOL     OW45122   3.799   0.952  15.959
11165SOL    HW145123   3.741   1.027  15.969
11165SOL    HW245124   3.785   0.923  15.869
11166SOL     OW45125   0.277   0.446  14.816
11166SOL    HW145126   0.191   0.405  14.806
11166SOL    HW245127   0.333   0.400  14.754
11167SOL     OW45128   4.282   1.545  15.740
11167SOL    HW145129   4.357   1.507  15.786
11167SOL    HW245130   4.318   1.573  15.656
11168SOL     OW45131   0.134   0.150  14.812
11168SOL    HW145132   0.058   0.206  14.830
11168SOL    HW245133   0.117   0.114  14.725
11169SOL     OW45134   0.836   1.228  14.590
11169SOL    HW145135   0.885   1.294  14.541
11169SOL    HW245136   0.839   1.259  14.681
11170SOL     OW45137   0.697   4.496  16.122
11170SOL    HW145138   0.656   4.509  16.036
11170SOL    HW245139   0.716   4.403  16.126
11171SOL     OW45140   4.181   2.340  15.066
11171SOL    HW145141   4.200   2.431  15.091
11171SOL    HW245142   4.107   2.315  15.122
11172SOL     OW45143   4.481   0.726  15.154
11172SOL    HW145144   4.407   0.685  15.111
11172SOL    HW245145   4.498   0.805  15.103
11173SOL     OW45146   4.046   1.767  16.688
11173SOL    HW145147   4.073   1.681  16.657
11173SOL    HW245148   3.999   1.806  16.614
11174SOL     OW45149   1.211   2.489  14.890
11174SOL    HW145150   1.292   2.452  14.855
11174SOL    HW245151   1.194   2.439  14.970
11175SOL     OW45152   4.643   0.251  15.813
11175SOL    HW145153   4.656   0.278  15.722
11175SOL    HW245154   4.671   0.160  15.815
11176SOL     OW45155   0.124   1.574  16.281
11176SOL    HW145156   0.114   1.623  16.199
11176SOL    HW245157   0.202   1.521  16.267
11177SOL     OW45158   0.317   0.252  16.192
11177SOL    HW145159   0.290   0.330  16.143
11177SOL    HW245160   0.350   0.286  16.275
11178SOL     OW45161   3.447   2.055  16.472
11178SOL    HW145162   3.513   2.045  16.403
11178SOL    HW245163   3.463   1.982  16.532
11179SOL     OW45164   4.570   0.865  14.929
11179SOL    HW145165   4.568   0.921  14.851
11179SOL    HW245166   4.522   0.787  14.904
11180SOL     OW45167   1.086   1.270  15.633
11180SOL    HW145168   1.030   1.306  15.564
11180SOL    HW245169   1.025   1.230  15.695
11181SOL     OW45170   4.694   2.273  14.338
11181SOL    HW145171   4.695   2.364  14.369
11181SOL    HW245172   4.673   2.280  14.245
11182SOL     OW45173   1.916   4.360  14.192
11182SOL    HW145174   1.883   4.377  14.281
11182SOL    HW245175   1.850   4.398  14.135
11183SOL     OW45176   3.858   4.491  15.233
11183SOL    HW145177   3.860   4.491  15.137
11183SOL    HW245178   3.913   4.565  15.258
11184SOL     OW45179   3.772   2.362  15.021
11184SOL    HW145180   3.830   2.324  15.088
11184SOL    HW245181   3.687   2.322  15.038
11185SOL     OW45182   0.791   3.705  15.750
11185SOL    HW145183   0.709   3.695  15.796
11185SOL    HW245184   0.767   3.706  15.657
11186SOL     OW45185   1.386   4.315  15.107
11186SOL    HW145186   1.321   4.316  15.177
11186SOL    HW245187   1.448   4.246  15.132
11187SOL     OW45188   0.957   2.323  14.870
11187SOL    HW145189   0.981   2.414  14.851
11187SOL    HW245190   0.990   2.273  14.795
11188SOL     OW45191   4.028   4.547  24.398
11188SOL    HW145192   4.073   4.485  24.340
11188SOL    HW245193   3.992   4.613  24.339
11189SOL     OW45194   2.165   0.492  15.311
11189SOL    HW145195   2.242   0.497  15.254
11189SOL    HW245196   2.096   0.455  15.256
11190SOL     OW45197   1.577   1.795   4.837
11190SOL    HW145198   1.660   1.837   4.859
11190SOL    HW245199   1.547   1.756   4.919
11191SOL     OW45200   2.499   3.253  18.226
11191SOL    HW145201   2.460   3.320  18.170
11191SOL    HW245202   2.584   3.235  18.186
11192SOL     OW45203   0.494   3.675  15.727
11192SOL    HW145204   0.479   3.659  15.634
11192SOL    HW245205   0.426   3.738  15.752
11193SOL     OW45206   3.260   2.104  23.955
11193SOL    HW145207   3.177   2.151  23.945
11193SOL    HW245208   3.250   2.026  23.901
11194SOL     OW45209   4.311   3.336  18.437
11194SOL    HW145210   4.349   3.249  18.423
11194SOL    HW245211   4.289   3.367  18.350
11195SOL     OW45212   3.704   3.656  24.775
11195SOL    HW145213   3.684   3.749  24.790
11195SOL    HW245214   3.681   3.642  24.684
11196SOL     OW45215   2.493   4.431  24.162
11196SOL    HW145216   2.461   4.341  24.171
11196SOL    HW245217   2.589   4.422  24.161
11197SOL     OW45218   0.311   4.035  27.126
11197SOL    HW145219   0.297   4.096  27.054
11197SOL    HW245220   0.224   4.000  27.146
11198SOL     OW45221   1.564   2.236  16.106
11198SOL    HW145222   1.607   2.160  16.067
11198SOL    HW245223   1.486   2.250  16.053
11199SOL     OW45224   4.203   3.209  17.820
11199SOL    HW145225   4.184   3.165  17.903
11199SOL    HW245226   4.217   3.301  17.844
11200SOL     OW45227   1.032   3.599  16.272
11200SOL    HW145228   1.021   3.683  16.229
11200SOL    HW245229   0.991   3.536  16.213
11201SOL     OW45230   1.489   3.553  18.481
11201SOL    HW145231   1.534   3.618  18.535
11201SOL    HW245232   1.430   3.508  18.541
11202SOL     OW45233   0.846   0.055  15.776
11202SOL    HW145234   0.900   0.045  15.854
11202SOL    HW245235   0.901   0.024  15.704
11203SOL     OW45236   2.388   3.699  20.196
11203SOL    HW145237   2.373   3.692  20.101
11203SOL    HW245238   2.435   3.618  20.218
11204SOL     OW45239   3.774   4.308   2.151
11204SOL    HW145240   3.776   4.330   2.058
11204SOL    HW245241   3.681   4.304   2.173
11205SOL     OW45242   3.606   2.071  16.254
11205SOL    HW145243   3.670   2.078  16.182
11205SOL    HW245244   3.538   2.133  16.232
11206SOL     OW45245   4.262   0.787  16.158
11206SOL    HW145246   4.227   0.876  16.164
11206SOL    HW245247   4.318   0.788  16.081
11207SOL     OW45248   0.720   1.793  17.102
11207SOL    HW145249   0.784   1.767  17.036
11207SOL    HW245250   0.761   1.867  17.148
11208SOL     OW45251   4.413   3.623  21.311
11208SOL    HW145252   4.459   3.615  21.227
11208SOL    HW245253   4.465   3.570  21.372
11209SOL     OW45254   0.403   3.271   8.106
11209SOL    HW145255   0.415   3.179   8.082
11209SOL    HW245256   0.393   3.270   8.202
11210SOL     OW45257   0.747   2.643   5.677
11210SOL    HW145258   0.821   2.583   5.677
11210SOL    HW245259   0.676   2.595   5.721
11211SOL     OW45260   3.508   3.684  18.973
11211SOL    HW145261   3.558   3.631  18.912
11211SOL    HW245262   3.533   3.774  18.953
11212SOL     OW45263   4.281   3.860  17.278
11212SOL    HW145264   4.192   3.891  17.259
11212SOL    HW245265   4.328   3.868  17.195
11213SOL     OW45266   0.041   4.561  15.315
11213SOL    HW145267   4.738   4.574  15.273
11213SOL    HW245268   0.057   4.467  15.309
11214SOL     OW45269   3.975   1.189  20.502
11214SOL    HW145270   3.979   1.271  20.452
11214SOL    HW245271   4.038   1.132  20.459
11215SOL     OW45272   3.637   2.420  15.979
11215SOL    HW145273   3.650   2.461  16.064
11215SOL    HW245274   3.605   2.491  15.923
11216SOL     OW45275   4.731   0.018  17.174
11216SOL    HW145276   4.663   4.744  17.211
11216SOL    HW245277   4.755   4.758  17.092
11217SOL     OW45278   3.851   3.972  21.871
11217SOL    HW145279   3.936   3.932  21.889
11217SOL    HW245280   3.796   3.944  21.944
11218SOL     OW45281   3.157   1.279  18.677
11218SOL    HW145282   3.117   1.283  18.763
11218SOL    HW245283   3.158   1.186  18.655
11219SOL     OW45284   1.886   0.885  22.321
11219SOL    HW145285   1.856   0.812  22.375
11219SOL    HW245286   1.851   0.868  22.234
11220SOL     OW45287   4.672   2.266  16.079
11220SOL    HW145288   4.763   2.269  16.049
11220SOL    HW245289   4.626   2.327  16.021
11221SOL     OW45290   0.822   4.696  17.477
11221SOL    HW145291   0.886   4.650  17.532
11221SOL    HW245292   0.787   4.765  17.533
11222SOL     OW45293   4.260   1.607  16.884
11222SOL    HW145294   4.198   1.535  16.886
11222SOL    HW245295   4.287   1.613  16.792
11223SOL     OW45296   4.306   3.291   8.411
11223SOL    HW145297   4.272   3.227   8.349
11223SOL    HW245298   4.228   3.330   8.451
11224SOL     OW45299   3.621   3.041  23.828
11224SOL    HW145300   3.636   3.107  23.895
11224SOL    HW245301   3.528   3.018  23.837
11225SOL     OW45302   0.252   0.414  24.088
11225SOL    HW145303   0.251   0.334  24.035
11225SOL    HW245304   0.286   0.386  24.173
11226SOL     OW45305   4.110   3.948   4.751
11226SOL    HW145306   4.172   3.895   4.702
11226SOL    HW245307   4.027   3.903   4.742
11227SOL     OW45308   0.690   1.016   1.040
11227SOL    HW145309   0.682   0.921   1.037
11227SOL    HW245310   0.778   1.035   1.008
11228SOL     OW45311   0.033   1.200  15.598
11228SOL    HW145312   4.780   1.117  15.565
11228SOL    HW245313   0.020   1.261  15.525
11229SOL     OW45314   3.138   1.438  19.390
11229SOL    HW145315   3.214   1.491  19.413
11229SOL    HW245316   3.105   1.405  19.474
11230SOL     OW45317   4.745   4.757  16.890
11230SOL    HW145318   4.696   0.055  16.872
11230SOL    HW245319   4.744   4.708  16.808
11231SOL     OW45320   1.311   4.062  16.617
11231SOL    HW145321   1.292   3.968  16.613
11231SOL    HW245322   1.381   4.075  16.553
11232SOL     OW45323   0.332   1.447  22.140
11232SOL    HW145324   0.389   1.389  22.190
11232SOL    HW245325   0.391   1.499  22.086
11233SOL     OW45326   1.560   1.206  20.001
11233SOL    HW145327   1.470   1.216  20.032
11233SOL    HW245328   1.566   1.263  19.925
11234SOL     OW45329   4.155   1.686  18.866
11234SOL    HW145330   4.246   1.691  18.896
11234SOL    HW245331   4.107   1.742  18.926
11235SOL     OW45332   3.443   4.276  17.655
11235SOL    HW145333   3.534   4.301  17.637
11235SOL    HW245334   3.410   4.242  17.572
11236SOL     OW45335   4.762   0.535   8.851
11236SOL    HW145336   4.680   0.581   8.870
11236SOL    HW245337   0.041   0.604   8.825
11237SOL     OW45338   3.390   3.471   6.831
11237SOL    HW145339   3.464   3.434   6.783
11237SOL    HW245340   3.355   3.539   6.773
11238SOL     OW45341   1.837   1.791  10.754
11238SOL    HW145342   1.851   1.848  10.830
11238SOL    HW245343   1.800   1.711  10.791
11239SOL     OW45344   3.887   0.644   4.576
11239SOL    HW145345   3.878   0.552   4.552
11239SOL    HW245346   3.800   0.668   4.609
11240SOL     OW45347   3.986   3.258  18.365
11240SOL    HW145348   3.999   3.350  18.343
11240SOL    HW245349   4.058   3.213  18.322
11241SOL     OW45350   3.035   3.992   0.905
11241SOL    HW145351   3.033   4.002   1.000
11241SOL    HW245352   3.046   4.082   0.872
11242SOL     OW45353   3.387   3.378  21.996
11242SOL    HW145354   3.403   3.298  21.947
11242SOL    HW245355   3.460   3.435  21.974
11243SOL     OW45356   1.108   4.445  11.528
11243SOL    HW145357   1.117   4.527  11.577
11243SOL    HW245358   1.191   4.400  11.542
11244SOL     OW45359   2.443   2.494   2.349
11244SOL    HW145360   2.473   2.584   2.362
11244SOL    HW245361   2.517   2.440   2.376
11245SOL     OW45362   0.888   1.481  26.097
11245SOL    HW145363   0.868   1.512  26.008
11245SOL    HW245364   0.983   1.480  26.101
11246SOL     OW45365   0.456   1.926  19.818
11246SOL    HW145366   0.449   2.005  19.764
11246SOL    HW245367   0.396   1.864  19.777
11247SOL     OW45368   2.299   3.509   6.435
11247SOL    HW145369   2.216   3.464   6.454
11247SOL    HW245370   2.273   3.595   6.405
11248SOL     OW45371   0.391   3.681  17.476
11248SOL    HW145372   0.426   3.625  17.406
11248SOL    HW245373   0.441   3.762  17.468
11249SOL     OW45374   4.707   1.489  17.883
11249SOL    HW145375   4.643   1.456  17.820
11249SOL    HW245376   4.754   1.412  17.914
11250SOL     OW45377   2.249   4.219  15.642
11250SOL    HW145378   2.333   4.227  15.597
11250SOL    HW245379   2.184   4.230  15.573
11251SOL     OW45380   3.596   0.430  26.036
11251SOL    HW145381   3.627   0.503  25.983
11251SOL    HW245382   3.671   0.371  26.040
11252SOL     OW45383   4.175   3.352  18.675
11252SOL    HW145384   4.117   3.278  18.687
11252SOL    HW245385   4.208   3.344  18.586
11253SOL     OW45386   0.181   4.687  17.030
11253SOL    HW145387   0.158   4.598  17.056
11253SOL    HW245388   0.113   4.712  16.968
11254SOL     OW45389   0.405   4.041   0.444
11254SOL    HW145390   0.408   4.033   0.539
11254SOL    HW245391   0.365   4.127   0.428
11255SOL     OW45392   1.019   3.856  16.171
11255SOL    HW145393   1.111   3.877  16.186
11255SOL    HW245394   0.986   3.927  16.116
11256SOL     OW45395   4.294   4.717  17.410
11256SOL    HW145396   4.378   4.692  17.447
11256SOL    HW245397   4.246   4.635  17.402
11257SOL     OW45398   4.172   3.481  17.488
11257SOL    HW145399   4.190   3.566  17.527
11257SOL    HW245400   4.219   3.482  17.404
11258SOL     OW45401   2.498   1.151   9.039
11258SOL    HW145402   2.510   1.153   9.134
11258SOL    HW245403   2.554   1.080   9.008
11259SOL     OW45404   2.298   4.280  15.906
11259SOL    HW145405   2.262   4.272  15.817
11259SOL    HW245406   2.248   4.350  15.946
11260SOL     OW45407   1.168   3.705  28.029
11260SOL    HW145408   1.191   3.649  27.955
11260SOL    HW245409   1.241   3.766  28.037
11261SOL     OW45410   3.680   4.371  17.239
11261SOL    HW145411   3.749   4.329  17.291
11261SOL    HW245412   3.646   4.299  17.185
11262SOL     OW45413   0.253   3.563   1.375
11262SOL    HW145414   0.159   3.573   1.390
11262SOL    HW245415   0.278   3.488   1.428
11263SOL     OW45416   4.781   4.678  17.965
11263SOL    HW145417   0.017   4.626  18.042
11263SOL    HW245418   4.690   4.707  17.976
11264SOL     OW45419   0.252   3.913  27.506
11264SOL    HW145420   0.324   3.965  27.471
11264SOL    HW245421   0.225   3.959  27.585
11265SOL     OW45422   2.645   2.574  23.006
11265SOL    HW145423   2.630   2.524  23.086
11265SOL    HW245424   2.644   2.666  23.034
11266SOL     OW45425   0.102   2.931  27.448
11266SOL    HW145426   0.144   2.883  27.376
11266SOL    HW245427   0.075   2.862  27.509
11267SOL     OW45428   1.370   4.277  16.770
11267SOL    HW145429   1.362   4.246  16.860
11267SOL    HW245430   1.326   4.210  16.717
11268SOL     OW45431   3.689   1.311   4.434
11268SOL    HW145432   3.778   1.347   4.438
11268SOL    HW245433   3.655   1.322   4.522
11269SOL     OW45434   0.305   0.168  20.586
11269SOL    HW145435   0.368   0.191  20.655
11269SOL    HW245436   0.358   0.130  20.516
11270SOL     OW45437   4.579   2.083  16.258
11270SOL    HW145438   4.503   2.119  16.303
11270SOL    HW245439   4.596   2.144  16.186
11271SOL     OW45440   3.159   3.647   4.251
11271SOL    HW145441   3.170   3.566   4.300
11271SOL    HW245442   3.085   3.630   4.193
11272SOL     OW45443   0.102   0.875  16.087
11272SOL    HW145444   0.050   0.926  16.025
11272SOL    HW245445   0.174   0.839  16.035
11273SOL     OW45446   3.849   1.188  21.381
11273SOL    HW145447   3.900   1.132  21.439
11273SOL    HW245448   3.786   1.232  21.439
11274SOL     OW45449   4.361   2.476  21.598
11274SOL    HW145450   4.375   2.382  21.603
11274SOL    HW245451   4.270   2.488  21.624
11275SOL     OW45452   0.008   0.715   2.149
11275SOL    HW145453   0.066   0.639   2.159
11275SOL    HW245454   4.763   0.735   2.239
11276SOL     OW45455   0.892   3.536  26.319
11276SOL    HW145456   0.802   3.521  26.347
11276SOL    HW245457   0.896   3.499  26.231
11277SOL     OW45458   0.516   3.731   4.535
11277SOL    HW145459   0.519   3.692   4.622
11277SOL    HW245460   0.436   3.696   4.496
11278SOL     OW45461   4.177   0.087  16.054
11278SOL    HW145462   4.206   0.007  16.010
11278SOL    HW245463   4.089   0.103  16.020
11279SOL     OW45464   3.473   4.520  26.345
11279SOL    HW145465   3.378   4.516  26.356
11279SOL    HW245466   3.487   4.595  26.287
11280SOL     OW45467   1.931   3.731   2.921
11280SOL    HW145468   1.850   3.718   2.970
11280SOL    HW245469   1.909   3.799   2.857
11281SOL     OW45470   0.460   0.535  17.197
11281SOL    HW145471   0.424   0.606  17.251
11281SOL    HW245472   0.429   0.554  17.108
11282SOL     OW45473   2.304   1.931  23.754
11282SOL    HW145474   2.235   1.965  23.697
11282SOL    HW245475   2.266   1.854  23.795
11283SOL     OW45476   2.873   0.350  23.433
11283SOL    HW145477   2.929   0.424  23.408
11283SOL    HW245478   2.934   0.284  23.465
11284SOL     OW45479   0.847   3.588  23.758
11284SOL    HW145480   0.822   3.635  23.838
11284SOL    HW245481   0.850   3.655  23.690
11285SOL     OW45482   2.796   4.079  16.360
11285SOL    HW145483   2.713   4.047  16.324
11285SOL    HW245484   2.863   4.047  16.299
11286SOL     OW45485   0.254   1.335  18.566
11286SOL    HW145486   0.322   1.342  18.499
11286SOL    HW245487   0.241   1.425  18.596
11287SOL     OW45488   4.164   1.657   5.830
11287SOL    HW145489   4.243   1.611   5.802
11287SOL    HW245490   4.117   1.594   5.885
11288SOL     OW45491   0.480   3.901  24.939
11288SOL    HW145492   0.551   3.945  24.891
11288SOL    HW245493   0.512   3.812  24.952
11289SOL     OW45494   2.517   0.215   3.154
11289SOL    HW145495   2.473   0.162   3.220
11289SOL    HW245496   2.543   0.294   3.200
11290SOL     OW45497   1.171   3.147   2.576
11290SOL    HW145498   1.106   3.079   2.559
11290SOL    HW245499   1.254   3.100   2.583
11291SOL     OW45500   3.772   2.335   4.427
11291SOL    HW145501   3.794   2.243   4.416
11291SOL    HW245502   3.807   2.378   4.349
11292SOL     OW45503   1.250   4.154  26.929
11292SOL    HW145504   1.167   4.132  26.885
11292SOL    HW245505   1.275   4.239  26.891
11293SOL     OW45506   4.344   3.873  23.038
11293SOL    HW145507   4.414   3.815  23.068
11293SOL    HW245508   4.289   3.818  22.982
11294SOL     OW45509   1.475   1.485  19.989
11294SOL    HW145510   1.398   1.435  20.017
11294SOL    HW245511   1.462   1.497  19.895
11295SOL     OW45512   2.897   0.230   3.890
11295SOL    HW145513   2.906   0.307   3.834
11295SOL    HW245514   2.934   0.158   3.838
11296SOL     OW45515   0.066   1.494  22.011
11296SOL    HW145516   0.147   1.484  22.061
11296SOL    HW245517   0.096   1.524  21.925
11297SOL     OW45518   4.497   0.253  22.284
11297SOL    HW145519   4.562   0.295  22.227
11297SOL    HW245520   4.476   0.171  22.240
11298SOL     OW45521   1.552   3.835   8.437
11298SOL    HW145522   1.576   3.879   8.355
11298SOL    HW245523   1.461   3.808   8.424
11299SOL     OW45524   4.537   2.844  22.829
11299SOL    HW145525   4.603   2.812  22.767
11299SOL    HW245526   4.453   2.823  22.788
11300SOL     OW45527   4.540   0.026  27.341
11300SOL    HW145528   4.511   0.077  27.417
11300SOL    HW245529   4.464   4.753  27.320
11301SOL     OW45530   4.325   0.007   7.684
11301SOL    HW145531   4.393   4.722   7.680
11301SOL    HW245532   4.372   0.089   7.670
11302SOL     OW45533   1.757   1.362  17.887
11302SOL    HW145534   1.801   1.377  17.803
11302SOL    HW245535   1.797   1.426  17.946
11303SOL     OW45536   0.015   4.547   5.983
11303SOL    HW145537   4.704   4.537   5.966
11303SOL    HW245538   0.019   4.587   6.070
11304SOL     OW45539   0.135   0.060  10.119
11304SOL    HW145540   0.217   0.050  10.168
11304SOL    HW245541   0.068   0.027  10.179
11305SOL     OW45542   1.976   2.387  26.923
11305SOL    HW145543   1.986   2.439  27.003
11305SOL    HW245544   1.897   2.336  26.937
11306SOL     OW45545   3.078   4.678  10.961
11306SOL    HW145546   3.090   4.637  11.046
11306SOL    HW245547   3.148   4.642  10.906
11307SOL     OW45548   1.189   3.556  16.970
11307SOL    HW145549   1.144   3.607  16.903
11307SOL    HW245550   1.250   3.501  16.922
11308SOL     OW45551   0.795   1.380  22.878
11308SOL    HW145552   0.784   1.418  22.791
11308SOL    HW245553   0.851   1.441  22.924
11309SOL     OW45554   4.544   3.339   2.995
11309SOL    HW145555   4.451   3.337   3.017
11309SOL    HW245556   4.567   3.248   2.977
11310SOL     OW45557   4.353   3.939  17.626
11310SOL    HW145558   4.337   3.855  17.585
11310SOL    HW245559   4.439   3.931  17.666
11311SOL     OW45560   4.707   2.187   2.174
11311SOL    HW145561   4.704   2.244   2.097
11311SOL    HW245562   4.674   2.241   2.245
11312SOL     OW45563   2.656   3.587   9.394
11312SOL    HW145564   2.575   3.543   9.421
11312SOL    HW245565   2.696   3.618   9.475
11313SOL     OW45566   4.564   1.677   6.182
11313SOL    HW145567   4.543   1.654   6.272
11313SOL    HW245568   4.557   1.772   6.179
11314SOL     OW45569   3.540   2.835  21.850
11314SOL    HW145570   3.468   2.898  21.839
11314SOL    HW245571   3.597   2.874  21.916
11315SOL     OW45572   0.020   2.389  20.193
11315SOL    HW145573   0.001   2.298  20.170
11315SOL    HW245574   4.719   2.424  20.225
11316SOL     OW45575   4.016   3.156  21.930
11316SOL    HW145576   4.099   3.108  21.922
11316SOL    HW245577   4.028   3.234  21.877
11317SOL     OW45578   0.809   2.774   5.954
11317SOL    HW145579   0.770   2.814   5.877
11317SOL    HW245580   0.894   2.815   5.962
11318SOL     OW45581   3.240   3.529   1.797
11318SOL    HW145582   3.264   3.565   1.883
11318SOL    HW245583   3.238   3.604   1.739
11319SOL     OW45584   2.986   0.716   1.222
11319SOL    HW145585   2.933   0.732   1.144
11319SOL    HW245586   3.022   0.802   1.245
11320SOL     OW45587   0.201   1.584  10.818
11320SOL    HW145588   0.142   1.635  10.873
11320SOL    HW245589   0.258   1.649  10.777
11321SOL     OW45590   2.852   4.333   3.819
11321SOL    HW145591   2.861   4.392   3.894
11321SOL    HW245592   2.805   4.385   3.753
11322SOL     OW45593   3.623   4.609   2.885
11322SOL    HW145594   3.587   4.697   2.896
11322SOL    HW245595   3.653   4.606   2.795
11323SOL     OW45596   2.949   4.384   1.077
11323SOL    HW145597   3.007   4.313   1.105
11323SOL    HW245598   3.008   4.449   1.040
11324SOL     OW45599   4.255   2.384  20.338
11324SOL    HW145600   4.222   2.294  20.339
11324SOL    HW245601   4.350   2.374  20.325
11325SOL     OW45602   0.568   1.774  20.230
11325SOL    HW145603   0.500   1.815  20.284
11325SOL    HW245604   0.616   1.717  20.291
11326SOL     OW45605   0.681   4.340   8.081
11326SOL    HW145606   0.648   4.298   8.160
11326SOL    HW245607   0.705   4.268   8.023
11327SOL     OW45608   0.721   2.615  20.901
11327SOL    HW145609   0.628   2.627  20.883
11327SOL    HW245610   0.765   2.686  20.853
11328SOL     OW45611   3.697   4.256   0.530
11328SOL    HW145612   3.624   4.302   0.489
11328SOL    HW245613   3.769   4.265   0.469
11329SOL     OW45614   2.629   1.361   4.790
11329SOL    HW145615   2.690   1.428   4.759
11329SOL    HW245616   2.619   1.302   4.716
11330SOL     OW45617   3.464   0.388  24.940
11330SOL    HW145618   3.433   0.348  25.021
11330SOL    HW245619   3.418   0.340  24.871
11331SOL     OW45620   1.770   1.004  25.086
11331SOL    HW145621   1.836   0.990  25.019
11331SOL    HW245622   1.819   1.005  25.168
11332SOL     OW45623   2.111   3.606  18.808
11332SOL    HW145624   2.169   3.571  18.876
11332SOL    HW245625   2.154   3.686  18.779
11333SOL     OW45626   2.990   2.023  26.136
11333SOL    HW145627   3.024   1.938  26.163
11333SOL    HW245628   2.895   2.015  26.147
11334SOL     OW45629   1.746   0.828   1.480
11334SOL    HW145630   1.700   0.748   1.508
11334SOL    HW245631   1.779   0.806   1.393
11335SOL     OW45632   3.403   2.498  24.860
11335SOL    HW145633   3.332   2.437  24.841
11335SOL    HW245634   3.363   2.585  24.849
11336SOL     OW45635   3.645   1.129   0.268
11336SOL    HW145636   3.630   1.035   0.257
11336SOL    HW245637   3.681   1.137   0.356
11337SOL     OW45638   1.497   0.048  27.764
11337SOL    HW145639   1.589   0.067  27.744
11337SOL    HW245640   1.500   4.756  27.823
11338SOL     OW45641   1.715   3.871  18.020
11338SOL    HW145642   1.744   3.816  18.093
11338SOL    HW245643   1.620   3.873  18.028
11339SOL     OW45644   4.664   1.875  23.246
11339SOL    HW145645   4.681   1.968  23.264
11339SOL    HW245646   4.724   1.853  23.175
11340SOL     OW45647   3.934   4.329  20.300
11340SOL    HW145648   3.945   4.338  20.206
11340SOL    HW245649   3.966   4.411  20.337
11341SOL     OW45650   2.167   1.179  27.171
11341SOL    HW145651   2.078   1.144  27.163
11341SOL    HW245652   2.156   1.274  27.165
11342SOL     OW45653   2.180   0.476  21.878
11342SOL    HW145654   2.251   0.536  21.853
11342SOL    HW245655   2.106   0.534  21.897
11343SOL     OW45656   0.486   3.476  27.888
11343SOL    HW145657   0.407   3.529  27.898
11343SOL    HW245658   0.548   3.513  27.951
11344SOL     OW45659   2.833   0.331  26.188
11344SOL    HW145660   2.756   0.277  26.172
11344SOL    HW245661   2.902   0.293  26.134
11345SOL     OW45662   2.085   0.972  15.548
11345SOL    HW145663   2.098   0.878  15.550
11345SOL    HW245664   2.129   1.001  15.469
11346SOL     OW45665   0.716   3.960   5.328
11346SOL    HW145666   0.653   4.030   5.344
11346SOL    HW245667   0.743   3.973   5.237
11347SOL     OW45668   3.947   3.745   5.361
11347SOL    HW145669   4.020   3.705   5.314
11347SOL    HW245670   3.933   3.688   5.437
11348SOL     OW45671   3.320   0.483  23.275
11348SOL    HW145672   3.391   0.534  23.237
11348SOL    HW245673   3.362   0.402  23.305
11349SOL     OW45674   1.601   1.440  16.941
11349SOL    HW145675   1.613   1.517  16.887
11349SOL    HW245676   1.610   1.366  16.881
11350SOL     OW45677   3.646   0.122  16.731
11350SOL    HW145678   3.669   0.150  16.819
11350SOL    HW245679   3.616   0.202  16.687
11351SOL     OW45680   0.162   0.187  11.074
11351SOL    HW145681   0.189   0.164  11.163
11351SOL    HW245682   0.141   0.280  11.079
11352SOL     OW45683   4.399   2.222  15.863
11352SOL    HW145684   4.307   2.218  15.837
11352SOL    HW245685   4.444   2.260  15.788
11353SOL     OW45686   1.618   0.471   3.842
11353SOL    HW145687   1.607   0.563   3.865
11353SOL    HW245688   1.686   0.440   3.902
11354SOL     OW45689   3.969   1.387  11.396
11354SOL    HW145690   3.972   1.471  11.349
11354SOL    HW245691   3.884   1.386  11.438
11355SOL     OW45692   2.171   2.708   7.747
11355SOL    HW145693   2.109   2.781   7.750
11355SOL    HW245694   2.257   2.750   7.748
11356SOL     OW45695   2.904   0.866  17.355
11356SOL    HW145696   2.890   0.782  17.310
11356SOL    HW245697   2.994   0.862  17.386
11357SOL     OW45698   3.534   0.035  25.851
11357SOL    HW145699   3.607   0.088  25.822
11357SOL    HW245700   3.512   4.762  25.776
11358SOL     OW45701   4.500   1.271   1.124
11358SOL    HW145702   4.585   1.315   1.121
11358SOL    HW245703   4.471   1.268   1.033
11359SOL     OW45704   3.040   4.741  10.429
11359SOL    HW145705   3.030   4.647  10.443
11359SOL    HW245706   3.068   4.775  10.514
11360SOL     OW45707   3.387   2.724  25.595
11360SOL    HW145708   3.475   2.710  25.562
11360SOL    HW245709   3.395   2.801  25.651
11361SOL     OW45710   0.757   1.824  22.854
11361SOL    HW145711   0.680   1.783  22.814
11361SOL    HW245712   0.731   1.840  22.945
11362SOL     OW45713   2.295   4.698  27.016
11362SOL    HW145714   2.201   4.716  27.019
11362SOL    HW245715   2.335   0.001  26.997
11363SOL     OW45716   2.205   4.485  16.663
11363SOL    HW145717   2.197   4.548  16.735
11363SOL    HW245718   2.296   4.457  16.667
11364SOL     OW45719   1.784   3.041   3.803
11364SOL    HW145720   1.818   3.130   3.797
11364SOL    HW245721   1.697   3.045   3.762
11365SOL     OW45722   3.119   3.968   5.919
11365SOL    HW145723   3.112   3.999   5.828
11365SOL    HW245724   3.198   3.914   5.919
11366SOL     OW45725   1.363   4.498   0.648
11366SOL    HW145726   1.297   4.514   0.581
11366SOL    HW245727   1.322   4.435   0.707
11367SOL     OW45728   4.400   0.925  16.960
11367SOL    HW145729   4.473   0.870  16.934
11367SOL    HW245730   4.322   0.877  16.932
11368SOL     OW45731   0.107   2.209   8.932
11368SOL    HW145732   0.195   2.216   8.895
11368SOL    HW245733   0.117   2.239   9.023
11369SOL     OW45734   3.167   2.719  21.749
11369SOL    HW145735   3.111   2.713  21.672
11369SOL    HW245736   3.254   2.738  21.715
11370SOL     OW45737   4.042   1.782   0.076
11370SOL    HW145738   3.982   1.856   0.084
11370SOL    HW245739   4.105   1.794   0.147
11371SOL     OW45740   3.207   4.177  16.341
11371SOL    HW145741   3.139   4.236  16.374
11371SOL    HW245742   3.158   4.107  16.298
11372SOL     OW45743   0.428   2.335   3.977
11372SOL    HW145744   0.453   2.272   3.909
11372SOL    HW245745   0.428   2.283   4.058
11373SOL     OW45746   3.385   1.366  28.216
11373SOL    HW145747   3.415   1.296  28.158
11373SOL    HW245748   3.449   1.436  28.204
11374SOL     OW45749   1.277   3.521  10.191
11374SOL    HW145750   1.317   3.606  10.172
11374SOL    HW245751   1.317   3.461  10.127
11375SOL     OW45752   1.597   2.719  17.981
11375SOL    HW145753   1.592   2.624  17.995
11375SOL    HW245754   1.589   2.757  18.068
11376SOL     OW45755   2.697   1.161  19.172
11376SOL    HW145756   2.763   1.098  19.143
11376SOL    HW245757   2.697   1.229  19.104
11377SOL     OW45758   0.642   0.301  20.504
11377SOL    HW145759   0.615   0.390  20.482
11377SOL    HW245760   0.620   0.292  20.597
11378SOL     OW45761   3.855   1.254  20.906
11378SOL    HW145762   3.829   1.225  20.994
11378SOL    HW245763   3.926   1.194  20.882
11379SOL     OW45764   3.778   2.014  18.496
11379SOL    HW145765   3.702   2.055  18.454
11379SOL    HW245766   3.848   2.021  18.431
11380SOL     OW45767   1.356   0.718  16.634
11380SOL    HW145768   1.296   0.792  16.622
11380SOL    HW245769   1.438   0.748  16.595
11381SOL     OW45770   3.803   2.470  25.771
11381SOL    HW145771   3.865   2.425  25.828
11381SOL    HW245772   3.836   2.456  25.683
11382SOL     OW45773   4.359   0.005   1.726
11382SOL    HW145774   4.436   0.057   1.751
11382SOL    HW245775   4.380   4.752   1.640
11383SOL     OW45776   2.485   0.294  18.261
11383SOL    HW145777   2.474   0.208  18.222
11383SOL    HW245778   2.473   0.355  18.188
11384SOL     OW45779   2.043   1.714   2.714
11384SOL    HW145780   2.039   1.751   2.626
11384SOL    HW245781   2.074   1.624   2.700
11385SOL     OW45782   4.089   2.309  23.956
11385SOL    HW145783   4.113   2.382  24.013
11385SOL    HW245784   4.095   2.231  24.011
11386SOL     OW45785   0.135   4.726  17.345
11386SOL    HW145786   0.070   4.755  17.281
11386SOL    HW245787   0.095   4.652  17.389
11387SOL     OW45788   2.147   4.754  23.855
11387SOL    HW145789   2.156   4.713  23.768
11387SOL    HW245790   2.053   4.762  23.868
11388SOL     OW45791   3.823   1.128  22.464
11388SOL    HW145792   3.906   1.106  22.506
11388SOL    HW245793   3.758   1.117  22.534
11389SOL     OW45794   2.176   4.728  25.186
11389SOL    HW145795   2.098   4.767  25.226
11389SOL    HW245796   2.142   4.653  25.137
11390SOL     OW45797   2.160   2.087  26.263
11390SOL    HW145798   2.246   2.077  26.304
11390SOL    HW245799   2.177   2.075  26.170
11391SOL     OW45800   1.968   2.898  20.217
11391SOL    HW145801   2.004   2.873  20.302
11391SOL    HW245802   1.912   2.974  20.235
11392SOL     OW45803   2.297   1.027  22.706
11392SOL    HW145804   2.305   1.119  22.681
11392SOL    HW245805   2.369   1.012  22.766
11393SOL     OW45806   2.868   1.536  28.081
11393SOL    HW145807   2.866   1.458  28.137
11393SOL    HW245808   2.792   1.526  28.024
11394SOL     OW45809   0.064   2.499  21.726
11394SOL    HW145810   0.145   2.517  21.773
11394SOL    HW245811   0.026   2.424  21.771
11395SOL     OW45812   2.706   0.451  22.749
11395SOL    HW145813   2.632   0.418  22.801
11395SOL    HW245814   2.685   0.426  22.659
11396SOL     OW45815   0.112   0.129   1.515
11396SOL    HW145816   0.154   0.192   1.573
11396SOL    HW245817   0.128   0.162   1.427
11397SOL     OW45818   1.179   4.101   3.252
11397SOL    HW145819   1.184   4.185   3.207
11397SOL    HW245820   1.150   4.122   3.340
11398SOL     OW45821   2.725   1.566  22.801
11398SOL    HW145822   2.810   1.609  22.809
11398SOL    HW245823   2.700   1.543  22.890
11399SOL     OW45824   3.546   1.917  27.642
11399SOL    HW145825   3.593   1.869  27.574
11399SOL    HW245826   3.612   1.932  27.710
11400SOL     OW45827   0.645   2.083  20.983
11400SOL    HW145828   0.552   2.069  20.965
11400SOL    HW245829   0.665   2.167  20.941
11401SOL     OW45830   3.893   0.334  26.591
11401SOL    HW145831   3.878   0.428  26.578
11401SOL    HW245832   3.897   0.324  26.686
11402SOL     OW45833   1.742   0.733  20.558
11402SOL    HW145834   1.673   0.798  20.571
11402SOL    HW245835   1.764   0.704  20.647
11403SOL     OW45836   2.497   0.739   7.734
11403SOL    HW145837   2.497   0.728   7.829
11403SOL    HW245838   2.460   0.827   7.721
11404SOL     OW45839   3.062   1.639  21.310
11404SOL    HW145840   2.971   1.665  21.294
11404SOL    HW245841   3.108   1.665  21.230
11405SOL     OW45842   4.765   0.754  23.698
11405SOL    HW145843   0.015   0.678  23.745
11405SOL    HW245844   4.692   0.787  23.752
11406SOL     OW45845   0.612   0.622  20.416
11406SOL    HW145846   0.637   0.608  20.325
11406SOL    HW245847   0.660   0.700  20.443
11407SOL     OW45848   0.292   1.163  12.083
11407SOL    HW145849   0.343   1.087  12.055
11407SOL    HW245850   0.357   1.223  12.119
11408SOL     OW45851   3.191   1.514  24.403
11408SOL    HW145852   3.187   1.427  24.364
11408SOL    HW245853   3.240   1.567  24.340
11409SOL     OW45854   1.874   1.295   6.255
11409SOL    HW145855   1.901   1.204   6.240
11409SOL    HW245856   1.779   1.294   6.249
11410SOL     OW45857   4.557   3.501   8.404
11410SOL    HW145858   4.530   3.409   8.400
11410SOL    HW245859   4.550   3.532   8.314
11411SOL     OW45860   3.645   2.024   0.927
11411SOL    HW145861   3.561   1.986   0.955
11411SOL    HW245862   3.620   2.089   0.860
11412SOL     OW45863   1.857   2.571   4.158
11412SOL    HW145864   1.947   2.598   4.175
11412SOL    HW245865   1.864   2.479   4.133
11413SOL     OW45866   4.742   0.713  22.607
11413SOL    HW145867   4.773   0.803  22.595
11413SOL    HW245868   4.697   0.715  22.692
11414SOL     OW45869   1.088   3.076   6.108
11414SOL    HW145870   1.098   3.014   6.180
11414SOL    HW245871   1.035   3.147   6.145
11415SOL     OW45872   1.313   0.935   1.430
11415SOL    HW145873   1.252   0.988   1.481
11415SOL    HW245874   1.348   0.995   1.364
11416SOL     OW45875   3.343   4.695  17.388
11416SOL    HW145876   3.261   4.671  17.346
11416SOL    HW245877   3.322   4.776  17.436
11417SOL     OW45878   2.144   1.884  21.665
11417SOL    HW145879   2.163   1.917  21.753
11417SOL    HW245880   2.188   1.946  21.606
11418SOL     OW45881   1.981   2.062  24.463
11418SOL    HW145882   2.005   2.152  24.486
11418SOL    HW245883   1.885   2.064  24.457
11419SOL     OW45884   4.329   1.883  17.206
11419SOL    HW145885   4.276   1.876  17.127
11419SOL    HW245886   4.270   1.923  17.271
11420SOL     OW45887   1.144   2.688  24.172
11420SOL    HW145888   1.100   2.617  24.218
11420SOL    HW245889   1.073   2.741  24.136
11421SOL     OW45890   1.150   3.978   8.046
11421SOL    HW145891   1.172   4.070   8.057
11421SOL    HW245892   1.159   3.962   7.952
11422SOL     OW45893   4.543   4.079  25.714
11422SOL    HW145894   4.613   4.102  25.776
11422SOL    HW245895   4.580   4.100  25.628
11423SOL     OW45896   1.392   0.128  21.397
11423SOL    HW145897   1.362   0.169  21.316
11423SOL    HW245898   1.329   0.057  21.412
11424SOL     OW45899   1.409   0.639  23.726
11424SOL    HW145900   1.377   0.724  23.697
11424SOL    HW245901   1.374   0.628  23.814
11425SOL     OW45902   3.590   0.740  28.284
11425SOL    HW145903   3.511   0.730  28.231
11425SOL    HW245904   3.607   0.652  28.317
11426SOL     OW45905   1.246   2.848  18.429
11426SOL    HW145906   1.322   2.863  18.372
11426SOL    HW245907   1.182   2.914  18.402
11427SOL     OW45908   2.154   2.163   5.298
11427SOL    HW145909   2.061   2.153   5.318
11427SOL    HW245910   2.191   2.203   5.377
11428SOL     OW45911   0.337   1.059  20.030
11428SOL    HW145912   0.329   1.041  20.123
11428SOL    HW245913   0.383   1.143  20.026
11429SOL     OW45914   3.939   0.140   2.497
11429SOL    HW145915   3.923   0.224   2.455
11429SOL    HW245916   3.860   0.089   2.480
11430SOL     OW45917   2.969   3.476  25.240
11430SOL    HW145918   2.962   3.413  25.311
11430SOL    HW245919   2.922   3.436  25.167
11431SOL     OW45920   3.002   3.719  21.503
11431SOL    HW145921   3.087   3.679  21.517
11431SOL    HW245922   2.939   3.649  21.521
11432SOL     OW45923   3.187   2.616  19.328
11432SOL    HW145924   3.137   2.608  19.247
11432SOL    HW245925   3.155   2.545  19.383
11433SOL     OW45926   3.567   3.715  26.919
11433SOL    HW145927   3.535   3.702  26.830
11433SOL    HW245928   3.625   3.641  26.935
11434SOL     OW45929   3.821   2.291   7.529
11434SOL    HW145930   3.880   2.242   7.471
11434SOL    HW245931   3.871   2.303   7.609
11435SOL     OW45932   2.461   1.957   7.563
11435SOL    HW145933   2.416   2.041   7.550
11435SOL    HW245934   2.422   1.922   7.644
11436SOL     OW45935   4.335   1.782  23.092
11436SOL    HW145936   4.347   1.690  23.068
11436SOL    HW245937   4.370   1.788  23.181
11437SOL     OW45938   0.734   3.185  26.742
11437SOL    HW145939   0.708   3.112  26.798
11437SOL    HW245940   0.657   3.242  26.739
11438SOL     OW45941   1.148   0.352  16.819
11438SOL    HW145942   1.150   0.276  16.761
11438SOL    HW245943   1.066   0.343  16.868
11439SOL     OW45944   2.215   2.579   5.667
11439SOL    HW145945   2.272   2.521   5.717
11439SOL    HW245946   2.176   2.523   5.600
11440SOL     OW45947   3.638   1.178   2.070
11440SOL    HW145948   3.644   1.232   1.991
11440SOL    HW245949   3.623   1.089   2.037
11441SOL     OW45950   0.806   4.565   5.911
11441SOL    HW145951   0.790   4.513   5.989
11441SOL    HW245952   0.812   4.502   5.840
11442SOL     OW45953   0.471   2.221  20.596
11442SOL    HW145954   0.396   2.261  20.552
11442SOL    HW245955   0.529   2.294  20.617
11443SOL     OW45956   3.519   3.156   2.137
11443SOL    HW145957   3.520   3.100   2.060
11443SOL    HW245958   3.499   3.243   2.103
11444SOL     OW45959   1.721   0.525  25.051
11444SOL    HW145960   1.683   0.444  25.086
11444SOL    HW245961   1.723   0.585  25.126
11445SOL     OW45962   1.941   3.545  10.858
11445SOL    HW145963   1.930   3.458  10.820
11445SOL    HW245964   2.014   3.584  10.808
11446SOL     OW45965   2.145   3.772  10.502
11446SOL    HW145966   2.128   3.740  10.590
11446SOL    HW245967   2.216   3.835  10.512
11447SOL     OW45968   2.683   2.157  22.354
11447SOL    HW145969   2.629   2.140  22.276
11447SOL    HW245970   2.733   2.235  22.332
11448SOL     OW45971   3.939   0.961  26.008
11448SOL    HW145972   4.000   1.034  25.997
11448SOL    HW245973   3.857   0.993  25.972
11449SOL     OW45974   0.477   2.685  26.693
11449SOL    HW145975   0.482   2.762  26.637
11449SOL    HW245976   0.545   2.626  26.660
11450SOL     OW45977   2.460   4.393   7.435
11450SOL    HW145978   2.530   4.369   7.375
11450SOL    HW245979   2.388   4.334   7.412
11451SOL     OW45980   3.572   3.497  25.607
11451SOL    HW145981   3.484   3.466  25.585
11451SOL    HW245982   3.563   3.537  25.694
11452SOL     OW45983   2.435   3.566  24.658
11452SOL    HW145984   2.490   3.578  24.736
11452SOL    HW245985   2.357   3.619  24.676
11453SOL     OW45986   2.243   3.955   7.153
11453SOL    HW145987   2.151   3.951   7.181
11453SOL    HW245988   2.293   3.928   7.231
11454SOL     OW45989   2.313   0.651  19.456
11454SOL    HW145990   2.223   0.661  19.425
11454SOL    HW245991   2.313   0.567  19.502
11455SOL     OW45992   1.445   3.418   5.716
11455SOL    HW145993   1.488   3.466   5.645
11455SOL    HW245994   1.422   3.334   5.678
11456SOL     OW45995   3.360   4.569   9.480
11456SOL    HW145996   3.404   4.492   9.515
11456SOL    HW245997   3.267   4.546   9.480
11457SOL     OW45998   0.215   4.275  27.311
11457SOL    HW145999   0.257   4.190  27.295
11457SOL    HW246000   0.121   4.255  27.309
11458SOL     OW46001   1.189   0.435  23.929
11458SOL    HW146002   1.096   0.411  23.932
11458SOL    HW246003   1.191   0.525  23.961
11459SOL     OW46004   2.808   3.684  10.995
11459SOL    HW146005   2.771   3.773  10.987
11459SOL    HW246006   2.854   3.685  11.079
11460SOL     OW46007   2.147   2.053   4.673
11460SOL    HW146008   2.219   2.043   4.736
11460SOL    HW246009   2.127   2.147   4.675
11461SOL     OW46010   3.601   0.207   1.868
11461SOL    HW146011   3.517   0.164   1.852
11461SOL    HW246012   3.578   0.299   1.883
11462SOL     OW46013   0.434   2.208   5.619
11462SOL    HW146014   0.529   2.210   5.621
11462SOL    HW246015   0.412   2.168   5.535
11463SOL     OW46016   2.694   2.640  27.820
11463SOL    HW146017   2.720   2.646  27.729
11463SOL    HW246018   2.628   2.570  27.822
11464SOL     OW46019   2.819   1.747   0.609
11464SOL    HW146020   2.863   1.693   0.544
11464SOL    HW246021   2.801   1.830   0.564
11465SOL     OW46022   0.378   4.659   4.046
11465SOL    HW146023   0.412   4.642   4.134
11465SOL    HW246024   0.319   4.586   4.028
11466SOL     OW46025   4.426   0.829  19.911
11466SOL    HW146026   4.476   0.907  19.935
11466SOL    HW246027   4.337   0.861  19.895
11467SOL     OW46028   0.716   1.052  25.902
11467SOL    HW146029   0.788   1.088  25.954
11467SOL    HW246030   0.658   1.011  25.966
11468SOL     OW46031   0.859   3.691  24.744
11468SOL    HW146032   0.911   3.766  24.774
11468SOL    HW246033   0.862   3.629  24.817
11469SOL     OW46034   1.332   0.825  24.918
11469SOL    HW146035   1.379   0.899  24.957
11469SOL    HW246036   1.277   0.791  24.988
11470SOL     OW46037   0.557   4.230  21.262
11470SOL    HW146038   0.593   4.156  21.311
11470SOL    HW246039   0.487   4.264  21.318
11471SOL     OW46040   0.217   0.177  19.992
11471SOL    HW146041   0.181   0.226  19.918
11471SOL    HW246042   0.214   0.085  19.964
11472SOL     OW46043   3.431   4.394   6.053
11472SOL    HW146044   3.521   4.424   6.068
11472SOL    HW246045   3.384   4.473   6.025
11473SOL     OW46046   1.412   3.998  25.748
11473SOL    HW146047   1.490   4.005  25.804
11473SOL    HW246048   1.340   3.981  25.809
11474SOL     OW46049   0.006   2.882  23.483
11474SOL    HW146050   0.007   2.972  23.451
11474SOL    HW246051   0.065   2.835  23.425
11475SOL     OW46052   4.056   1.235  24.562
11475SOL    HW146053   4.097   1.303  24.509
11475SOL    HW246054   3.965   1.263  24.571
11476SOL     OW46055   2.452   4.605   3.219
11476SOL    HW146056   2.472   4.551   3.295
11476SOL    HW246057   2.415   4.685   3.255
11477SOL     OW46058   4.751   3.787  24.963
11477SOL    HW146059   4.662   3.770  24.934
11477SOL    HW246060   4.758   3.882  24.967
11478SOL     OW46061   2.896   1.288  20.428
11478SOL    HW146062   2.808   1.254  20.416
11478SOL    HW246063   2.951   1.236  20.369
11479SOL     OW46064   3.807   0.510   0.472
11479SOL    HW146065   3.815   0.605   0.478
11479SOL    HW246066   3.747   0.495   0.399
11480SOL     OW46067   0.714   2.441   4.049
11480SOL    HW146068   0.666   2.519   4.078
11480SOL    HW246069   0.670   2.415   3.968
11481SOL     OW46070   0.854   0.225  17.237
11481SOL    HW146071   0.760   0.239  17.245
11481SOL    HW246072   0.863   0.131  17.219
11482SOL     OW46073   1.330   1.753   9.473
11482SOL    HW146074   1.333   1.812   9.398
11482SOL    HW246075   1.381   1.677   9.446
11483SOL     OW46076   3.047   2.349   2.516
11483SOL    HW146077   3.098   2.351   2.435
11483SOL    HW246078   2.996   2.430   2.514
11484SOL     OW46079   2.390   3.134  27.065
11484SOL    HW146080   2.389   3.068  26.995
11484SOL    HW246081   2.479   3.169  27.063
11485SOL     OW46082   2.034   0.141  27.508
11485SOL    HW146083   2.014   0.154  27.416
11485SOL    HW246084   2.036   0.046  27.520
11486SOL     OW46085   0.102   3.373   3.714
11486SOL    HW146086   0.049   3.298   3.688
11486SOL    HW246087   0.058   3.448   3.673
11487SOL     OW46088   0.993   4.271   3.714
11487SOL    HW146089   0.925   4.214   3.750
11487SOL    HW246090   0.973   4.358   3.751
11488SOL     OW46091   4.545   1.070  28.081
11488SOL    HW146092   4.630   1.051  28.040
11488SOL    HW246093   4.511   1.144  28.031
11489SOL     OW46094   1.152   1.843   3.755
11489SOL    HW146095   1.163   1.938   3.758
11489SOL    HW246096   1.099   1.822   3.832
11490SOL     OW46097   2.656   3.609  21.180
11490SOL    HW146098   2.714   3.645  21.112
11490SOL    HW246099   2.580   3.667  21.180
11491SOL     OW46100   1.755   2.402   1.337
11491SOL    HW146101   1.764   2.397   1.241
11491SOL    HW246102   1.828   2.456   1.365
11492SOL     OW46103   2.699   1.551   8.032
11492SOL    HW146104   2.650   1.475   8.001
11492SOL    HW246105   2.785   1.516   8.057
11493SOL     OW46106   1.472   0.855  21.354
11493SOL    HW146107   1.405   0.869  21.288
11493SOL    HW246108   1.554   0.848  21.305
11494SOL     OW46109   3.405   0.210   9.201
11494SOL    HW146110   3.368   0.260   9.274
11494SOL    HW246111   3.484   0.170   9.237
11495SOL     OW46112   2.286   1.072   5.850
11495SOL    HW146113   2.329   1.050   5.767
11495SOL    HW246114   2.195   1.047   5.837
11496SOL     OW46115   4.326   0.170  24.440
11496SOL    HW146116   4.399   0.209  24.489
11496SOL    HW246117   4.280   0.118  24.506
11497SOL     OW46118   3.760   3.204   7.648
11497SOL    HW146119   3.666   3.200   7.668
11497SOL    HW246120   3.765   3.257   7.568
11498SOL     OW46121   2.446   4.546  27.346
11498SOL    HW146122   2.355   4.575  27.348
11498SOL    HW246123   2.486   4.585  27.424
11499SOL     OW46124   2.031   1.290   0.471
11499SOL    HW146125   1.988   1.208   0.450
11499SOL    HW246126   2.098   1.300   0.403
11500SOL     OW46127   2.946   0.695   7.201
11500SOL    HW146128   2.853   0.693   7.223
11500SOL    HW246129   2.977   0.780   7.233
11501SOL     OW46130   3.194   0.379  22.928
11501SOL    HW146131   3.224   0.393  23.018
11501SOL    HW246132   3.099   0.390  22.933
11502SOL     OW46133   0.272   4.199  26.923
11502SOL    HW146134   0.251   4.240  26.839
11502SOL    HW246135   0.263   4.270  26.987
11503SOL     OW46136   4.315   1.051   7.935
11503SOL    HW146137   4.410   1.064   7.939
11503SOL    HW246138   4.299   0.972   7.987
11504SOL     OW46139   4.732   4.768  23.179
11504SOL    HW146140   0.023   4.748  23.121
11504SOL    HW246141   4.719   4.687  23.229
11505SOL     OW46142   3.343   2.264  23.244
11505SOL    HW146143   3.395   2.282  23.323
11505SOL    HW246144   3.397   2.203  23.194
11506SOL     OW46145   2.340   2.830   5.532
11506SOL    HW146146   2.350   2.743   5.571
11506SOL    HW246147   2.391   2.888   5.589
11507SOL     OW46148   2.809   3.015  23.345
11507SOL    HW146149   2.882   3.047  23.291
11507SOL    HW246150   2.851   2.980  23.424
11508SOL     OW46151   1.517   0.535   9.728
11508SOL    HW146152   1.569   0.459   9.754
11508SOL    HW246153   1.546   0.555   9.639
11509SOL     OW46154   2.521   0.983  23.345
11509SOL    HW146155   2.526   1.011  23.253
11509SOL    HW246156   2.513   1.064  23.394
11510SOL     OW46157   1.986   0.712  21.828
11510SOL    HW146158   2.042   0.771  21.777
11510SOL    HW246159   1.951   0.651  21.763
11511SOL     OW46160   1.121   2.892  20.092
11511SOL    HW146161   1.073   2.963  20.135
11511SOL    HW246162   1.187   2.866  20.157
11512SOL     OW46163   2.146   4.193   9.908
11512SOL    HW146164   2.202   4.133   9.858
11512SOL    HW246165   2.178   4.186   9.998
11513SOL     OW46166   2.729   4.070   3.460
11513SOL    HW146167   2.756   4.151   3.415
11513SOL    HW246168   2.811   4.024   3.477
11514SOL     OW46169   2.242   1.399   6.357
11514SOL    HW146170   2.251   1.492   6.336
11514SOL    HW246171   2.226   1.398   6.451
11515SOL     OW46172   4.415   0.106  21.582
11515SOL    HW146173   4.381   0.176  21.637
11515SOL    HW246174   4.340   0.049  21.566
11516SOL     OW46175   2.422   4.544  21.587
11516SOL    HW146176   2.467   4.581  21.663
11516SOL    HW246177   2.471   4.464  21.568
11517SOL     OW46178   4.243   3.932  24.787
11517SOL    HW146179   4.218   3.920  24.878
11517SOL    HW246180   4.169   3.980  24.748
11518SOL     OW46181   2.837   1.682  21.062
11518SOL    HW146182   2.847   1.734  20.983
11518SOL    HW246183   2.759   1.717  21.105
11519SOL     OW46184   3.916   2.197   7.284
11519SOL    HW146185   3.869   2.154   7.213
11519SOL    HW246186   3.919   2.289   7.259
11520SOL     OW46187   4.011   1.429  25.341
11520SOL    HW146188   4.097   1.434  25.383
11520SOL    HW246189   4.030   1.394  25.254
11521SOL     OW46190   0.180   1.642   0.288
11521SOL    HW146191   0.163   1.695   0.366
11521SOL    HW246192   0.224   1.702   0.227
11522SOL     OW46193   4.047   3.641   4.708
11522SOL    HW146194   4.075   3.550   4.701
11522SOL    HW246195   4.087   3.685   4.633
11523SOL     OW46196   2.711   0.825   5.395
11523SOL    HW146197   2.798   0.852   5.422
11523SOL    HW246198   2.689   0.883   5.321
11524SOL     OW46199   3.279   0.180  27.546
11524SOL    HW146200   3.335   0.173  27.624
11524SOL    HW246201   3.208   0.239  27.572
11525SOL     OW46202   2.165   2.440   1.339
11525SOL    HW146203   2.120   2.523   1.354
11525SOL    HW246204   2.249   2.465   1.300
11526SOL     OW46205   2.839   4.615  20.128
11526SOL    HW146206   2.837   4.709  20.150
11526SOL    HW246207   2.751   4.597  20.095
11527SOL     OW46208   1.217   3.454  17.488
11527SOL    HW146209   1.169   3.394  17.433
11527SOL    HW246210   1.295   3.476  17.438
11528SOL     OW46211   1.429   2.693   5.563
11528SOL    HW146212   1.487   2.639   5.615
11528SOL    HW246213   1.479   2.715   5.484
11529SOL     OW46214   4.708   0.239  27.243
11529SOL    HW146215   4.649   0.166  27.259
11529SOL    HW246216   0.005   0.199  27.207
11530SOL     OW46217   1.175   0.989  24.632
11530SOL    HW146218   1.202   0.899  24.615
11530SOL    HW246219   1.187   1.033  24.548
11531SOL     OW46220   3.770   3.700  27.309
11531SOL    HW146221   3.719   3.777  27.334
11531SOL    HW246222   3.848   3.703  27.364
11532SOL     OW46223   0.339   4.477  21.644
11532SOL    HW146224   0.363   4.541  21.577
11532SOL    HW246225   0.351   4.523  21.727
11533SOL     OW46226   4.138   1.358  23.926
11533SOL    HW146227   4.101   1.293  23.867
11533SOL    HW246228   4.203   1.405  23.873
11534SOL     OW46229   2.904   4.436   5.993
11534SOL    HW146230   2.837   4.485   6.040
11534SOL    HW246231   2.967   4.411   6.060
11535SOL     OW46232   4.664   4.156  10.386
11535SOL    HW146233   4.605   4.223  10.423
11535SOL    HW246234   4.748   4.172  10.428
11536SOL     OW46235   4.029   0.902  25.627
11536SOL    HW146236   3.976   0.981  25.632
11536SOL    HW246237   4.058   0.886  25.717
11537SOL     OW46238   1.269   1.941   9.026
11537SOL    HW146239   1.349   1.904   8.987
11537SOL    HW246240   1.206   1.942   8.953
11538SOL     OW46241   3.895   4.009  26.864
11538SOL    HW146242   3.799   4.006  26.856
11538SOL    HW246243   3.926   3.986  26.776
11539SOL     OW46244   3.210   2.009   8.280
11539SOL    HW146245   3.210   1.914   8.271
11539SOL    HW246246   3.299   2.035   8.257
11540SOL     OW46247   0.523   3.170  26.298
11540SOL    HW146248   0.570   3.087  26.288
11540SOL    HW246249   0.548   3.201  26.385
11541SOL     OW46250   2.857   0.098  20.190
11541SOL    HW146251   2.887   0.113  20.100
11541SOL    HW246252   2.915   0.152  20.243
11542SOL     OW46253   2.232   2.530   2.011
11542SOL    HW146254   2.282   2.464   2.058
11542SOL    HW246255   2.188   2.482   1.941
11543SOL     OW46256   3.402   1.386   8.894
11543SOL    HW146257   3.358   1.326   8.833
11543SOL    HW246258   3.467   1.431   8.840
11544SOL     OW46259   2.949   1.917   3.311
11544SOL    HW146260   2.948   2.010   3.335
11544SOL    HW246261   2.982   1.916   3.222
11545SOL     OW46262   0.337   1.280  28.442
11545SOL    HW146263   0.378   1.336  28.509
11545SOL    HW246264   0.272   1.228  28.490
11546SOL     OW46265   0.938   0.581  25.770
11546SOL    HW146266   1.020   0.611  25.731
11546SOL    HW246267   0.922   0.641  25.843
11547SOL     OW46268   0.629   0.395   0.677
11547SOL    HW146269   0.660   0.350   0.755
11547SOL    HW246270   0.667   0.345   0.604
11548SOL     OW46271   2.431   1.001   7.650
11548SOL    HW146272   2.363   1.024   7.714
11548SOL    HW246273   2.389   1.014   7.565
11549SOL     OW46274   2.589   4.278  18.822
11549SOL    HW146275   2.524   4.221  18.862
11549SOL    HW246276   2.673   4.243  18.851
11550SOL     OW46277   2.118   1.054  16.549
11550SOL    HW146278   2.026   1.036  16.569
11550SOL    HW246279   2.123   1.149  16.543
11551SOL     OW46280   0.980   3.558  10.119
11551SOL    HW146281   1.007   3.593  10.035
11551SOL    HW246282   0.975   3.634  10.177
11552SOL     OW46283   2.787   2.977   3.390
11552SOL    HW146284   2.870   2.975   3.438
11552SOL    HW246285   2.723   2.943   3.453
11553SOL     OW46286   4.234   3.936   7.607
11553SOL    HW146287   4.325   3.910   7.618
11553SOL    HW246288   4.232   3.980   7.522
11554SOL     OW46289   1.913   3.302   0.734
11554SOL    HW146290   1.967   3.355   0.675
11554SOL    HW246291   1.859   3.249   0.675
11555SOL     OW46292   3.271   3.908  21.819
11555SOL    HW146293   3.295   3.852  21.893
11555SOL    HW246294   3.314   3.992  21.838
11556SOL     OW46295   4.680   4.133  20.767
11556SOL    HW146296   4.704   4.149  20.676
11556SOL    HW246297   4.691   4.217  20.810
11557SOL     OW46298   4.539   0.341   5.710
11557SOL    HW146299   4.457   0.294   5.721
11557SOL    HW246300   4.536   0.375   5.621
11558SOL     OW46301   3.165   4.220   8.794
11558SOL    HW146302   3.135   4.306   8.821
11558SOL    HW246303   3.234   4.198   8.857
11559SOL     OW46304   0.106   4.620  20.480
11559SOL    HW146305   0.060   4.671  20.413
11559SOL    HW246306   0.147   4.686  20.536
11560SOL     OW46307   3.751   3.991  25.001
11560SOL    HW146308   3.701   4.060  25.043
11560SOL    HW246309   3.775   3.932  25.072
11561SOL     OW46310   0.165   1.177  28.190
11561SOL    HW146311   0.215   1.259  28.187
11561SOL    HW246312   0.095   1.195  28.253
11562SOL     OW46313   0.812   1.709  21.419
11562SOL    HW146314   0.873   1.782  21.407
11562SOL    HW246315   0.810   1.666  21.333
11563SOL     OW46316   3.711   3.296  20.554
11563SOL    HW146317   3.671   3.218  20.591
11563SOL    HW246318   3.764   3.332  20.625
11564SOL     OW46319   3.374   4.262  22.246
11564SOL    HW146320   3.461   4.300  22.235
11564SOL    HW246321   3.389   4.177  22.287
11565SOL     OW46322   2.270   2.567   9.863
11565SOL    HW146323   2.184   2.555   9.822
11565SOL    HW246324   2.286   2.661   9.855
11566SOL     OW46325   3.689   2.742   8.375
11566SOL    HW146326   3.647   2.694   8.446
11566SOL    HW246327   3.729   2.675   8.320
11567SOL     OW46328   4.722   1.591  20.064
11567SOL    HW146329   0.011   1.546  20.019
11567SOL    HW246330   4.668   1.520  20.099
11568SOL     OW46331   0.651   3.150   9.890
11568SOL    HW146332   0.689   3.146   9.978
11568SOL    HW246333   0.643   3.058   9.863
11569SOL     OW46334   2.701   3.116  25.000
11569SOL    HW146335   2.689   3.029  25.039
11569SOL    HW246336   2.657   3.110  24.916
11570SOL     OW46337   3.142   3.950  20.690
11570SOL    HW146338   3.128   4.042  20.666
11570SOL    HW246339   3.201   3.954  20.765
11571SOL     OW46340   0.655   2.574   2.478
11571SOL    HW146341   0.605   2.506   2.433
11571SOL    HW246342   0.597   2.650   2.479
11572SOL     OW46343   3.899   3.506  24.455
11572SOL    HW146344   3.831   3.488  24.390
11572SOL    HW246345   3.958   3.568  24.411
11573SOL     OW46346   0.128   2.758   6.387
11573SOL    HW146347   0.123   2.707   6.307
11573SOL    HW246348   0.206   2.725   6.432
11574SOL     OW46349   0.892   0.617  26.655
11574SOL    HW146350   0.937   0.689  26.611
11574SOL    HW246351   0.927   0.617  26.744
11575SOL     OW46352   3.054   3.156   4.414
11575SOL    HW146353   3.088   3.091   4.353
11575SOL    HW246354   2.977   3.192   4.370
11576SOL     OW46355   4.110   4.127  27.285
11576SOL    HW146356   4.031   4.170  27.252
11576SOL    HW246357   4.114   4.044  27.238
11577SOL     OW46358   1.341   0.769   7.594
11577SOL    HW146359   1.340   0.715   7.515
11577SOL    HW246360   1.409   0.834   7.578
11578SOL     OW46361   1.113   4.250  21.844
11578SOL    HW146362   1.207   4.255  21.827
11578SOL    HW246363   1.072   4.269  21.760
11579SOL     OW46364   0.419   2.483   5.669
11579SOL    HW146365   0.505   2.472   5.708
11579SOL    HW246366   0.393   2.395   5.643
11580SOL     OW46367   2.015   3.499  26.277
11580SOL    HW146368   1.950   3.566  26.259
11580SOL    HW246369   2.099   3.545  26.272
11581SOL     OW46370   1.290   0.137  19.620
11581SOL    HW146371   1.350   0.202  19.585
11581SOL    HW246372   1.338   0.054  19.615
11582SOL     OW46373   0.330   2.448  21.856
11582SOL    HW146374   0.316   2.443  21.761
11582SOL    HW246375   0.402   2.387  21.873
11583SOL     OW46376   0.205   3.966  19.539
11583SOL    HW146377   0.168   4.016  19.612
11583SOL    HW246378   0.129   3.923  19.500
11584SOL     OW46379   3.031   3.107  23.202
11584SOL    HW146380   3.089   3.172  23.163
11584SOL    HW246381   3.090   3.039  23.235
11585SOL     OW46382   2.516   2.368  20.157
11585SOL    HW146383   2.486   2.418  20.233
11585SOL    HW246384   2.605   2.401  20.141
11586SOL     OW46385   3.548   0.422  21.287
11586SOL    HW146386   3.559   0.454  21.376
11586SOL    HW246387   3.609   0.349  21.279
11587SOL     OW46388   1.655   0.865  26.128
11587SOL    HW146389   1.722   0.863  26.060
11587SOL    HW246390   1.703   0.854  26.210
11588SOL     OW46391   2.816   1.772  20.148
11588SOL    HW146392   2.767   1.715  20.207
11588SOL    HW246393   2.890   1.718  20.119
11589SOL     OW46394   0.699   4.001   7.029
11589SOL    HW146395   0.616   3.972   6.993
11589SOL    HW246396   0.681   4.088   7.066
11590SOL     OW46397   1.246   4.720  19.042
11590SOL    HW146398   1.242   4.708  19.137
11590SOL    HW246399   1.251   0.033  19.030
11591SOL     OW46400   2.390   2.366  12.101
11591SOL    HW146401   2.469   2.408  12.136
11591SOL    HW246402   2.357   2.313  12.173
11592SOL     OW46403   4.437   2.597   9.451
11592SOL    HW146404   4.509   2.630   9.397
11592SOL    HW246405   4.393   2.534   9.394
11593SOL     OW46406   2.223   3.956   5.598
11593SOL    HW146407   2.167   4.018   5.551
11593SOL    HW246408   2.206   3.872   5.555
11594SOL     OW46409   3.734   1.897   7.566
11594SOL    HW146410   3.811   1.879   7.619
11594SOL    HW246411   3.662   1.854   7.612
11595SOL     OW46412   3.123   2.299   8.227
11595SOL    HW146413   3.045   2.271   8.179
11595SOL    HW246414   3.170   2.217   8.244
11596SOL     OW46415   0.492   1.056   2.144
11596SOL    HW146416   0.438   0.984   2.111
11596SOL    HW246417   0.581   1.021   2.144
11597SOL     OW46418   2.375   1.148  20.947
11597SOL    HW146419   2.359   1.083  20.878
11597SOL    HW246420   2.360   1.099  21.028
11598SOL     OW46421   3.015   3.234  22.226
11598SOL    HW146422   2.942   3.269  22.279
11598SOL    HW246423   3.041   3.308  22.171
11599SOL     OW46424   1.504   1.344  26.490
11599SOL    HW146425   1.575   1.408  26.493
11599SOL    HW246426   1.527   1.286  26.418
11600SOL     OW46427   1.810   0.287  20.201
11600SOL    HW146428   1.834   0.288  20.108
11600SOL    HW246429   1.874   0.228  20.241
11601SOL     OW46430   3.408   2.732   0.216
11601SOL    HW146431   3.416   2.791   0.141
11601SOL    HW246432   3.480   2.757   0.274
11602SOL     OW46433   1.057   3.833  10.983
11602SOL    HW146434   1.016   3.756  11.022
11602SOL    HW246435   1.055   3.899  11.052
11603SOL     OW46436   4.607   1.072  25.767
11603SOL    HW146437   4.628   1.164  25.785
11603SOL    HW246438   4.529   1.075  25.712
11604SOL     OW46439   4.650   4.326   2.190
11604SOL    HW146440   4.615   4.289   2.270
11604SOL    HW246441   4.743   4.340   2.209
11605SOL     OW46442   3.155   0.329  18.686
11605SOL    HW146443   3.097   0.372  18.622
11605SOL    HW246444   3.156   0.237  18.660
11606SOL     OW46445   3.880   2.108  19.068
11606SOL    HW146446   3.909   2.199  19.067
11606SOL    HW246447   3.820   2.101  18.994
11607SOL     OW46448   4.571   1.700  21.345
11607SOL    HW146449   4.591   1.768  21.281
11607SOL    HW246450   4.656   1.672  21.378
11608SOL     OW46451   3.160   1.031  28.515
11608SOL    HW146452   3.079   1.080  28.525
11608SOL    HW246453   3.224   1.079   0.036
11609SOL     OW46454   2.044   4.739   5.652
11609SOL    HW146455   2.089   0.013   5.714
11609SOL    HW246456   2.084   4.653   5.664
11610SOL     OW46457   1.071   1.544  19.112
11610SOL    HW146458   1.070   1.523  19.019
11610SOL    HW246459   1.093   1.461  19.156
11611SOL     OW46460   3.835   2.443  24.879
11611SOL    HW146461   3.887   2.391  24.818
11611SOL    HW246462   3.818   2.383  24.953
11612SOL     OW46463   2.177   4.267   5.249
11612SOL    HW146464   2.148   4.304   5.333
11612SOL    HW246465   2.162   4.337   5.186
11613SOL     OW46466   2.549   2.992   4.351
11613SOL    HW146467   2.489   2.928   4.315
11613SOL    HW246468   2.627   2.941   4.375
11614SOL     OW46469   3.298   0.590  21.173
11614SOL    HW146470   3.382   0.545  21.182
11614SOL    HW246471   3.237   0.538  21.226
11615SOL     OW46472   0.419   1.813  21.994
11615SOL    HW146473   0.486   1.858  22.046
11615SOL    HW246474   0.448   1.721  21.993
11616SOL     OW46475   2.056   0.401  27.970
11616SOL    HW146476   2.134   0.452  27.946
11616SOL    HW246477   2.058   0.325  27.913
11617SOL     OW46478   2.062   2.978  25.579
11617SOL    HW146479   1.974   3.015  25.579
11617SOL    HW246480   2.116   3.042  25.532
11618SOL     OW46481   4.264   1.302  26.702
11618SOL    HW146482   4.325   1.362  26.659
11618SOL    HW246483   4.178   1.340  26.684
11619SOL     OW46484   1.598   0.304   7.017
11619SOL    HW146485   1.593   0.277   6.925
11619SOL    HW246486   1.657   0.240   7.057
11620SOL     OW46487   4.716   1.266  22.018
11620SOL    HW146488   4.746   1.354  21.995
11620SOL    HW246489   4.773   1.238  22.089
11621SOL     OW46490   0.440   1.141  22.621
11621SOL    HW146491   0.499   1.166  22.692
11621SOL    HW246492   0.366   1.099  22.666
11622SOL     OW46493   0.421   1.633   7.029
11622SOL    HW146494   0.516   1.619   7.026
11622SOL    HW246495   0.399   1.665   6.941
11623SOL     OW46496   2.457   2.346  24.011
11623SOL    HW146497   2.367   2.316  24.014
11623SOL    HW246498   2.453   2.438  24.035
11624SOL     OW46499   1.217   4.556   9.990
11624SOL    HW146500   1.298   4.592  10.026
11624SOL    HW246501   1.157   4.631   9.987
11625SOL     OW46502   0.189   2.011  26.568
11625SOL    HW146503   0.259   1.995  26.633
11625SOL    HW246504   0.130   2.072  26.612
11626SOL     OW46505   3.579   4.022  23.177
11626SOL    HW146506   3.563   4.114  23.200
11626SOL    HW246507   3.640   4.026  23.104
11627SOL     OW46508   0.828   1.041   7.693
11627SOL    HW146509   0.825   0.969   7.629
11627SOL    HW246510   0.797   1.001   7.775
11628SOL     OW46511   4.078   4.130  24.752
11628SOL    HW146512   4.139   4.184  24.702
11628SOL    HW246513   3.996   4.134  24.703
11629SOL     OW46514   0.485   1.360   0.669
11629SOL    HW146515   0.453   1.427   0.609
11629SOL    HW246516   0.406   1.332   0.717
11630SOL     OW46517   0.559   1.612   1.446
11630SOL    HW146518   0.543   1.701   1.477
11630SOL    HW246519   0.492   1.597   1.380
11631SOL     OW46520   0.252   0.854   4.165
11631SOL    HW146521   0.185   0.786   4.178
11631SOL    HW246522   0.268   0.853   4.070
11632SOL     OW46523   2.305   3.333  26.154
11632SOL    HW146524   2.352   3.316  26.235
11632SOL    HW246525   2.307   3.428  26.144
11633SOL     OW46526   1.901   3.571  24.537
11633SOL    HW146527   1.833   3.564  24.604
11633SOL    HW246528   1.865   3.633  24.474
11634SOL     OW46529   4.316   3.179  23.487
11634SOL    HW146530   4.286   3.126  23.562
11634SOL    HW246531   4.375   3.244  23.526
11635SOL     OW46532   0.099   1.271  21.665
11635SOL    HW146533   0.061   1.223  21.591
11635SOL    HW246534   0.112   1.204  21.732
11636SOL     OW46535   0.497   1.380  27.647
11636SOL    HW146536   0.565   1.432  27.689
11636SOL    HW246537   0.532   1.360  27.560
11637SOL     OW46538   3.356   2.378  19.768
11637SOL    HW146539   3.412   2.371  19.691
11637SOL    HW246540   3.332   2.287  19.789
11638SOL     OW46541   2.174   2.045   0.685
11638SOL    HW146542   2.250   2.101   0.701
11638SOL    HW246543   2.207   1.978   0.624
11639SOL     OW46544   0.746   3.000   6.997
11639SOL    HW146545   0.687   2.936   7.036
11639SOL    HW246546   0.716   3.008   6.906
11640SOL     OW46547   0.912   4.077   6.837
11640SOL    HW146548   0.903   4.172   6.850
11640SOL    HW246549   0.834   4.040   6.878
11641SOL     OW46550   4.403   0.429   3.900
11641SOL    HW146551   4.392   0.505   3.957
11641SOL    HW246552   4.492   0.399   3.916
11642SOL     OW46553   0.679   1.498  24.883
11642SOL    HW146554   0.587   1.480  24.902
11642SOL    HW246555   0.682   1.516  24.789
11643SOL     OW46556   2.064   1.401  21.285
11643SOL    HW146557   2.047   1.495  21.276
11643SOL    HW246558   2.016   1.361  21.213
11644SOL     OW46559   0.676   0.929  27.296
11644SOL    HW146560   0.606   0.874  27.261
11644SOL    HW246561   0.754   0.903  27.248
11645SOL     OW46562   3.312   2.577   8.961
11645SOL    HW146563   3.316   2.673   8.962
11645SOL    HW246564   3.358   2.550   9.041
11646SOL     OW46565   1.102   4.769   4.542
11646SOL    HW146566   1.166   4.763   4.613
11646SOL    HW246567   1.021   0.015   4.584
11647SOL     OW46568   4.449   0.040   8.788
11647SOL    HW146569   4.489   0.102   8.727
11647SOL    HW246570   4.524   4.779   8.830
11648SOL     OW46571   4.053   3.138  23.906
11648SOL    HW146572   4.049   3.097  23.992
11648SOL    HW246573   3.984   3.094  23.855
11649SOL     OW46574   4.040   4.340   3.712
11649SOL    HW146575   4.112   4.350   3.775
11649SOL    HW246576   3.962   4.368   3.760
11650SOL     OW46577   3.413   2.959  20.241
11650SOL    HW146578   3.446   2.877  20.203
11650SOL    HW246579   3.330   2.975  20.197
11651SOL     OW46580   1.824   2.382  26.393
11651SOL    HW146581   1.846   2.354  26.304
11651SOL    HW246582   1.903   2.364  26.444
11652SOL     OW46583   0.093   3.424   5.132
11652SOL    HW146584   0.056   3.393   5.215
11652SOL    HW246585   0.111   3.343   5.083
11653SOL     OW46586   3.850   2.509  22.090
11653SOL    HW146587   3.791   2.555  22.149
11653SOL    HW246588   3.914   2.467  22.147
11654SOL     OW46589   3.931   0.336  23.620
11654SOL    HW146590   3.928   0.246  23.652
11654SOL    HW246591   4.024   0.353  23.605
11655SOL     OW46592   3.714   2.521   4.620
11655SOL    HW146593   3.760   2.460   4.562
11655SOL    HW246594   3.655   2.466   4.671
11656SOL     OW46595   3.611   2.429  19.128
11656SOL    HW146596   3.687   2.416  19.070
11656SOL    HW246597   3.585   2.340  19.152
11657SOL     OW46598   3.200   0.352   5.102
11657SOL    HW146599   3.157   0.358   5.188
11657SOL    HW246600   3.142   0.295   5.051
11658SOL     OW46601   2.317   0.977  26.531
11658SOL    HW146602   2.314   0.888  26.567
11658SOL    HW246603   2.388   0.974  26.466
11659SOL     OW46604   2.393   3.421   7.481
11659SOL    HW146605   2.449   3.383   7.550
11659SOL    HW246606   2.323   3.465   7.529
11660SOL     OW46607   4.262   4.251  21.747
11660SOL    HW146608   4.338   4.206  21.712
11660SOL    HW246609   4.191   4.227  21.688
11661SOL     OW46610   2.086   0.428   2.980
11661SOL    HW146611   2.168   0.466   3.013
11661SOL    HW246612   2.097   0.334   2.991
11662SOL     OW46613   1.328   3.192   8.736
11662SOL    HW146614   1.237   3.223   8.726
11662SOL    HW246615   1.322   3.098   8.723
11663SOL     OW46616   1.149   1.844  26.579
11663SOL    HW146617   1.136   1.934  26.609
11663SOL    HW246618   1.142   1.791  26.658
11664SOL     OW46619   3.161   0.681  24.653
11664SOL    HW146620   3.229   0.676  24.586
11664SOL    HW246621   3.209   0.685  24.736
11665SOL     OW46622   0.627   0.879   5.699
11665SOL    HW146623   0.569   0.805   5.719
11665SOL    HW246624   0.616   0.939   5.773
11666SOL     OW46625   0.934   3.870  28.026
11666SOL    HW146626   0.959   3.922  27.949
11666SOL    HW246627   0.989   3.792  28.021
11667SOL     OW46628   4.430   4.079  21.592
11667SOL    HW146629   4.516   4.050  21.563
11667SOL    HW246630   4.369   4.025  21.541
11668SOL     OW46631   4.340   0.217   4.169
11668SOL    HW146632   4.424   0.205   4.215
11668SOL    HW246633   4.364   0.259   4.087
11669SOL     OW46634   2.914   0.804  19.712
11669SOL    HW146635   2.922   0.828  19.804
11669SOL    HW246636   2.819   0.797  19.697
11670SOL     OW46637   3.748   1.456  23.325
11670SOL    HW146638   3.821   1.508  23.293
11670SOL    HW246639   3.701   1.514  23.385
11671SOL     OW46640   3.458   1.460  22.010
11671SOL    HW146641   3.373   1.427  22.038
11671SOL    HW246642   3.500   1.488  22.091
11672SOL     OW46643   3.475   0.375   4.962
11672SOL    HW146644   3.394   0.353   5.009
11672SOL    HW246645   3.445   0.396   4.873
11673SOL     OW46646   1.537   0.218  27.079
11673SOL    HW146647   1.557   0.218  26.985
11673SOL    HW246648   1.539   0.310  27.104
11674SOL     OW46649   3.588   4.674   8.809
11674SOL    HW146650   3.505   4.641   8.844
11674SOL    HW246651   3.623   4.730   8.879
11675SOL     OW46652   4.054   2.719   1.842
11675SOL    HW146653   3.971   2.731   1.887
11675SOL    HW246654   4.095   2.645   1.885
11676SOL     OW46655   2.427   2.743   3.148
11676SOL    HW146656   2.420   2.828   3.105
11676SOL    HW246657   2.430   2.764   3.242
11677SOL     OW46658   2.142   3.808   0.237
11677SOL    HW146659   2.188   3.848   0.311
11677SOL    HW246660   2.050   3.827   0.252
11678SOL     OW46661   3.637   0.381  20.974
11678SOL    HW146662   3.669   0.409  21.060
11678SOL    HW246663   3.544   0.361  20.988
11679SOL     OW46664   0.788   2.498  22.686
11679SOL    HW146665   0.705   2.450  22.681
11679SOL    HW246666   0.849   2.436  22.725
11680SOL     OW46667   2.022   2.619   7.350
11680SOL    HW146668   1.953   2.582   7.407
11680SOL    HW246669   1.978   2.690   7.303
11681SOL     OW46670   1.038   0.422   0.276
11681SOL    HW146671   1.101   0.480   0.320
11681SOL    HW246672   1.057   0.432   0.183
11682SOL     OW46673   2.328   2.207   5.563
11682SOL    HW146674   2.414   2.202   5.522
11682SOL    HW246675   2.347   2.219   5.656
11683SOL     OW46676   0.367   2.444  24.576
11683SOL    HW146677   0.310   2.406  24.643
11683SOL    HW246678   0.448   2.466  24.622
11684SOL     OW46679   2.153   4.355  22.596
11684SOL    HW146680   2.227   4.378  22.652
11684SOL    HW246681   2.077   4.391  22.641
11685SOL     OW46682   1.128   1.273   9.658
11685SOL    HW146683   1.085   1.339   9.603
11685SOL    HW246684   1.056   1.235   9.709
11686SOL     OW46685   2.955   2.630   8.006
11686SOL    HW146686   2.898   2.600   7.935
11686SOL    HW246687   2.896   2.667   8.071
11687SOL     OW46688   3.300   4.509   1.536
11687SOL    HW146689   3.326   4.418   1.554
11687SOL    HW246690   3.311   4.518   1.442
11688SOL     OW46691   3.505   3.435   8.680
11688SOL    HW146692   3.536   3.422   8.591
11688SOL    HW246693   3.541   3.362   8.730
11689SOL     OW46694   2.054   3.550   4.666
11689SOL    HW146695   2.096   3.467   4.643
11689SOL    HW246696   1.987   3.562   4.599
11690SOL     OW46697   4.188   2.606  27.934
11690SOL    HW146698   4.167   2.555  27.856
11690SOL    HW246699   4.282   2.598  27.944
11691SOL     OW46700   0.241   3.153   1.837
11691SOL    HW146701   0.329   3.130   1.867
11691SOL    HW246702   0.229   3.244   1.863
11692SOL     OW46703   4.158   0.069   4.281
11692SOL    HW146704   4.221   0.031   4.343
11692SOL    HW246705   4.212   0.113   4.216
11693SOL     OW46706   1.532   2.351  23.352
11693SOL    HW146707   1.618   2.353  23.310
11693SOL    HW246708   1.474   2.313  23.286
11694SOL     OW46709   1.115   1.372  24.056
11694SOL    HW146710   1.028   1.347  24.026
11694SOL    HW246711   1.118   1.467  24.045
11695SOL     OW46712   1.079   3.317  21.038
11695SOL    HW146713   1.011   3.358  20.984
11695SOL    HW246714   1.160   3.359  21.011
11696SOL     OW46715   1.032   0.575   6.905
11696SOL    HW146716   1.093   0.613   6.969
11696SOL    HW246717   1.088   0.540   6.836
11697SOL     OW46718   2.020   4.032  27.180
11697SOL    HW146719   1.964   3.987  27.117
11697SOL    HW246720   1.959   4.076  27.239
11698SOL     OW46721   4.068   3.815   8.467
11698SOL    HW146722   4.123   3.870   8.524
11698SOL    HW246723   4.130   3.769   8.411
11699SOL     OW46724   1.805   1.214  19.187
11699SOL    HW146725   1.833   1.239  19.099
11699SOL    HW246726   1.863   1.263  19.245
11700SOL     OW46727   0.874   0.369  25.995
11700SOL    HW146728   0.795   0.316  25.990
11700SOL    HW246729   0.891   0.394  25.904
11701SOL     OW46730   3.478   0.291  22.080
11701SOL    HW146731   3.461   0.276  22.173
11701SOL    HW246732   3.573   0.279  22.071
11702SOL     OW46733   3.217   3.104  10.980
11702SOL    HW146734   3.275   3.104  11.055
11702SOL    HW246735   3.230   3.018  10.940
11703SOL     OW46736   0.467   0.068  20.399
11703SOL    HW146737   0.498   0.150  20.362
11703SOL    HW246738   0.546   0.014  20.409
11704SOL     OW46739   4.402   0.143   8.510
11704SOL    HW146740   4.320   0.172   8.548
11704SOL    HW246741   4.416   0.201   8.435
11705SOL     OW46742   1.755   1.350   7.743
11705SOL    HW146743   1.781   1.342   7.835
11705SOL    HW246744   1.838   1.342   7.694
11706SOL     OW46745   3.450   3.931  26.684
11706SOL    HW146746   3.472   3.846  26.647
11706SOL    HW246747   3.357   3.924  26.706
11707SOL     OW46748   2.910   3.452   9.199
11707SOL    HW146749   3.000   3.475   9.221
11707SOL    HW246750   2.874   3.416   9.280
11708SOL     OW46751   0.134   2.567   0.776
11708SOL    HW146752   0.062   2.630   0.770
11708SOL    HW246753   0.102   2.490   0.729
11709SOL     OW46754   0.362   0.535  25.718
11709SOL    HW146755   0.417   0.593  25.772
11709SOL    HW246756   0.308   0.595  25.667
11710SOL     OW46757   0.137   3.652  23.393
11710SOL    HW146758   0.147   3.640  23.299
11710SOL    HW246759   0.060   3.598  23.416
11711SOL     OW46760   3.717   2.979  21.009
11711SOL    HW146761   3.663   3.018  20.940
11711SOL    HW246762   3.795   2.948  20.964
11712SOL     OW46763   1.861   3.606  18.723
11712SOL    HW146764   1.951   3.615  18.755
11712SOL    HW246765   1.807   3.601  18.802
11713SOL     OW46766   0.410   4.527  10.251
11713SOL    HW146767   0.415   4.497  10.342
11713SOL    HW246768   0.380   4.451  10.202
11714SOL     OW46769   2.744   3.811   9.007
11714SOL    HW146770   2.699   3.727   9.006
11714SOL    HW246771   2.683   3.871   8.965
11715SOL     OW46772   0.745   2.758  22.570
11715SOL    HW146773   0.817   2.820  22.562
11715SOL    HW246774   0.783   2.681  22.611
11716SOL     OW46775   0.735   2.882  25.797
11716SOL    HW146776   0.811   2.842  25.838
11716SOL    HW246777   0.679   2.808  25.773
11717SOL     OW46778   3.651   3.158  26.037
11717SOL    HW146779   3.677   3.241  26.076
11717SOL    HW246780   3.601   3.182  25.959
11718SOL     OW46781   4.588   2.716  20.409
11718SOL    HW146782   4.618   2.760  20.489
11718SOL    HW246783   4.520   2.774  20.374
11719SOL     OW46784   0.473   0.480  10.126
11719SOL    HW146785   0.400   0.419  10.119
11719SOL    HW246786   0.448   0.539  10.197
11720SOL     OW46787   0.448   1.017   3.460
11720SOL    HW146788   0.485   1.003   3.373
11720SOL    HW246789   0.442   1.112   3.469
11721SOL     OW46790   0.759   2.965   1.571
11721SOL    HW146791   0.747   2.954   1.665
11721SOL    HW246792   0.796   3.053   1.561
11722SOL     OW46793   4.195   0.007  24.616
11722SOL    HW146794   4.212   0.020  24.709
11722SOL    HW246795   4.154   4.704  24.610
11723SOL     OW46796   2.327   4.445  20.765
11723SOL    HW146797   2.278   4.483  20.692
11723SOL    HW246798   2.405   4.500  20.772
11724SOL     OW46799   2.361   3.409  17.221
11724SOL    HW146800   2.425   3.339  17.234
11724SOL    HW246801   2.409   3.490  17.234
11725SOL     OW46802   2.690   3.454   9.025
11725SOL    HW146803   2.776   3.474   9.062
11725SOL    HW246804   2.652   3.392   9.087
11726SOL     OW46805   0.898   3.798  25.025
11726SOL    HW146806   0.883   3.735  25.096
11726SOL    HW246807   0.832   3.867  25.040
11727SOL     OW46808   3.729   0.560   8.410
11727SOL    HW146809   3.719   0.583   8.318
11727SOL    HW246810   3.686   0.475   8.419
11728SOL     OW46811   3.476   2.411  28.092
11728SOL    HW146812   3.545   2.474  28.069
11728SOL    HW246813   3.455   2.430  28.183
11729SOL     OW46814   0.374   3.242  27.365
11729SOL    HW146815   0.350   3.266  27.454
11729SOL    HW246816   0.306   3.282  27.310
11730SOL     OW46817   4.262   2.136  26.320
11730SOL    HW146818   4.262   2.077  26.395
11730SOL    HW246819   4.345   2.184  26.326
11731SOL     OW46820   1.317   4.612   9.675
11731SOL    HW146821   1.237   4.613   9.726
11731SOL    HW246822   1.362   4.532   9.703
11732SOL     OW46823   2.853   1.188   5.446
11732SOL    HW146824   2.928   1.244   5.426
11732SOL    HW246825   2.783   1.221   5.389
11733SOL     OW46826   1.849   0.191  24.051
11733SOL    HW146827   1.896   0.109  24.067
11733SOL    HW246828   1.757   0.170  24.065
11734SOL     OW46829   2.710   3.062  27.531
11734SOL    HW146830   2.619   3.070  27.502
11734SOL    HW246831   2.721   3.132  27.595
11735SOL     OW46832   4.358   2.561   9.073
11735SOL    HW146833   4.420   2.629   9.101
11735SOL    HW246834   4.313   2.599   8.997
11736SOL     OW46835   2.341   2.452   8.632
11736SOL    HW146836   2.415   2.432   8.689
11736SOL    HW246837   2.321   2.544   8.650
11737SOL     OW46838   2.425   1.612   8.803
11737SOL    HW146839   2.449   1.527   8.842
11737SOL    HW246840   2.341   1.596   8.761
11738SOL     OW46841   3.986   3.269  27.646
11738SOL    HW146842   3.911   3.218  27.618
11738SOL    HW246843   4.008   3.323  27.569
11739SOL     OW46844   3.554   3.202   0.608
11739SOL    HW146845   3.633   3.255   0.598
11739SOL    HW246846   3.573   3.122   0.560
11740SOL     OW46847   4.539   2.044   3.434
11740SOL    HW146848   4.550   1.955   3.403
11740SOL    HW246849   4.571   2.042   3.524
11741SOL     OW46850   2.809   3.837  24.533
11741SOL    HW146851   2.849   3.772  24.475
11741SOL    HW246852   2.715   3.832  24.513
11742SOL     OW46853   1.336   0.578   7.379
11742SOL    HW146854   1.265   0.535   7.425
11742SOL    HW246855   1.366   0.513   7.315
11743SOL     OW46856   2.466   2.912   6.675
11743SOL    HW146857   2.420   2.884   6.755
11743SOL    HW246858   2.410   2.883   6.604
11744SOL     OW46859   0.776   0.773  22.595
11744SOL    HW146860   0.852   0.812  22.553
11744SOL    HW246861   0.803   0.683  22.615
11745SOL     OW46862   2.042   1.623  24.111
11745SOL    HW146863   2.098   1.701  24.112
11745SOL    HW246864   2.103   1.549  24.116
11746SOL     OW46865   4.506   0.679   7.952
11746SOL    HW146866   4.565   0.608   7.979
11746SOL    HW246867   4.436   0.635   7.904
11747SOL     OW46868   4.084   0.977   0.093
11747SOL    HW146869   4.173   0.980   0.058
11747SOL    HW246870   4.070   1.064   0.130
11748SOL     OW46871   2.156   0.843  22.400
11748SOL    HW146872   2.154   0.766  22.458
11748SOL    HW246873   2.074   0.889  22.418
11749SOL     OW46874   3.178   0.946  26.050
11749SOL    HW146875   3.263   0.939  26.006
11749SOL    HW246876   3.197   0.989  26.133
11750SOL     OW46877   0.037   2.321  17.325
11750SOL    HW146878   0.045   2.409  17.286
11750SOL    HW246879   0.123   2.281  17.311
11751SOL     OW46880   2.362   2.400  22.942
11751SOL    HW146881   2.377   2.487  22.906
11751SOL    HW246882   2.408   2.401  23.026
11752SOL     OW46883   1.450   1.652  20.662
11752SOL    HW146884   1.382   1.671  20.597
11752SOL    HW246885   1.515   1.721  20.649
11753SOL     OW46886   2.079   1.788   0.123
11753SOL    HW146887   2.164   1.827   0.142
11753SOL    HW246888   2.064   1.727   0.195
11754SOL     OW46889   4.515   2.170   2.830
11754SOL    HW146890   4.499   2.211   2.745
11754SOL    HW246891   4.477   2.231   2.894
11755SOL     OW46892   1.095   3.441  27.939
11755SOL    HW146893   1.033   3.368  27.932
11755SOL    HW246894   1.060   3.496  28.009
11756SOL     OW46895   2.281   3.917   0.476
11756SOL    HW146896   2.293   3.985   0.409
11756SOL    HW246897   2.368   3.905   0.514
11757SOL     OW46898   4.075   3.126  23.327
11757SOL    HW146899   4.145   3.155  23.386
11757SOL    HW246900   3.994   3.151  23.372
11758SOL     OW46901   2.257   0.797  19.823
11758SOL    HW146902   2.240   0.721  19.767
11758SOL    HW246903   2.246   0.873  19.765
11759SOL     OW46904   3.507   2.147   1.845
11759SOL    HW146905   3.492   2.053   1.859
11759SOL    HW246906   3.440   2.173   1.781
11760SOL     OW46907   3.871   4.071   1.530
11760SOL    HW146908   3.926   4.146   1.510
11760SOL    HW246909   3.783   4.107   1.539
11761SOL     OW46910   0.640   0.857  21.019
11761SOL    HW146911   0.630   0.911  21.097
11761SOL    HW246912   0.721   0.809  21.034
11762SOL     OW46913   4.543   2.478  20.257
11762SOL    HW146914   4.563   2.564  20.295
11762SOL    HW246915   4.507   2.498  20.170
11763SOL     OW46916   3.043   4.719   4.535
11763SOL    HW146917   2.998   4.781   4.592
11763SOL    HW246918   2.983   4.708   4.460
11764SOL     OW46919   4.762   2.037   9.314
11764SOL    HW146920   4.708   2.092   9.371
11764SOL    HW246921   0.061   2.024   9.363
11765SOL     OW46922   1.854   1.441  24.353
11765SOL    HW146923   1.779   1.398  24.313
11765SOL    HW246924   1.930   1.398  24.313
11766SOL     OW46925   1.895   0.624  12.292
11766SOL    HW146926   1.831   0.578  12.346
11766SOL    HW246927   1.973   0.629  12.347
11767SOL     OW46928   2.748   2.446  22.334
11767SOL    HW146929   2.699   2.493  22.401
11767SOL    HW246930   2.690   2.447  22.258
11768SOL     OW46931   0.940   0.051   8.794
11768SOL    HW146932   0.961   4.741   8.787
11768SOL    HW246933   0.861   0.063   8.743
11769SOL     OW46934   1.408   0.437   0.825
11769SOL    HW146935   1.408   0.528   0.854
11769SOL    HW246936   1.497   0.406   0.842
11770SOL     OW46937   0.185   2.973  19.869
11770SOL    HW146938   0.157   3.055  19.910
11770SOL    HW246939   0.276   2.962  19.899
11771SOL     OW46940   2.733   4.387   6.577
11771SOL    HW146941   2.791   4.459   6.600
11771SOL    HW246942   2.674   4.424   6.511
11772SOL     OW46943   2.252   3.754  19.224
11772SOL    HW146944   2.297   3.809  19.288
11772SOL    HW246945   2.188   3.704  19.275
11773SOL     OW46946   3.714   3.782  21.200
11773SOL    HW146947   3.798   3.775  21.155
11773SOL    HW246948   3.675   3.695  21.191
11774SOL     OW46949   0.238   2.685   2.314
11774SOL    HW146950   0.230   2.604   2.365
11774SOL    HW246951   0.191   2.667   2.233
11775SOL     OW46952   4.485   3.495  10.822
11775SOL    HW146953   4.485   3.565  10.887
11775SOL    HW246954   4.399   3.499  10.781
11776SOL     OW46955   2.626   4.000   9.565
11776SOL    HW146956   2.722   4.001   9.570
11776SOL    HW246957   2.606   4.048   9.484
11777SOL     OW46958   0.963   2.982   3.612
11777SOL    HW146959   1.026   2.971   3.541
11777SOL    HW246960   0.966   3.075   3.633
11778SOL     OW46961   3.590   1.233  23.426
11778SOL    HW146962   3.645   1.166  23.467
11778SOL    HW246963   3.648   1.273  23.360
11779SOL     OW46964   3.688   3.792  11.154
11779SOL    HW146965   3.741   3.743  11.217
11779SOL    HW246966   3.744   3.800  11.077
11780SOL     OW46967   2.005   1.994  20.849
11780SOL    HW146968   2.065   2.054  20.804
11780SOL    HW246969   2.062   1.933  20.895
11781SOL     OW46970   4.050   3.710   3.045
11781SOL    HW146971   4.085   3.634   2.997
11781SOL    HW246972   4.088   3.703   3.132
11782SOL     OW46973   0.935   0.942   3.452
11782SOL    HW146974   0.861   0.911   3.399
11782SOL    HW246975   0.900   0.950   3.540
11783SOL     OW46976   4.565   3.480  20.352
11783SOL    HW146977   4.571   3.575  20.356
11783SOL    HW246978   4.654   3.452  20.329
11784SOL     OW46979   2.413   1.077   2.887
11784SOL    HW146980   2.441   0.989   2.912
11784SOL    HW246981   2.320   1.068   2.868
11785SOL     OW46982   4.658   1.701  25.108
11785SOL    HW146983   4.575   1.733  25.144
11785SOL    HW246984   4.724   1.725  25.172
11786SOL     OW46985   0.070   1.632  21.061
11786SOL    HW146986   0.025   1.715  21.046
11786SOL    HW246987   0.057   1.583  20.980
11787SOL     OW46988   0.797   3.574   6.875
11787SOL    HW146989   0.730   3.566   6.943
11787SOL    HW246990   0.860   3.505   6.896
11788SOL     OW46991   0.278   2.999   3.853
11788SOL    HW146992   0.276   3.086   3.891
11788SOL    HW246993   0.295   2.940   3.926
11789SOL     OW46994   0.141   0.847   8.455
11789SOL    HW146995   0.202   0.775   8.439
11789SOL    HW246996   0.114   0.875   8.367
11790SOL     OW46997   3.324   1.310  27.935
11790SOL    HW146998   3.348   1.402  27.927
11790SOL    HW246999   3.406   1.266  27.960
11791SOL     OW47000   3.865   2.563  28.076
11791SOL    HW147001   3.925   2.624  28.034
11791SOL    HW247002   3.779   2.587  28.042
11792SOL     OW47003   4.459   3.270  20.177
11792SOL    HW147004   4.438   3.196  20.234
11792SOL    HW247005   4.490   3.339  20.236
11793SOL     OW47006   0.348   3.631  22.428
11793SOL    HW147007   0.434   3.641  22.388
11793SOL    HW247008   0.308   3.557  22.383
11794SOL     OW47009   1.806   3.582   5.329
11794SOL    HW147010   1.774   3.655   5.276
11794SOL    HW247011   1.887   3.554   5.285
11795SOL     OW47012   1.152   0.289   6.613
11795SOL    HW147013   1.230   0.321   6.658
11795SOL    HW247014   1.183   0.216   6.560
11796SOL     OW47015   1.501   3.381  22.042
11796SOL    HW147016   1.539   3.294  22.031
11796SOL    HW247017   1.443   3.391  21.966
11797SOL     OW47018   2.097   0.488  23.503
11797SOL    HW147019   2.116   0.476  23.595
11797SOL    HW247020   2.001   0.491  23.498
11798SOL     OW47021   3.378   2.948  22.823
11798SOL    HW147022   3.407   3.004  22.896
11798SOL    HW247023   3.286   2.930  22.842
11799SOL     OW47024   1.003   0.101   4.975
11799SOL    HW147025   0.929   0.161   4.964
11799SOL    HW247026   1.027   0.109   5.067
11800SOL     OW47027   1.690   1.220  16.759
11800SOL    HW147028   1.602   1.208  16.722
11800SOL    HW247029   1.739   1.143  16.730
11801SOL     OW47030   2.355   4.610  28.187
11801SOL    HW147031   2.432   4.613  28.244
11801SOL    HW247032   2.281   4.604  28.247
11802SOL     OW47033   0.540   1.381   5.485
11802SOL    HW147034   0.450   1.387   5.452
11802SOL    HW247035   0.533   1.330   5.565
11803SOL     OW47036   4.383   3.342   7.298
11803SOL    HW147037   4.468   3.301   7.315
11803SOL    HW247038   4.335   3.330   7.379
11804SOL     OW47039   0.829   0.043   7.999
11804SOL    HW147040   0.785   0.089   8.070
11804SOL    HW247041   0.906   0.004   8.039
11805SOL     OW47042   4.648   0.075  24.696
11805SOL    HW147043   4.723   0.072  24.756
11805SOL    HW247044   4.660   4.780  24.641
11806SOL     OW47045   1.411   3.170  19.765
11806SOL    HW147046   1.500   3.163  19.731
11806SOL    HW247047   1.423   3.175  19.860
11807SOL     OW47048   2.814   4.294  27.471
11807SOL    HW147049   2.732   4.261  27.509
11807SOL    HW247050   2.845   4.360  27.533
11808SOL     OW47051   2.900   2.824  27.035
11808SOL    HW147052   2.881   2.734  27.009
11808SOL    HW247053   2.832   2.876  26.992
11809SOL     OW47054   4.151   3.021  20.213
11809SOL    HW147055   4.057   3.006  20.202
11809SOL    HW247056   4.172   3.089  20.149
11810SOL     OW47057   1.117   3.931   0.342
11810SOL    HW147058   1.137   3.841   0.317
11810SOL    HW247059   1.074   3.924   0.427
11811SOL     OW47060   3.311   0.394  24.505
11811SOL    HW147061   3.302   0.346  24.588
11811SOL    HW247062   3.221   0.412  24.478
11812SOL     OW47063   4.188   3.364   1.862
11812SOL    HW147064   4.153   3.275   1.865
11812SOL    HW247065   4.278   3.355   1.895
11813SOL     OW47066   1.546   4.076  16.459
11813SOL    HW147067   1.516   4.145  16.400
11813SOL    HW247068   1.637   4.062  16.435
11814SOL     OW47069   0.999   3.089  20.916
11814SOL    HW147070   1.022   3.172  20.957
11814SOL    HW247071   1.064   3.027  20.951
11815SOL     OW47072   3.533   3.594  26.143
11815SOL    HW147073   3.503   3.673  26.186
11815SOL    HW247074   3.464   3.530  26.159
11816SOL     OW47075   3.394   2.635   5.612
11816SOL    HW147076   3.474   2.681   5.637
11816SOL    HW247077   3.354   2.691   5.546
11817SOL     OW47078   2.018   1.745  18.822
11817SOL    HW147079   1.990   1.836  18.815
11817SOL    HW247080   1.951   1.703  18.876
11818SOL     OW47081   0.757   0.573   9.953
11818SOL    HW147082   0.680   0.620   9.986
11818SOL    HW247083   0.792   0.526  10.028
11819SOL     OW47084   1.534   4.385  26.750
11819SOL    HW147085   1.623   4.415  26.770
11819SOL    HW247086   1.536   4.361  26.658
11820SOL     OW47087   3.099   3.098   1.568
11820SOL    HW147088   3.103   3.192   1.551
11820SOL    HW247089   3.163   3.059   1.509
11821SOL     OW47090   4.332   2.909   3.324
11821SOL    HW147091   4.349   2.909   3.418
11821SOL    HW247092   4.250   2.958   3.314
11822SOL     OW47093   0.148   1.216   0.328
11822SOL    HW147094   0.225   1.161   0.344
11822SOL    HW247095   0.130   1.257   0.412
11823SOL     OW47096   3.637   0.618   4.986
11823SOL    HW147097   3.600   0.531   4.969
11823SOL    HW247098   3.595   0.646   5.067
11824SOL     OW47099   1.982   2.378   1.592
11824SOL    HW147100   1.984   2.442   1.521
11824SOL    HW247101   2.007   2.295   1.550
11825SOL     OW47102   3.431   4.078  17.481
11825SOL    HW147103   3.363   4.120  17.429
11825SOL    HW247104   3.397   3.990  17.499
11826SOL     OW47105   3.904   0.798   1.096
11826SOL    HW147106   3.979   0.785   1.038
11826SOL    HW247107   3.936   0.856   1.165
11827SOL     OW47108   0.019   0.940   6.385
11827SOL    HW147109   0.109   0.968   6.398
11827SOL    HW247110   4.762   0.945   6.473
11828SOL     OW47111   0.375   2.075   3.859
11828SOL    HW147112   0.395   2.053   3.950
11828SOL    HW247113   0.396   1.995   3.811
11829SOL     OW47114   4.208   2.082   0.540
11829SOL    HW147115   4.262   2.139   0.595
11829SOL    HW247116   4.265   2.009   0.518
11830SOL     OW47117   4.447   2.143  25.455
11830SOL    HW147118   4.403   2.198  25.519
11830SOL    HW247119   4.446   2.055  25.494
11831SOL     OW47120   3.512   3.071  23.563
11831SOL    HW147121   3.583   3.060  23.627
11831SOL    HW247122   3.502   2.984  23.524
11832SOL     OW47123   4.700   3.511   0.137
11832SOL    HW147124   4.767   3.444   0.147
11832SOL    HW247125   4.685   3.544   0.225
11833SOL     OW47126   0.180   0.910  18.455
11833SOL    HW147127   0.116   0.963  18.501
11833SOL    HW247128   0.217   0.968  18.389
11834SOL     OW47129   4.323   0.771  22.431
11834SOL    HW147130   4.400   0.764  22.376
11834SOL    HW247131   4.328   0.694  22.488
11835SOL     OW47132   1.898   1.700   3.761
11835SOL    HW147133   1.886   1.756   3.837
11835SOL    HW247134   1.968   1.741   3.711
11836SOL     OW47135   2.130   1.327   0.734
11836SOL    HW147136   2.095   1.320   0.645
11836SOL    HW247137   2.067   1.382   0.780
11837SOL     OW47138   4.028   3.307   8.809
11837SOL    HW147139   4.123   3.313   8.798
11837SOL    HW247140   3.996   3.396   8.796
11838SOL     OW47141   3.895   3.585  20.528
11838SOL    HW147142   3.943   3.509  20.496
11838SOL    HW247143   3.858   3.626  20.449
11839SOL     OW47144   4.608   4.320   1.110
11839SOL    HW147145   4.704   4.324   1.111
11839SOL    HW247146   4.583   4.322   1.202
11840SOL     OW47147   4.618   0.630  26.779
11840SOL    HW147148   4.645   0.633  26.871
11840SOL    HW247149   4.617   0.722  26.751
11841SOL     OW47150   3.880   2.295   6.329
11841SOL    HW147151   3.945   2.264   6.392
11841SOL    HW247152   3.931   2.324   6.254
11842SOL     OW47153   2.640   2.705   1.842
11842SOL    HW147154   2.649   2.665   1.929
11842SOL    HW247155   2.582   2.646   1.794
11843SOL     OW47156   1.771   0.239   4.976
11843SOL    HW147157   1.810   0.152   4.964
11843SOL    HW247158   1.737   0.238   5.066
11844SOL     OW47159   1.589   4.367  26.415
11844SOL    HW147160   1.650   4.440  26.411
11844SOL    HW247161   1.506   4.402  26.381
11845SOL     OW47162   1.217   3.893  26.666
11845SOL    HW147163   1.176   3.840  26.597
11845SOL    HW247164   1.285   3.942  26.621
11846SOL     OW47165   0.893   4.322  23.997
11846SOL    HW147166   0.871   4.327  24.090
11846SOL    HW247167   0.811   4.343  23.952
11847SOL     OW47168   1.660   2.871   9.252
11847SOL    HW147169   1.604   2.948   9.244
11847SOL    HW247170   1.610   2.801   9.210
11848SOL     OW47171   1.508   2.110   4.776
11848SOL    HW147172   1.586   2.065   4.808
11848SOL    HW247173   1.437   2.047   4.790
11849SOL     OW47174   0.367   3.903   5.095
11849SOL    HW147175   0.363   3.810   5.074
11849SOL    HW247176   0.373   3.946   5.010
11850SOL     OW47177   4.020   1.801   7.986
11850SOL    HW147178   3.995   1.759   8.069
11850SOL    HW247179   3.946   1.859   7.966
11851SOL     OW47180   3.215   3.799   0.840
11851SOL    HW147181   3.157   3.875   0.843
11851SOL    HW247182   3.211   3.768   0.750
11852SOL     OW47183   3.111   2.385  24.555
11852SOL    HW147184   3.163   2.414  24.630
11852SOL    HW247185   3.093   2.293  24.573
11853SOL     OW47186   0.518   3.510  20.923
11853SOL    HW147187   0.450   3.451  20.955
11853SOL    HW247188   0.471   3.582  20.882
11854SOL     OW47189   1.366   2.440   8.448
11854SOL    HW147190   1.406   2.355   8.465
11854SOL    HW247191   1.280   2.419   8.410
11855SOL     OW47192   3.210   4.614  20.144
11855SOL    HW147193   3.296   4.574  20.133
11855SOL    HW247194   3.227   4.708  20.143
11856SOL     OW47195   3.660   0.754   5.539
11856SOL    HW147196   3.618   0.777   5.622
11856SOL    HW247197   3.748   0.725   5.564
11857SOL     OW47198   3.692   4.056   1.837
11857SOL    HW147199   3.657   4.146   1.838
11857SOL    HW247200   3.783   4.066   1.865
11858SOL     OW47201   1.019   3.918  20.321
11858SOL    HW147202   1.110   3.949  20.325
11858SOL    HW247203   0.971   3.977  20.379
11859SOL     OW47204   1.628   0.763  16.031
11859SOL    HW147205   1.681   0.771  15.951
11859SOL    HW247206   1.671   0.694  16.081
11860SOL     OW47207   3.623   1.324  25.620
11860SOL    HW147208   3.581   1.325  25.534
11860SOL    HW247209   3.631   1.417  25.643
11861SOL     OW47210   0.971   0.004  22.461
11861SOL    HW147211   0.894   4.730  22.461
11861SOL    HW247212   1.027   4.751  22.530
11862SOL     OW47213   1.705   1.322  28.092
11862SOL    HW147214   1.657   1.240  28.078
11862SOL    HW247215   1.784   1.296  28.140
11863SOL     OW47216   0.069   3.798  11.065
11863SOL    HW147217   4.765   3.775  11.032
11863SOL    HW247218   0.074   3.755  11.150
11864SOL     OW47219   3.074   2.664   3.922
11864SOL    HW147220   3.054   2.609   3.997
11864SOL    HW247221   3.040   2.617   3.846
11865SOL     OW47222   0.408   3.495   6.590
11865SOL    HW147223   0.477   3.556   6.616
11865SOL    HW247224   0.327   3.540   6.614
11866SOL     OW47225   2.150   4.130   4.752
11866SOL    HW147226   2.228   4.093   4.794
11866SOL    HW247227   2.180   4.155   4.665
11867SOL     OW47228   2.955   1.851  26.367
11867SOL    HW147229   2.918   1.763  26.357
11867SOL    HW247230   2.881   1.910  26.354
11868SOL     OW47231   4.257   3.909  19.026
11868SOL    HW147232   4.328   3.896  18.962
11868SOL    HW247233   4.178   3.884  18.979
11869SOL     OW47234   0.412   1.059   2.587
11869SOL    HW147235   0.457   1.113   2.653
11869SOL    HW247236   0.374   1.122   2.527
11870SOL     OW47237   4.686   3.301  26.044
11870SOL    HW147238   4.672   3.207  26.034
11870SOL    HW247239   4.603   3.341  26.017
11871SOL     OW47240   4.001   0.682   0.730
11871SOL    HW147241   3.937   0.752   0.743
11871SOL    HW247242   3.952   0.601   0.744
11872SOL     OW47243   1.683   3.717   6.110
11872SOL    HW147244   1.770   3.691   6.139
11872SOL    HW247245   1.650   3.774   6.179
11873SOL     OW47246   2.562   0.324  27.233
11873SOL    HW147247   2.640   0.334  27.287
11873SOL    HW247248   2.505   0.267  27.285
11874SOL     OW47249   0.248   1.734   1.286
11874SOL    HW147250   0.285   1.656   1.245
11874SOL    HW247251   0.283   1.734   1.375
11875SOL     OW47252   1.468   3.719  21.744
11875SOL    HW147253   1.448   3.640  21.694
11875SOL    HW247254   1.520   3.773  21.685
11876SOL     OW47255   1.056   1.701  22.841
11876SOL    HW147256   0.971   1.686  22.798
11876SOL    HW247257   1.104   1.756  22.779
11877SOL     OW47258   3.200   2.425   7.875
11877SOL    HW147259   3.183   2.436   7.968
11877SOL    HW247260   3.212   2.331   7.864
11878SOL     OW47261   1.347   4.675  17.403
11878SOL    HW147262   1.392   4.626  17.334
11878SOL    HW247263   1.401   4.753  17.416
11879SOL     OW47264   3.021   1.769  27.492
11879SOL    HW147265   2.986   1.756  27.580
11879SOL    HW247266   3.114   1.787  27.506
11880SOL     OW47267   3.389   1.838   1.195
11880SOL    HW147268   3.321   1.770   1.196
11880SOL    HW247269   3.354   1.906   1.137
11881SOL     OW47270   1.717   3.898   4.692
11881SOL    HW147271   1.771   3.976   4.687
11881SOL    HW247272   1.741   3.848   4.614
11882SOL     OW47273   3.197   2.839   9.523
11882SOL    HW147274   3.165   2.777   9.458
11882SOL    HW247275   3.127   2.845   9.588
11883SOL     OW47276   0.472   1.708  17.031
11883SOL    HW147277   0.565   1.726  17.045
11883SOL    HW247278   0.427   1.760  17.097
11884SOL     OW47279   4.405   1.800  26.300
11884SOL    HW147280   4.466   1.734  26.332
11884SOL    HW247281   4.440   1.883  26.333
11885SOL     OW47282   1.980   4.752  20.933
11885SOL    HW147283   1.989   4.745  21.028
11885SOL    HW247284   2.023   0.052  20.911
11886SOL     OW47285   3.923   0.886   4.251
11886SOL    HW147286   3.998   0.944   4.250
11886SOL    HW247287   3.853   0.936   4.293
11887SOL     OW47288   1.557   4.093   0.356
11887SOL    HW147289   1.521   4.018   0.308
11887SOL    HW247290   1.587   4.153   0.288
11888SOL     OW47291   0.800   2.828  23.009
11888SOL    HW147292   0.823   2.834  23.102
11888SOL    HW247293   0.837   2.745  22.980
11889SOL     OW47294   0.593   4.570  24.891
11889SOL    HW147295   0.678   4.527  24.887
11889SOL    HW247296   0.557   4.544  24.976
11890SOL     OW47297   3.387   2.838  20.663
11890SOL    HW147298   3.481   2.835  20.648
11890SOL    HW247299   3.355   2.902  20.600
11891SOL     OW47300   1.442   4.772   5.449
11891SOL    HW147301   1.366   4.777   5.390
11891SOL    HW247302   1.419   0.048   5.522
11892SOL     OW47303   0.325   4.572  23.454
11892SOL    HW147304   0.330   4.660  23.415
11892SOL    HW247305   0.405   4.565  23.506
11893SOL     OW47306   1.828   2.224  23.604
11893SOL    HW147307   1.866   2.312  23.605
11893SOL    HW247308   1.814   2.205  23.512
11894SOL     OW47309   1.596   2.002  25.291
11894SOL    HW147310   1.535   2.045  25.350
11894SOL    HW247311   1.675   2.056  25.294
11895SOL     OW47312   3.840   0.222   4.899
11895SOL    HW147313   3.827   0.259   4.986
11895SOL    HW247314   3.776   0.267   4.844
11896SOL     OW47315   2.451   0.812   6.206
11896SOL    HW147316   2.414   0.850   6.286
11896SOL    HW247317   2.476   0.888   6.153
11897SOL     OW47318   2.712   2.003   1.317
11897SOL    HW147319   2.749   2.073   1.264
11897SOL    HW247320   2.708   1.928   1.258
11898SOL     OW47321   1.096   0.985   7.460
11898SOL    HW147322   1.068   1.076   7.452
11898SOL    HW247323   1.183   0.990   7.500
11899SOL     OW47324   3.932   3.558   8.002
11899SOL    HW147325   3.951   3.644   8.039
11899SOL    HW247326   3.989   3.498   8.049
11900SOL     OW47327   3.300   4.461  24.682
11900SOL    HW147328   3.312   4.371  24.651
11900SOL    HW247329   3.277   4.511  24.603
11901SOL     OW47330   2.521   4.700  25.997
11901SOL    HW147331   2.615   4.715  25.988
11901SOL    HW247332   2.495   4.751  26.074
11902SOL     OW47333   1.938   2.621   2.104
11902SOL    HW147334   1.905   2.685   2.167
11902SOL    HW247335   2.020   2.659   2.073
11903SOL     OW47336   2.592   1.485   2.164
11903SOL    HW147337   2.561   1.410   2.113
11903SOL    HW247338   2.517   1.546   2.164
11904SOL     OW47339   3.585   0.858   6.611
11904SOL    HW147340   3.571   0.951   6.590
11904SOL    HW247341   3.640   0.859   6.689
11905SOL     OW47342   1.062   1.184   2.928
11905SOL    HW147343   0.988   1.128   2.904
11905SOL    HW247344   1.119   1.127   2.980
11906SOL     OW47345   0.601   4.063   1.403
11906SOL    HW147346   0.683   4.042   1.358
11906SOL    HW247347   0.583   3.986   1.457
11907SOL     OW47348   1.896   2.211  26.111
11907SOL    HW147349   1.974   2.157  26.107
11907SOL    HW247350   1.828   2.159  26.069
11908SOL     OW47351   2.174   1.907   1.065
11908SOL    HW147352   2.221   1.903   1.148
11908SOL    HW247353   2.240   1.932   1.000
11909SOL     OW47354   2.747   3.106  25.549
11909SOL    HW147355   2.679   3.105  25.481
11909SOL    HW247356   2.698   3.102  25.631
11910SOL     OW47357   4.584   1.623  21.956
11910SOL    HW147358   4.677   1.600  21.956
11910SOL    HW247359   4.582   1.714  21.926
11911SOL     OW47360   3.236   1.361  21.162
11911SOL    HW147361   3.270   1.438  21.207
11911SOL    HW247362   3.161   1.394  21.112
11912SOL     OW47363   3.985   0.245  28.519
11912SOL    HW147364   4.080   0.232  28.522
11912SOL    HW247365   3.972   0.333   0.023
11913SOL     OW47366   4.314   1.883   3.681
11913SOL    HW147367   4.316   1.973   3.714
11913SOL    HW247368   4.373   1.835   3.740
11914SOL     OW47369   0.806   1.253  24.762
11914SOL    HW147370   0.722   1.282  24.797
11914SOL    HW247371   0.808   1.288  24.673
11915SOL     OW47372   3.778   4.075  24.004
11915SOL    HW147373   3.811   4.068  23.914
11915SOL    HW247374   3.854   4.054  24.059
11916SOL     OW47375   3.095   2.604  26.146
11916SOL    HW147376   3.085   2.672  26.080
11916SOL    HW247377   3.085   2.522  26.096
11917SOL     OW47378   1.822   0.071  10.269
11917SOL    HW147379   1.849   0.110  10.352
11917SOL    HW247380   1.749   0.013  10.293
11918SOL     OW47381   1.599   2.883   1.066
11918SOL    HW147382   1.542   2.832   1.010
11918SOL    HW247383   1.683   2.883   1.020
11919SOL     OW47384   0.457   4.451   2.075
11919SOL    HW147385   0.414   4.471   2.158
11919SOL    HW247386   0.529   4.514   2.069
11920SOL     OW47387   4.405   2.225  24.073
11920SOL    HW147388   4.495   2.240  24.044
11920SOL    HW247389   4.381   2.142  24.032
11921SOL     OW47390   3.819   0.937   5.851
11921SOL    HW147391   3.831   0.842   5.856
11921SOL    HW247392   3.744   0.949   5.793
11922SOL     OW47393   0.387   4.662  22.808
11922SOL    HW147394   0.414   4.588  22.863
11922SOL    HW247395   0.462   4.721  22.807
11923SOL     OW47396   0.498   2.719   3.553
11923SOL    HW147397   0.427   2.783   3.552
11923SOL    HW247398   0.455   2.636   3.531
11924SOL     OW47399   3.888   2.928   4.207
11924SOL    HW147400   3.817   2.929   4.270
11924SOL    HW247401   3.866   2.857   4.147
11925SOL     OW47402   4.715   3.294  26.674
11925SOL    HW147403   4.672   3.337  26.601
11925SOL    HW247404   4.647   3.242  26.716
11926SOL     OW47405   4.509   3.094   7.090
11926SOL    HW147406   4.602   3.117   7.092
11926SOL    HW247407   4.476   3.135   7.009
11927SOL     OW47408   2.653   2.800  20.611
11927SOL    HW147409   2.744   2.791  20.640
11927SOL    HW247410   2.647   2.890  20.580
11928SOL     OW47411   0.846   1.264  21.465
11928SOL    HW147412   0.803   1.189  21.507
11928SOL    HW247413   0.867   1.233  21.377
11929SOL     OW47414   3.062   0.195  10.567
11929SOL    HW147415   3.127   0.225  10.630
11929SOL    HW247416   3.052   0.268  10.506
11930SOL     OW47417   2.044   2.966   0.703
11930SOL    HW147418   1.954   2.994   0.719
11930SOL    HW247419   2.095   3.011   0.771
11931SOL     OW47420   2.237   2.610  18.917
11931SOL    HW147421   2.284   2.693  18.928
11931SOL    HW247422   2.145   2.633  18.924
11932SOL     OW47423   1.805   2.943  24.699
11932SOL    HW147424   1.833   3.015  24.642
11932SOL    HW247425   1.710   2.938  24.686
11933SOL     OW47426   3.591   0.402  20.145
11933SOL    HW147427   3.541   0.399  20.063
11933SOL    HW247428   3.652   0.475  20.132
11934SOL     OW47429   2.164   4.053  20.898
11934SOL    HW147430   2.235   4.057  20.962
11934SOL    HW247431   2.194   4.108  20.826
11935SOL     OW47432   1.378   4.768   6.885
11935SOL    HW147433   1.463   4.742   6.851
11935SOL    HW247434   1.383   4.752   6.979
11936SOL     OW47435   1.221   0.772  22.635
11936SOL    HW147436   1.245   0.855  22.675
11936SOL    HW247437   1.214   0.711  22.709
11937SOL     OW47438   4.491   3.050   3.021
11937SOL    HW147439   4.509   3.064   3.114
11937SOL    HW247440   4.397   3.066   3.011
11938SOL     OW47441   0.956   2.323   8.789
11938SOL    HW147442   0.926   2.233   8.800
11938SOL    HW247443   0.880   2.369   8.751
11939SOL     OW47444   1.747   0.139  12.008
11939SOL    HW147445   1.712   0.223  11.979
11939SOL    HW247446   1.751   0.145  12.103
11940SOL     OW47447   4.663   1.487  26.079
11940SOL    HW147448   4.732   1.488  26.012
11940SOL    HW247449   4.614   1.406  26.063
11941SOL     OW47450   0.938   1.971  22.711
11941SOL    HW147451   0.896   1.900  22.760
11941SOL    HW247452   0.990   1.926  22.644
11942SOL     OW47453   4.736   0.101  25.011
11942SOL    HW147454   4.697   0.017  25.034
11942SOL    HW247455   0.036   0.078  24.967
11943SOL     OW47456   0.022   3.510  21.985
11943SOL    HW147457   4.771   3.432  22.029
11943SOL    HW247458   0.003   3.581  22.045
11944SOL     OW47459   2.452   3.202   1.064
11944SOL    HW147460   2.526   3.247   1.025
11944SOL    HW247461   2.464   3.110   1.040
11945SOL     OW47462   4.013   4.121  19.933
11945SOL    HW147463   4.058   4.102  19.850
11945SOL    HW247464   3.977   4.209  19.920
11946SOL     OW47465   4.775   2.395   8.732
11946SOL    HW147466   4.766   2.484   8.766
11946SOL    HW247467   0.016   2.342   8.808
11947SOL     OW47468   0.047   0.333  22.409
11947SOL    HW147469   4.766   0.388  22.363
11947SOL    HW247470   0.071   0.266  22.344
11948SOL     OW47471   2.208   1.807  27.101
11948SOL    HW147472   2.261   1.743  27.148
11948SOL    HW247473   2.178   1.868  27.169
11949SOL     OW47474   3.329   4.570  18.882
11949SOL    HW147475   3.325   4.661  18.850
11949SOL    HW247476   3.393   4.528  18.825
11950SOL     OW47477   4.526   3.427   8.696
11950SOL    HW147478   4.589   3.470   8.753
11950SOL    HW247479   4.555   3.447   8.608
11951SOL     OW47480   1.166   2.425  11.622
11951SOL    HW147481   1.134   2.485  11.555
11951SOL    HW247482   1.141   2.338  11.591
11952SOL     OW47483   3.640   2.736   5.882
11952SOL    HW147484   3.731   2.760   5.894
11952SOL    HW247485   3.612   2.785   5.804
11953SOL     OW47486   3.742   3.754   2.563
11953SOL    HW147487   3.799   3.766   2.640
11953SOL    HW247488   3.802   3.750   2.489
11954SOL     OW47489   2.606   3.351  20.709
11954SOL    HW147490   2.608   3.321  20.618
11954SOL    HW247491   2.558   3.283  20.756
11955SOL     OW47492   0.544   3.613   6.067
11955SOL    HW147493   0.568   3.533   6.021
11955SOL    HW247494   0.595   3.610   6.148
11956SOL     OW47495   2.236   2.400   7.323
11956SOL    HW147496   2.210   2.407   7.415
11956SOL    HW247497   2.197   2.477   7.282
11957SOL     OW47498   2.233   3.461   1.440
11957SOL    HW147499   2.298   3.430   1.503
11957SOL    HW247500   2.233   3.395   1.371
11958SOL     OW47501   1.306   3.939   2.724
11958SOL    HW147502   1.265   3.991   2.794
11958SOL    HW247503   1.352   4.003   2.671
11959SOL     OW47504   3.331   4.243  25.835
11959SOL    HW147505   3.262   4.247  25.901
11959SOL    HW247506   3.374   4.328  25.840
11960SOL     OW47507   1.700   0.508   5.344
11960SOL    HW147508   1.683   0.552   5.261
11960SOL    HW247509   1.768   0.443   5.324
11961SOL     OW47510   0.195   4.284  28.405
11961SOL    HW147511   0.122   4.224  28.416
11961SOL    HW247512   0.171   4.337  28.329
11962SOL     OW47513   2.760   1.596   7.390
11962SOL    HW147514   2.749   1.679   7.436
11962SOL    HW247515   2.848   1.599   7.355
11963SOL     OW47516   4.754   0.776   5.673
11963SOL    HW147517   4.729   0.702   5.728
11963SOL    HW247518   4.760   0.850   5.734
11964SOL     OW47519   0.208   1.727  23.560
11964SOL    HW147520   0.229   1.709  23.651
11964SOL    HW247521   0.226   1.821  23.549
11965SOL     OW47522   2.745   3.706  26.334
11965SOL    HW147523   2.685   3.762  26.383
11965SOL    HW247524   2.805   3.767  26.291
11966SOL     OW47525   3.168   0.713  22.756
11966SOL    HW147526   3.102   0.748  22.697
11966SOL    HW247527   3.195   0.630  22.716
11967SOL     OW47528   2.355   2.729   3.801
11967SOL    HW147529   2.342   2.823   3.813
11967SOL    HW247530   2.437   2.722   3.752
11968SOL     OW47531   3.645   0.427  22.304
11968SOL    HW147532   3.721   0.473  22.337
11968SOL    HW247533   3.646   0.442  22.210
11969SOL     OW47534   3.385   4.232   7.214
11969SOL    HW147535   3.411   4.182   7.291
11969SOL    HW247536   3.368   4.167   7.147
11970SOL     OW47537   1.746   2.350   1.052
11970SOL    HW147538   1.759   2.383   0.963
11970SOL    HW247539   1.748   2.255   1.043
11971SOL     OW47540   3.376   2.232   6.048
11971SOL    HW147541   3.391   2.290   6.123
11971SOL    HW247542   3.376   2.290   5.972
11972SOL     OW47543   0.199   1.817  26.889
11972SOL    HW147544   0.198   1.852  26.978
11972SOL    HW247545   0.263   1.872  26.843
11973SOL     OW47546   3.058   1.252  20.212
11973SOL    HW147547   3.113   1.309  20.159
11973SOL    HW247548   3.117   1.185  20.246
11974SOL     OW47549   1.392   0.489   4.650
11974SOL    HW147550   1.395   0.402   4.610
11974SOL    HW247551   1.479   0.524   4.637
11975SOL     OW47552   0.369   0.823   3.670
11975SOL    HW147553   0.405   0.889   3.612
11975SOL    HW247554   0.394   0.740   3.630
11976SOL     OW47555   3.139   4.638   8.416
11976SOL    HW147556   3.202   4.603   8.479
11976SOL    HW247557   3.057   4.646   8.466
11977SOL     OW47558   0.289   2.171  10.084
11977SOL    HW147559   0.371   2.171  10.134
11977SOL    HW247560   0.262   2.263  10.084
11978SOL     OW47561   3.688   1.484  23.819
11978SOL    HW147562   3.744   1.451  23.889
11978SOL    HW247563   3.713   1.434  23.742
11979SOL     OW47564   3.966   1.036   6.527
11979SOL    HW147565   4.036   1.043   6.592
11979SOL    HW247566   3.908   0.969   6.563
11980SOL     OW47567   3.903   3.291  21.354
11980SOL    HW147568   3.945   3.353  21.294
11980SOL    HW247569   3.906   3.207  21.308
11981SOL     OW47570   1.092   1.927  19.327
11981SOL    HW147571   1.091   1.933  19.232
11981SOL    HW247572   1.180   1.893  19.348
11982SOL     OW47573   3.011   1.742   4.196
11982SOL    HW147574   3.004   1.752   4.101
11982SOL    HW247575   3.097   1.703   4.210
11983SOL     OW47576   0.345   1.027   1.200
11983SOL    HW147577   0.323   0.967   1.272
11983SOL    HW247578   0.344   0.971   1.122
11984SOL     OW47579   1.842   2.618  20.635
11984SOL    HW147580   1.867   2.598  20.544
11984SOL    HW247581   1.748   2.599  20.638
11985SOL     OW47582   3.888   3.481   5.542
11985SOL    HW147583   3.882   3.387   5.527
11985SOL    HW247584   3.956   3.490   5.609
11986SOL     OW47585   1.913   0.574  13.132
11986SOL    HW147586   1.895   0.574  13.226
11986SOL    HW247587   2.005   0.551  13.124
11987SOL     OW47588   2.751   1.616   8.644
11987SOL    HW147589   2.775   1.672   8.570
11987SOL    HW247590   2.684   1.557   8.609
11988SOL     OW47591   1.741   2.834   4.266
11988SOL    HW147592   1.770   2.767   4.205
11988SOL    HW247593   1.645   2.834   4.257
11989SOL     OW47594   0.378   1.002  24.844
11989SOL    HW147595   0.460   1.018  24.890
11989SOL    HW247596   0.316   0.979  24.914
11990SOL     OW47597   2.584   3.824  23.047
11990SOL    HW147598   2.551   3.774  22.972
11990SOL    HW247599   2.521   3.895  23.058
11991SOL     OW47600   3.177   2.341  23.676
11991SOL    HW147601   3.175   2.378  23.764
11991SOL    HW247602   3.245   2.273  23.680
11992SOL     OW47603   0.351   4.052  18.760
11992SOL    HW147604   0.413   3.981  18.779
11992SOL    HW247605   0.330   4.088  18.846
11993SOL     OW47606   0.773   0.393   5.649
11993SOL    HW147607   0.864   0.366   5.657
11993SOL    HW247608   0.776   0.489   5.645
11994SOL     OW47609   3.858   1.593   5.959
11994SOL    HW147610   3.930   1.655   5.974
11994SOL    HW247611   3.794   1.643   5.909
11995SOL     OW47612   1.524   4.714  26.592
11995SOL    HW147613   1.442   4.761  26.576
11995SOL    HW247614   1.538   4.661  26.514
11996SOL     OW47615   3.125   1.975   0.823
11996SOL    HW147616   3.039   2.014   0.807
11996SOL    HW247617   3.180   2.010   0.753
11997SOL     OW47618   4.378   2.594  25.151
11997SOL    HW147619   4.461   2.555  25.123
11997SOL    HW247620   4.337   2.623  25.069
11998SOL     OW47621   2.054   2.984  22.925
11998SOL    HW147622   1.983   3.049  22.925
11998SOL    HW247623   2.129   3.031  22.962
11999SOL     OW47624   4.292   4.151  22.128
11999SOL    HW147625   4.353   4.125  22.197
11999SOL    HW247626   4.333   4.119  22.047
12000SOL     OW47627   4.385   3.666   1.261
12000SOL    HW147628   4.421   3.639   1.346
12000SOL    HW247629   4.394   3.589   1.205
12001SOL     OW47630   3.962   1.813   1.715
12001SOL    HW147631   3.875   1.854   1.714
12001SOL    HW247632   3.969   1.772   1.801
12002SOL     OW47633   0.911   3.525   0.930
12002SOL    HW147634   0.990   3.574   0.953
12002SOL    HW247635   0.938   3.471   0.855
12003SOL     OW47636   3.906   0.343  17.916
12003SOL    HW147637   3.989   0.352  17.869
12003SOL    HW247638   3.871   0.432  17.920
12004SOL     OW47639   3.563   1.139  18.763
12004SOL    HW147640   3.534   1.094  18.684
12004SOL    HW247641   3.635   1.085  18.796
12005SOL     OW47642   1.748   4.224  25.194
12005SOL    HW147643   1.830   4.205  25.240
12005SOL    HW247644   1.769   4.209  25.101
12006SOL     OW47645   1.060   4.411  27.916
12006SOL    HW147646   1.050   4.325  27.958
12006SOL    HW247647   1.154   4.424  27.910
12007SOL     OW47648   1.446   2.970   7.603
12007SOL    HW147649   1.422   3.037   7.668
12007SOL    HW247650   1.412   2.889   7.640
12008SOL     OW47651   0.775   1.523  24.648
12008SOL    HW147652   0.808   1.455  24.590
12008SOL    HW247653   0.770   1.601  24.592
12009SOL     OW47654   3.246   1.512   4.562
12009SOL    HW147655   3.225   1.442   4.624
12009SOL    HW247656   3.196   1.489   4.483
12010SOL     OW47657   3.209   2.523  25.512
12010SOL    HW147658   3.291   2.570  25.529
12010SOL    HW247659   3.194   2.532  25.418
12011SOL     OW47660   1.991   4.306   9.521
12011SOL    HW147661   2.079   4.272   9.509
12011SOL    HW247662   2.004   4.400   9.537
12012SOL     OW47663   2.488   1.308  18.149
12012SOL    HW147664   2.472   1.317  18.055
12012SOL    HW247665   2.422   1.364  18.190
12013SOL     OW47666   3.708   2.456  22.934
12013SOL    HW147667   3.615   2.477  22.948
12013SOL    HW247668   3.752   2.541  22.939
12014SOL     OW47669   0.780   0.546  27.976
12014SOL    HW147670   0.727   0.499  28.040
12014SOL    HW247671   0.719   0.567  27.905
12015SOL     OW47672   4.016   3.135  18.755
12015SOL    HW147673   3.943   3.073  18.754
12015SOL    HW247674   3.975   3.220  18.767
12016SOL     OW47675   3.247   1.667  21.080
12016SOL    HW147676   3.216   1.699  20.995
12016SOL    HW247677   3.336   1.638  21.063
12017SOL     OW47678   1.473   4.030  23.552
12017SOL    HW147679   1.479   4.088  23.627
12017SOL    HW247680   1.563   4.022  23.520
12018SOL     OW47681   2.538   3.052  22.534
12018SOL    HW147682   2.504   3.129  22.578
12018SOL    HW247683   2.470   2.985  22.547
12019SOL     OW47684   3.210   3.584  25.224
12019SOL    HW147685   3.193   3.652  25.289
12019SOL    HW247686   3.129   3.534  25.220
12020SOL     OW47687   1.004   1.895   5.816
12020SOL    HW147688   1.054   1.815   5.800
12020SOL    HW247689   0.913   1.869   5.807
12021SOL     OW47690   0.860   3.533   7.450
12021SOL    HW147691   0.913   3.531   7.370
12021SOL    HW247692   0.837   3.442   7.467
12022SOL     OW47693   3.742   2.505   3.682
12022SOL    HW147694   3.837   2.491   3.684
12022SOL    HW247695   3.714   2.495   3.773
12023SOL     OW47696   0.739   2.627   9.454
12023SOL    HW147697   0.666   2.683   9.427
12023SOL    HW247698   0.704   2.573   9.524
12024SOL     OW47699   3.963   1.974   5.352
12024SOL    HW147700   4.003   2.055   5.383
12024SOL    HW247701   3.967   1.914   5.427
12025SOL     OW47702   3.645   3.038  20.650
12025SOL    HW147703   3.586   3.068  20.718
12025SOL    HW247704   3.662   2.947  20.671
12026SOL     OW47705   2.260   1.949  24.832
12026SOL    HW147706   2.187   1.952  24.893
12026SOL    HW247707   2.302   1.864  24.849
12027SOL     OW47708   1.654   2.024   9.008
12027SOL    HW147709   1.741   2.037   9.046
12027SOL    HW247710   1.648   2.089   8.939
12028SOL     OW47711   2.669   2.780   2.159
12028SOL    HW147712   2.616   2.819   2.228
12028SOL    HW247713   2.641   2.825   2.079
12029SOL     OW47714   1.019   0.256   1.203
12029SOL    HW147715   0.993   0.249   1.111
12029SOL    HW247716   1.115   0.260   1.201
12030SOL     OW47717   4.641   4.100  25.431
12030SOL    HW147718   4.592   4.124  25.353
12030SOL    HW247719   4.732   4.111  25.407
12031SOL     OW47720   1.511   4.550   9.339
12031SOL    HW147721   1.439   4.514   9.287
12031SOL    HW247722   1.584   4.491   9.323
12032SOL     OW47723   3.110   3.383   3.115
12032SOL    HW147724   3.074   3.462   3.076
12032SOL    HW247725   3.044   3.316   3.099
12033SOL     OW47726   0.087   1.543  20.798
12033SOL    HW147727   0.096   1.610  20.730
12033SOL    HW247728   0.175   1.510  20.812
12034SOL     OW47729   3.021   3.746  19.813
12034SOL    HW147730   2.940   3.759  19.862
12034SOL    HW247731   2.996   3.762  19.722
12035SOL     OW47732   2.529   0.146  24.944
12035SOL    HW147733   2.444   0.132  24.985
12035SOL    HW247734   2.509   0.182  24.858
12036SOL     OW47735   2.767   1.978  17.937
12036SOL    HW147736   2.784   2.055  17.991
12036SOL    HW247737   2.673   1.961  17.948
12037SOL     OW47738   3.682   3.060  24.465
12037SOL    HW147739   3.679   3.150  24.498
12037SOL    HW247740   3.591   3.031  24.467
12038SOL     OW47741   3.880   4.519  26.689
12038SOL    HW147742   3.838   4.588  26.741
12038SOL    HW247743   3.809   4.459  26.667
12039SOL     OW47744   0.054   2.035  17.644
12039SOL    HW147745   4.766   2.031  17.579
12039SOL    HW247746   0.068   2.128  17.660
12040SOL     OW47747   0.173   4.287   8.834
12040SOL    HW147748   0.250   4.341   8.816
12040SOL    HW247749   0.098   4.345   8.821
12041SOL     OW47750   2.062   0.057   8.701
12041SOL    HW147751   1.986   4.782   8.713
12041SOL    HW247752   2.029   0.130   8.650
12042SOL     OW47753   1.572   1.206  27.196
12042SOL    HW147754   1.557   1.112  27.204
12042SOL    HW247755   1.611   1.231  27.280
12043SOL     OW47756   2.500   3.064   8.637
12043SOL    HW147757   2.474   3.156   8.640
12043SOL    HW247758   2.518   3.041   8.728
12044SOL     OW47759   4.443   0.352   8.352
12044SOL    HW147760   4.380   0.408   8.307
12044SOL    HW247761   4.529   0.380   8.319
12045SOL     OW47762   3.415   1.924  22.679
12045SOL    HW147763   3.421   1.859  22.750
12045SOL    HW247764   3.434   2.008  22.722
12046SOL     OW47765   1.380   4.734  20.262
12046SOL    HW147766   1.424   4.654  20.293
12046SOL    HW247767   1.438   4.768  20.193
12047SOL     OW47768   3.309   0.483  22.690
12047SOL    HW147769   3.405   0.481  22.691
12047SOL    HW247770   3.284   0.467  22.782
12048SOL     OW47771   1.498   1.700   5.091
12048SOL    HW147772   1.571   1.652   5.132
12048SOL    HW247773   1.420   1.656   5.124
12049SOL     OW47774   4.438   4.184   7.612
12049SOL    HW147775   4.374   4.202   7.543
12049SOL    HW247776   4.521   4.176   7.566
12050SOL     OW47777   4.474   1.719   7.418
12050SOL    HW147778   4.448   1.768   7.496
12050SOL    HW247779   4.568   1.706   7.427
12051SOL     OW47780   3.400   3.378   7.493
12051SOL    HW147781   3.448   3.321   7.553
12051SOL    HW247782   3.430   3.353   7.406
12052SOL     OW47783   2.683   1.531   1.212
12052SOL    HW147784   2.667   1.519   1.118
12052SOL    HW247785   2.678   1.442   1.248
12053SOL     OW47786   2.857   0.937  19.360
12053SOL    HW147787   2.934   0.971  19.406
12053SOL    HW247788   2.783   0.973  19.408
12054SOL     OW47789   4.748   2.129   3.043
12054SOL    HW147790   4.718   2.145   2.954
12054SOL    HW247791   4.674   2.153   3.098
12055SOL     OW47792   0.507   2.894   0.364
12055SOL    HW147793   0.500   2.802   0.388
12055SOL    HW247794   0.488   2.896   0.271
12056SOL     OW47795   3.315   3.995  20.092
12056SOL    HW147796   3.231   3.997  20.046
12056SOL    HW247797   3.359   4.076  20.066
12057SOL     OW47798   2.882   2.435  25.370
12057SOL    HW147799   2.926   2.383  25.437
12057SOL    HW247800   2.834   2.502  25.418
12058SOL     OW47801   1.660   1.772   3.569
12058SOL    HW147802   1.732   1.798   3.511
12058SOL    HW247803   1.702   1.724   3.640
12059SOL     OW47804   0.267   1.058   6.446
12059SOL    HW147805   0.304   0.975   6.417
12059SOL    HW247806   0.309   1.076   6.530
12060SOL     OW47807   2.194   2.112  21.531
12060SOL    HW147808   2.110   2.132  21.571
12060SOL    HW247809   2.250   2.187  21.552
12061SOL     OW47810   4.562   4.175  19.537
12061SOL    HW147811   4.591   4.092  19.499
12061SOL    HW247812   4.599   4.242  19.478
12062SOL     OW47813   2.209   4.271   7.455
12062SOL    HW147814   2.245   4.298   7.540
12062SOL    HW247815   2.205   4.176   7.460
12063SOL     OW47816   1.937   1.224  28.146
12063SOL    HW147817   1.987   1.160  28.097
12063SOL    HW247818   1.958   1.206  28.237
12064SOL     OW47819   1.985   2.966  10.340
12064SOL    HW147820   1.942   2.990  10.422
12064SOL    HW247821   1.987   2.870  10.342
12065SOL     OW47822   1.351   2.207  23.165
12065SOL    HW147823   1.383   2.196  23.075
12065SOL    HW247824   1.292   2.282  23.160
12066SOL     OW47825   1.564   3.682  25.197
12066SOL    HW147826   1.634   3.745  25.181
12066SOL    HW247827   1.510   3.722  25.265
12067SOL     OW47828   3.598   2.438  19.548
12067SOL    HW147829   3.583   2.509  19.609
12067SOL    HW247830   3.547   2.462  19.470
12068SOL     OW47831   1.342   0.322   7.871
12068SOL    HW147832   1.282   0.377   7.820
12068SOL    HW247833   1.415   0.305   7.811
12069SOL     OW47834   0.417   1.639   4.412
12069SOL    HW147835   0.326   1.624   4.385
12069SOL    HW247836   0.468   1.609   4.337
12070SOL     OW47837   0.845   4.471   6.819
12070SOL    HW147838   0.877   4.448   6.731
12070SOL    HW247839   0.762   4.424   6.827
12071SOL     OW47840   1.308   4.612  12.788
12071SOL    HW147841   1.335   4.599  12.879
12071SOL    HW247842   1.229   4.665  12.793
12072SOL     OW47843   1.815   1.364  22.857
12072SOL    HW147844   1.768   1.331  22.934
12072SOL    HW247845   1.797   1.301  22.788
12073SOL     OW47846   4.363   3.948   6.513
12073SOL    HW147847   4.440   3.904   6.550
12073SOL    HW247848   4.381   4.041   6.523
12074SOL     OW47849   4.694   1.793   2.000
12074SOL    HW147850   4.726   1.716   2.047
12074SOL    HW247851   4.604   1.772   1.976
12075SOL     OW47852   4.023   1.487   1.218
12075SOL    HW147853   4.112   1.503   1.250
12075SOL    HW247854   4.035   1.444   1.133
12076SOL     OW47855   0.105   2.214   5.469
12076SOL    HW147856   0.141   2.250   5.550
12076SOL    HW247857   0.075   2.291   5.421
12077SOL     OW47858   0.408   1.557  21.710
12077SOL    HW147859   0.469   1.483  21.714
12077SOL    HW247860   0.462   1.631  21.682
12078SOL     OW47861   1.317   2.467   5.683
12078SOL    HW147862   1.322   2.372   5.691
12078SOL    HW247863   1.330   2.485   5.590
12079SOL     OW47864   3.893   1.793  11.968
12079SOL    HW147865   3.883   1.763  12.058
12079SOL    HW247866   3.980   1.763  11.943
12080SOL     OW47867   0.624   0.442  10.478
12080SOL    HW147868   0.565   0.394  10.536
12080SOL    HW247869   0.591   0.532  10.478
12081SOL     OW47870   2.750   2.926   5.752
12081SOL    HW147871   2.679   2.987   5.774
12081SOL    HW247872   2.757   2.868   5.828
12082SOL     OW47873   2.325   0.394  15.511
12082SOL    HW147874   2.303   0.445  15.589
12082SOL    HW247875   2.279   0.437  15.440
12083SOL     OW47876   2.426   3.577   8.477
12083SOL    HW147877   2.389   3.598   8.391
12083SOL    HW247878   2.472   3.656   8.504
12084SOL     OW47879   2.673   4.275  26.160
12084SOL    HW147880   2.621   4.278  26.080
12084SOL    HW247881   2.699   4.183  26.168
12085SOL     OW47882   1.387   0.424  25.679
12085SOL    HW147883   1.419   0.467  25.600
12085SOL    HW247884   1.346   0.494  25.729
12086SOL     OW47885   2.934   4.057   5.644
12086SOL    HW147886   2.997   4.124   5.619
12086SOL    HW247887   2.898   4.087   5.727
12087SOL     OW47888   1.138   0.521   9.835
12087SOL    HW147889   1.061   0.513   9.778
12087SOL    HW247890   1.156   0.615   9.837
12088SOL     OW47891   2.087   1.278   3.286
12088SOL    HW147892   2.040   1.212   3.235
12088SOL    HW247893   2.160   1.304   3.231
12089SOL     OW47894   1.243   3.886  19.205
12089SOL    HW147895   1.236   3.935  19.287
12089SOL    HW247896   1.240   3.954  19.137
12090SOL     OW47897   0.157   4.471   1.735
12090SOL    HW147898   0.161   4.400   1.672
12090SOL    HW247899   0.132   4.548   1.684
12091SOL     OW47900   4.386   1.495  24.029
12091SOL    HW147901   4.327   1.571  24.026
12091SOL    HW247902   4.381   1.458  23.941
12092SOL     OW47903   3.061   1.387   6.782
12092SOL    HW147904   3.121   1.343   6.721
12092SOL    HW247905   3.000   1.434   6.726
12093SOL     OW47906   3.942   4.028  20.183
12093SOL    HW147907   3.860   4.010  20.138
12093SOL    HW247908   4.000   4.061  20.114
12094SOL     OW47909   2.677   0.822  19.623
12094SOL    HW147910   2.709   0.759  19.558
12094SOL    HW247911   2.596   0.855  19.585
12095SOL     OW47912   2.055   3.973  26.857
12095SOL    HW147913   1.976   3.950  26.906
12095SOL    HW247914   2.116   3.901  26.875
12096SOL     OW47915   4.439   3.511   2.148
12096SOL    HW147916   4.466   3.527   2.239
12096SOL    HW247917   4.350   3.546   2.143
12097SOL     OW47918   4.641   4.613   7.319
12097SOL    HW147919   4.630   4.524   7.286
12097SOL    HW247920   4.660   4.665   7.242
12098SOL     OW47921   2.576   3.857  28.501
12098SOL    HW147922   2.632   3.886   0.043
12098SOL    HW247923   2.637   3.842  28.429
12099SOL     OW47924   1.209   2.952  22.472
12099SOL    HW147925   1.174   2.952  22.383
12099SOL    HW247926   1.188   3.038  22.507
12100SOL     OW47927   0.858   1.177  18.808
12100SOL    HW147928   0.847   1.083  18.795
12100SOL    HW247929   0.901   1.207  18.728
12101SOL     OW47930   0.595   0.582  23.930
12101SOL    HW147931   0.545   0.532  23.866
12101SOL    HW247932   0.531   0.605  23.998
12102SOL     OW47933   3.981   0.550  25.134
12102SOL    HW147934   3.980   0.465  25.179
12102SOL    HW247935   3.890   0.562  25.106
12103SOL     OW47936   3.306   3.483   1.411
12103SOL    HW147937   3.221   3.450   1.442
12103SOL    HW247938   3.319   3.564   1.460
12104SOL     OW47939   0.298   1.653  23.814
12104SOL    HW147940   0.378   1.606  23.788
12104SOL    HW247941   0.276   1.616  23.900
12105SOL     OW47942   3.435   0.918   4.188
12105SOL    HW147943   3.488   0.987   4.147
12105SOL    HW247944   3.345   0.952   4.184
12106SOL     OW47945   2.837   2.036  20.166
12106SOL    HW147946   2.836   1.944  20.140
12106SOL    HW247947   2.761   2.047  20.222
12107SOL     OW47948   2.763   3.671  20.162
12107SOL    HW147949   2.730   3.686  20.073
12107SOL    HW247950   2.842   3.725  20.168
12108SOL     OW47951   2.186   4.063  24.497
12108SOL    HW147952   2.102   4.028  24.469
12108SOL    HW247953   2.174   4.083  24.590
12109SOL     OW47954   0.380   3.951   8.176
12109SOL    HW147955   0.456   3.894   8.163
12109SOL    HW247956   0.326   3.905   8.240
12110SOL     OW47957   2.045   0.137   0.971
12110SOL    HW147958   2.133   0.164   0.995
12110SOL    HW247959   1.991   0.215   0.985
12111SOL     OW47960   1.211   4.039  23.460
12111SOL    HW147961   1.294   4.008  23.497
12111SOL    HW247962   1.226   4.042  23.365
12112SOL     OW47963   4.759   0.089  23.876
12112SOL    HW147964   4.748   0.069  23.969
12112SOL    HW247965   4.676   0.062  23.836
12113SOL     OW47966   2.109   2.082   8.244
12113SOL    HW147967   2.152   2.113   8.324
12113SOL    HW247968   2.050   2.154   8.220
12114SOL     OW47969   3.337   1.622  25.580
12114SOL    HW147970   3.299   1.708  25.594
12114SOL    HW247971   3.262   1.562  25.578
12115SOL     OW47972   4.591   4.343  19.907
12115SOL    HW147973   4.568   4.391  19.986
12115SOL    HW247974   4.553   4.394  19.836
12116SOL     OW47975   3.964   0.123   9.051
12116SOL    HW147976   3.931   0.132   8.962
12116SOL    HW247977   3.952   0.210   9.090
12117SOL     OW47978   2.155   3.856  11.210
12117SOL    HW147979   2.178   3.934  11.261
12117SOL    HW247980   2.231   3.798  11.219
12118SOL     OW47981   4.571   3.433   3.626
12118SOL    HW147982   4.504   3.488   3.585
12118SOL    HW247983   4.578   3.357   3.568
12119SOL     OW47984   1.776   1.091  20.093
12119SOL    HW147985   1.696   1.117  20.047
12119SOL    HW247986   1.841   1.155  20.065
12120SOL     OW47987   4.529   4.210   2.412
12120SOL    HW147988   4.439   4.200   2.445
12120SOL    HW247989   4.581   4.148   2.463
12121SOL     OW47990   4.231   3.566  23.207
12121SOL    HW147991   4.303   3.629  23.207
12121SOL    HW247992   4.153   3.619  23.187
12122SOL     OW47993   1.565   0.909  27.280
12122SOL    HW147994   1.509   0.853  27.226
12122SOL    HW247995   1.654   0.893  27.248
12123SOL     OW47996   3.750   0.062  27.531
12123SOL    HW147997   3.842   0.062  27.506
12123SOL    HW247998   3.709   4.781  27.471
12124SOL     OW47999   3.473   2.761   9.515
12124SOL    HW148000   3.387   2.800   9.503
12124SOL    HW248001   3.456   2.675   9.555
12125SOL     OW48002   4.347   4.027  20.445
12125SOL    HW148003   4.343   4.035  20.541
12125SOL    HW248004   4.259   4.049  20.416
12126SOL     OW48005   4.456   1.498  18.720
12126SOL    HW148006   4.371   1.517  18.678
12126SOL    HW248007   4.455   1.551  18.800
12127SOL     OW48008   2.504   0.765  28.155
12127SOL    HW148009   2.495   0.731  28.244
12127SOL    HW248010   2.461   0.850  28.156
12128SOL     OW48011   1.505   4.562  19.876
12128SOL    HW148012   1.570   4.601  19.935
12128SOL    HW248013   1.556   4.502  19.821
12129SOL     OW48014   2.176   4.275  25.569
12129SOL    HW148015   2.131   4.285  25.485
12129SOL    HW248016   2.247   4.339  25.567
12130SOL     OW48017   1.671   2.544  10.204
12130SOL    HW148018   1.766   2.557  10.192
12130SOL    HW248019   1.635   2.633  10.201
12131SOL     OW48020   0.274   0.899   5.974
12131SOL    HW148021   0.179   0.913   5.981
12131SOL    HW248022   0.282   0.814   5.929
12132SOL     OW48023   3.017   3.400   1.822
12132SOL    HW148024   3.024   3.338   1.894
12132SOL    HW248025   3.096   3.453   1.828
12133SOL     OW48026   2.197   0.149   4.560
12133SOL    HW148027   2.200   0.231   4.609
12133SOL    HW248028   2.112   0.110   4.582
12134SOL     OW48029   3.204   3.107  21.237
12134SOL    HW148030   3.275   3.050  21.208
12134SOL    HW248031   3.245   3.194  21.245
12135SOL     OW48032   1.193   1.391  28.362
12135SOL    HW148033   1.277   1.417  28.323
12135SOL    HW248034   1.209   1.394  28.457
12136SOL     OW48035   2.247   2.955   2.491
12136SOL    HW148036   2.314   2.978   2.556
12136SOL    HW248037   2.185   2.900   2.539
12137SOL     OW48038   4.126   0.433  10.072
12137SOL    HW148039   4.049   0.376  10.079
12137SOL    HW248040   4.160   0.416   9.984
12138SOL     OW48041   0.521   2.762  27.832
12138SOL    HW148042   0.554   2.691  27.887
12138SOL    HW248043   0.581   2.764  27.758
12139SOL     OW48044   2.766   4.425  24.311
12139SOL    HW148045   2.861   4.429  24.310
12139SOL    HW248046   2.739   4.494  24.372
12140SOL     OW48047   0.416   2.399  21.578
12140SOL    HW148048   0.454   2.376  21.493
12140SOL    HW248049   0.378   2.317  21.610
12141SOL     OW48050   0.461   2.664  21.964
12141SOL    HW148051   0.384   2.714  21.990
12141SOL    HW248052   0.426   2.585  21.924
12142SOL     OW48053   4.199   2.964   1.648
12142SOL    HW148054   4.227   2.926   1.565
12142SOL    HW248055   4.231   2.903   1.715
12143SOL     OW48056   1.303   3.189   4.212
12143SOL    HW148057   1.232   3.132   4.241
12143SOL    HW248058   1.367   3.186   4.283
12144SOL     OW48059   2.900   0.831   1.509
12144SOL    HW148060   2.942   0.824   1.595
12144SOL    HW248061   2.963   0.880   1.456
12145SOL     OW48062   4.525   1.848   5.268
12145SOL    HW148063   4.458   1.782   5.287
12145SOL    HW248064   4.477   1.923   5.236
12146SOL     OW48065   1.464   0.046  23.181
12146SOL    HW148066   1.413   0.105  23.237
12146SOL    HW248067   1.400   0.009  23.120
12147SOL     OW48068   2.007   1.296  19.361
12147SOL    HW148069   2.044   1.379  19.392
12147SOL    HW248070   2.072   1.231  19.387
12148SOL     OW48071   0.690   0.783  24.594
12148SOL    HW148072   0.720   0.861  24.641
12148SOL    HW248073   0.720   0.796  24.504
12149SOL     OW48074   0.310   3.952  20.439
12149SOL    HW148075   0.240   3.909  20.488
12149SOL    HW248076   0.355   3.881  20.393
12150SOL     OW48077   1.270   2.746  18.690
12150SOL    HW148078   1.330   2.679  18.659
12150SOL    HW248079   1.267   2.811  18.620
12151SOL     OW48080   1.831   1.976   1.567
12151SOL    HW148081   1.812   2.028   1.489
12151SOL    HW248082   1.754   1.919   1.577
12152SOL     OW48083   2.578   0.637   2.828
12152SOL    HW148084   2.617   0.683   2.753
12152SOL    HW248085   2.485   0.658   2.824
12153SOL     OW48086   0.084   4.082   8.627
12153SOL    HW148087   0.071   4.119   8.715
12153SOL    HW248088   0.013   4.018   8.618
12154SOL     OW48089   0.302   2.669   4.180
12154SOL    HW148090   0.333   2.626   4.260
12154SOL    HW248091   0.370   2.650   4.115
12155SOL     OW48092   1.360   0.398   1.679
12155SOL    HW148093   1.292   0.332   1.689
12155SOL    HW248094   1.322   0.478   1.716
12156SOL     OW48095   2.957   2.701  23.829
12156SOL    HW148096   2.933   2.652  23.907
12156SOL    HW248097   2.886   2.764  23.817
12157SOL     OW48098   4.473   2.846  27.623
12157SOL    HW148099   4.426   2.829  27.704
12157SOL    HW248100   4.409   2.891  27.567
12158SOL     OW48101   1.750   2.236   9.748
12158SOL    HW148102   1.659   2.208   9.757
12158SOL    HW248103   1.753   2.283   9.665
12159SOL     OW48104   4.522   2.481   5.175
12159SOL    HW148105   4.470   2.447   5.102
12159SOL    HW248106   4.605   2.509   5.134
12160SOL     OW48107   3.683   4.582  24.058
12160SOL    HW148108   3.665   4.498  24.016
12160SOL    HW248109   3.599   4.607  24.097
12161SOL     OW48110   1.429   2.143   0.356
12161SOL    HW148111   1.507   2.138   0.411
12161SOL    HW248112   1.454   2.098   0.275
12162SOL     OW48113   0.830   2.969   6.276
12162SOL    HW148114   0.873   3.029   6.336
12162SOL    HW248115   0.808   3.023   6.200
12163SOL     OW48116   1.831   4.578  17.242
12163SOL    HW148117   1.915   4.625  17.237
12163SOL    HW248118   1.789   4.612  17.320
12164SOL     OW48119   0.841   1.028  23.154
12164SOL    HW148120   0.821   1.109  23.200
12164SOL    HW248121   0.790   0.961  23.199
12165SOL     OW48122   4.408   2.487  20.585
12165SOL    HW148123   4.344   2.483  20.514
12165SOL    HW248124   4.492   2.469  20.542
12166SOL     OW48125   0.622   4.329  26.925
12166SOL    HW148126   0.560   4.266  26.887
12166SOL    HW248127   0.706   4.283  26.925
12167SOL     OW48128   2.248   0.655  20.284
12167SOL    HW148129   2.194   0.687  20.212
12167SOL    HW248130   2.204   0.686  20.363
12168SOL     OW48131   0.400   4.099   5.489
12168SOL    HW148132   0.435   4.062   5.570
12168SOL    HW248133   0.467   4.162   5.461
12169SOL     OW48134   1.063   2.093   4.493
12169SOL    HW148135   1.057   2.049   4.578
12169SOL    HW248136   1.050   2.022   4.429
12170SOL     OW48137   0.381   0.652  24.409
12170SOL    HW148138   0.451   0.713  24.389
12170SOL    HW248139   0.358   0.670  24.500
12171SOL     OW48140   4.463   3.996   3.824
12171SOL    HW148141   4.379   4.020   3.864
12171SOL    HW248142   4.506   3.940   3.888
12172SOL     OW48143   2.407   3.054  23.185
12172SOL    HW148144   2.313   3.073  23.197
12172SOL    HW248145   2.419   3.053  23.090
12173SOL     OW48146   0.802   3.913  11.236
12173SOL    HW148147   0.731   3.864  11.195
12173SOL    HW248148   0.798   3.887  11.328
12174SOL     OW48149   2.358   3.568   5.561
12174SOL    HW148150   2.430   3.629   5.546
12174SOL    HW248151   2.279   3.620   5.550
12175SOL     OW48152   1.248   1.820  25.694
12175SOL    HW148153   1.327   1.859  25.732
12175SOL    HW248154   1.250   1.847  25.602
12176SOL     OW48155   1.093   4.774  23.215
12176SOL    HW148156   1.055   4.686  23.218
12176SOL    HW248157   1.176   4.761  23.168
12177SOL     OW48158   2.589   4.158   5.805
12177SOL    HW148159   2.568   4.238   5.853
12177SOL    HW248160   2.524   4.094   5.836
12178SOL     OW48161   1.764   3.689   0.004
12178SOL    HW148162   1.797   3.768  28.493
12178SOL    HW248163   1.754   3.627  28.463
12179SOL     OW48164   2.863   2.102   9.814
12179SOL    HW148165   2.855   2.059   9.899
12179SOL    HW248166   2.772   2.115   9.785
12180SOL     OW48167   2.112   0.344  21.111
12180SOL    HW148168   2.109   0.309  21.200
12180SOL    HW248169   2.035   0.307  21.069
12181SOL     OW48170   2.419   2.923  24.161
12181SOL    HW148171   2.328   2.949  24.142
12181SOL    HW248172   2.458   2.910  24.075
12182SOL     OW48173   4.686   0.948   7.155
12182SOL    HW148174   4.773   0.979   7.133
12182SOL    HW248175   4.644   0.931   7.071
12183SOL     OW48176   0.192   4.404   1.978
12183SOL    HW148177   0.287   4.414   1.977
12183SOL    HW248178   0.167   4.403   1.885
12184SOL     OW48179   1.767   4.694   6.361
12184SOL    HW148180   1.684   4.654   6.334
12184SOL    HW248181   1.822   4.620   6.385
12185SOL     OW48182   1.103   1.652   7.634
12185SOL    HW148183   1.013   1.626   7.656
12185SOL    HW248184   1.125   1.718   7.700
12186SOL     OW48185   0.890   2.463  25.329
12186SOL    HW148186   0.913   2.476  25.237
12186SOL    HW248187   0.878   2.368  25.337
12187SOL     OW48188   2.808   3.342   9.488
12187SOL    HW148189   2.753   3.420   9.495
12187SOL    HW248190   2.860   3.342   9.568
12188SOL     OW48191   2.207   3.696  10.795
12188SOL    HW148192   2.297   3.709  10.825
12188SOL    HW248193   2.158   3.769  10.833
12189SOL     OW48194   1.877   3.040  24.381
12189SOL    HW148195   1.883   3.102  24.453
12189SOL    HW248196   1.967   3.018  24.359
12190SOL     OW48197   4.347   4.423   6.426
12190SOL    HW148198   4.270   4.383   6.465
12190SOL    HW248199   4.329   4.517   6.427
12191SOL     OW48200   3.029   1.774   7.421
12191SOL    HW148201   2.987   1.720   7.355
12191SOL    HW248202   3.062   1.850   7.373
12192SOL     OW48203   0.458   3.545   0.493
12192SOL    HW148204   0.388   3.603   0.524
12192SOL    HW248205   0.445   3.464   0.544
12193SOL     OW48206   3.615   4.502  22.920
12193SOL    HW148207   3.695   4.522  22.969
12193SOL    HW248208   3.555   4.574  22.941
12194SOL     OW48209   1.402   3.288  22.747
12194SOL    HW148210   1.363   3.322  22.827
12194SOL    HW248211   1.351   3.329  22.677
12195SOL     OW48212   0.964   2.915  20.468
12195SOL    HW148213   1.002   2.961  20.543
12195SOL    HW248214   1.038   2.904  20.407
12196SOL     OW48215   3.856   3.035  20.247
12196SOL    HW148216   3.848   3.109  20.307
12196SOL    HW248217   3.792   3.054  20.178
12197SOL     OW48218   4.074   0.350   9.185
12197SOL    HW148219   4.122   0.430   9.209
12197SOL    HW248220   4.125   0.279   9.225
12198SOL     OW48221   2.487   2.978   3.068
12198SOL    HW148222   2.543   3.047   3.031
12198SOL    HW248223   2.406   2.984   3.017
12199SOL     OW48224   3.614   3.603  23.519
12199SOL    HW148225   3.652   3.690  23.529
12199SOL    HW248226   3.543   3.614  23.456
12200SOL     OW48227   1.208   0.879   3.987
12200SOL    HW148228   1.141   0.947   3.977
12200SOL    HW248229   1.219   0.870   4.082
12201SOL     OW48230   1.623   1.761   8.136
12201SOL    HW148231   1.612   1.677   8.180
12201SOL    HW248232   1.543   1.810   8.157
12202SOL     OW48233   2.975   2.392   9.878
12202SOL    HW148234   2.983   2.363   9.969
12202SOL    HW248235   2.925   2.322   9.835
12203SOL     OW48236   2.336   1.274  21.612
12203SOL    HW148237   2.350   1.364  21.642
12203SOL    HW248238   2.307   1.227  21.690
12204SOL     OW48239   0.677   3.708  22.417
12204SOL    HW148240   0.764   3.748  22.417
12204SOL    HW248241   0.621   3.772  22.460
12205SOL     OW48242   3.935   3.299  27.924
12205SOL    HW148243   4.021   3.325  27.957
12205SOL    HW248244   3.953   3.252  27.842
12206SOL     OW48245   3.239   2.171  19.929
12206SOL    HW148246   3.172   2.108  19.904
12206SOL    HW248247   3.190   2.249  19.955
12207SOL     OW48248   2.939   2.385   8.910
12207SOL    HW148249   2.959   2.400   9.002
12207SOL    HW248250   3.004   2.321   8.881
12208SOL     OW48251   4.700   4.210  27.359
12208SOL    HW148252   4.627   4.268  27.338
12208SOL    HW248253   4.674   4.168  27.441
12209SOL     OW48254   3.504   1.269   7.750
12209SOL    HW148255   3.447   1.234   7.682
12209SOL    HW248256   3.457   1.345   7.784
12210SOL     OW48257   2.906   3.083   7.988
12210SOL    HW148258   2.990   3.111   8.024
12210SOL    HW248259   2.860   3.164   7.967
12211SOL     OW48260   4.233   4.136   5.662
12211SOL    HW148261   4.320   4.101   5.680
12211SOL    HW248262   4.192   4.071   5.604
12212SOL     OW48263   2.544   4.100  11.104
12212SOL    HW148264   2.528   4.191  11.130
12212SOL    HW248265   2.598   4.063  11.174
12213SOL     OW48266   2.780   3.757   0.452
12213SOL    HW148267   2.840   3.822   0.489
12213SOL    HW248268   2.835   3.680   0.437
12214SOL     OW48269   2.569   3.318   5.055
12214SOL    HW148270   2.643   3.363   5.014
12214SOL    HW248271   2.573   3.344   5.147
12215SOL     OW48272   1.175   1.559  27.963
12215SOL    HW148273   1.124   1.563  28.044
12215SOL    HW248274   1.116   1.517  27.900
12216SOL     OW48275   3.394   3.368  26.614
12216SOL    HW148276   3.367   3.281  26.582
12216SOL    HW248277   3.448   3.403  26.543
12217SOL     OW48278   2.693   0.454   4.153
12217SOL    HW148279   2.654   0.406   4.080
12217SOL    HW248280   2.623   0.458   4.218
12218SOL     OW48281   2.111   1.173   0.991
12218SOL    HW148282   2.040   1.222   0.951
12218SOL    HW248283   2.070   1.124   1.062
12219SOL     OW48284   1.864   1.247   0.082
12219SOL    HW148285   1.958   1.249   0.062
12219SOL    HW248286   1.849   1.159   0.118
12220SOL     OW48287   4.427   0.719  11.370
12220SOL    HW148288   4.404   0.812  11.362
12220SOL    HW248289   4.488   0.716  11.444
12221SOL     OW48290   3.038   4.466  24.390
12221SOL    HW148291   3.053   4.485  24.297
12221SOL    HW248292   3.100   4.395  24.410
12222SOL     OW48293   4.596   4.474  23.922
12222SOL    HW148294   4.584   4.442  24.011
12222SOL    HW248295   4.640   4.402  23.876
12223SOL     OW48296   0.987   3.803  19.080
12223SOL    HW148297   0.926   3.865  19.120
12223SOL    HW248298   1.074   3.836  19.105
12224SOL     OW48299   4.243   2.100  25.713
12224SOL    HW148300   4.150   2.085  25.697
12224SOL    HW248301   4.253   2.195  25.713
12225SOL     OW48302   4.156   2.251   9.155
12225SOL    HW148303   4.097   2.324   9.173
12225SOL    HW248304   4.197   2.272   9.072
12226SOL     OW48305   4.390   0.029  23.639
12226SOL    HW148306   4.465   0.074  23.600
12226SOL    HW248307   4.316   0.088  23.625
12227SOL     OW48308   1.079   4.168  28.060
12227SOL    HW148309   1.156   4.188  28.114
12227SOL    HW248310   1.024   4.113  28.116
12228SOL     OW48311   1.770   3.148  18.890
12228SOL    HW148312   1.756   3.114  18.978
12228SOL    HW248313   1.855   3.192  18.895
12229SOL     OW48314   0.044   2.768  18.201
12229SOL    HW148315   0.105   2.806  18.264
12229SOL    HW248316   4.740   2.783  18.239
12230SOL     OW48317   3.056   3.362  11.186
12230SOL    HW148318   3.019   3.286  11.230
12230SOL    HW248319   2.981   3.421  11.175
12231SOL     OW48320   3.899   4.601   5.135
12231SOL    HW148321   3.926   4.692   5.121
12231SOL    HW248322   3.979   4.550   5.125
12232SOL     OW48323   1.499   3.344   9.025
12232SOL    HW148324   1.525   3.310   8.939
12232SOL    HW248325   1.576   3.331   9.080
12233SOL     OW48326   1.983   4.155  23.113
12233SOL    HW148327   2.015   4.082  23.060
12233SOL    HW248328   1.888   4.149  23.106
12234SOL     OW48329   1.756   3.658  11.013
12234SOL    HW148330   1.818   3.623  10.949
12234SOL    HW248331   1.692   3.707  10.961
12235SOL     OW48332   4.375   3.897  21.394
12235SOL    HW148333   4.383   3.806  21.367
12235SOL    HW248334   4.438   3.944  21.339
12236SOL     OW48335   4.694   2.455  23.636
12236SOL    HW148336   4.738   2.531  23.674
12236SOL    HW248337   4.612   2.489  23.600
12237SOL     OW48338   1.053   3.198   3.012
12237SOL    HW148339   1.054   3.288   2.980
12237SOL    HW248340   0.977   3.158   2.970
12238SOL     OW48341   1.624   4.086   8.729
12238SOL    HW148342   1.553   4.134   8.687
12238SOL    HW248343   1.638   4.133   8.812
12239SOL     OW48344   2.543   3.409   1.239
12239SOL    HW148345   2.546   3.313   1.235
12239SOL    HW248346   2.459   3.429   1.280
12240SOL     OW48347   1.852   1.821   6.678
12240SOL    HW148348   1.799   1.766   6.736
12240SOL    HW248349   1.879   1.895   6.733
12241SOL     OW48350   4.570   3.562  17.148
12241SOL    HW148351   4.628   3.491  17.120
12241SOL    HW248352   4.616   3.642  17.122
12242SOL     OW48353   0.572   3.851  18.853
12242SOL    HW148354   0.661   3.886  18.853
12242SOL    HW248355   0.536   3.878  18.938
12243SOL     OW48356   1.841   1.020  16.630
12243SOL    HW148357   1.772   1.039  16.566
12243SOL    HW248358   1.857   0.926  16.620
12244SOL     OW48359   3.084   3.300   5.295
12244SOL    HW148360   3.036   3.371   5.253
12244SOL    HW248361   3.160   3.343   5.334
12245SOL     OW48362   2.968   1.107  26.470
12245SOL    HW148363   3.061   1.097  26.493
12245SOL    HW248364   2.942   1.021  26.439
12246SOL     OW48365   1.692   3.590  22.708
12246SOL    HW148366   1.731   3.504  22.691
12246SOL    HW248367   1.674   3.626  22.621
12247SOL     OW48368   0.519   0.259  21.505
12247SOL    HW148369   0.503   0.213  21.588
12247SOL    HW248370   0.501   0.193  21.438
12248SOL     OW48371   0.670   1.270  23.201
12248SOL    HW148372   0.576   1.261  23.184
12248SOL    HW248373   0.682   1.234  23.288
12249SOL     OW48374   4.301   3.865   2.489
12249SOL    HW148375   4.363   3.793   2.475
12249SOL    HW248376   4.316   3.892   2.580
12250SOL     OW48377   2.913   2.049   8.358
12250SOL    HW148378   2.867   2.133   8.350
12250SOL    HW248379   3.006   2.073   8.364
12251SOL     OW48380   0.108   1.188   9.621
12251SOL    HW148381   0.155   1.104   9.614
12251SOL    HW248382   0.019   1.164   9.647
12252SOL     OW48383   2.588   4.686   8.695
12252SOL    HW148384   2.659   4.626   8.716
12252SOL    HW248385   2.590   4.751   8.765
12253SOL     OW48386   1.177   0.079  20.501
12253SOL    HW148387   1.164   0.169  20.530
12253SOL    HW248388   1.240   0.085  20.430
12254SOL     OW48389   2.822   2.486  20.898
12254SOL    HW148390   2.844   2.556  20.960
12254SOL    HW248391   2.881   2.415  20.922
12255SOL     OW48392   3.764   2.623   1.111
12255SOL    HW148393   3.775   2.565   1.187
12255SOL    HW248394   3.723   2.702   1.147
12256SOL     OW48395   2.151   1.073  22.084
12256SOL    HW148396   2.062   1.044  22.066
12256SOL    HW248397   2.156   1.078  22.179
12257SOL     OW48398   1.499   2.456   6.917
12257SOL    HW148399   1.458   2.410   6.991
12257SOL    HW248400   1.462   2.544   6.920
12258SOL     OW48401   1.234   2.821   3.741
12258SOL    HW148402   1.226   2.874   3.820
12258SOL    HW248403   1.144   2.812   3.710
12259SOL     OW48404   2.340   1.660  25.820
12259SOL    HW148405   2.426   1.672  25.780
12259SOL    HW248406   2.341   1.718  25.897
12260SOL     OW48407   4.730   1.322   5.144
12260SOL    HW148408   4.697   1.407   5.173
12260SOL    HW248409   0.035   1.317   5.182
12261SOL     OW48410   0.593   1.757   2.698
12261SOL    HW148411   0.554   1.709   2.625
12261SOL    HW248412   0.685   1.731   2.698
12262SOL     OW48413   4.761   3.240   9.016
12262SOL    HW148414   4.757   3.151   8.980
12262SOL    HW248415   4.682   3.248   9.069
12263SOL     OW48416   4.672   1.637   9.278
12263SOL    HW148417   4.590   1.593   9.255
12263SOL    HW248418   4.681   1.706   9.212
12264SOL     OW48419   4.515   3.570   5.960
12264SOL    HW148420   4.602   3.561   5.920
12264SOL    HW248421   4.530   3.555   6.053
12265SOL     OW48422   0.076   2.941   3.213
12265SOL    HW148423   0.141   2.955   3.144
12265SOL    HW248424   0.111   2.866   3.263
12266SOL     OW48425   4.717   2.350  21.101
12266SOL    HW148426   4.638   2.314  21.059
12266SOL    HW248427   4.687   2.380  21.187
12267SOL     OW48428   0.263   4.502   9.953
12267SOL    HW148429   0.350   4.517   9.916
12267SOL    HW248430   0.270   4.416   9.995
12268SOL     OW48431   1.132   1.614   5.488
12268SOL    HW148432   1.098   1.561   5.560
12268SOL    HW248433   1.150   1.699   5.528
12269SOL     OW48434   0.111   3.356   4.381
12269SOL    HW148435   0.023   3.321   4.370
12269SOL    HW248436   0.162   3.315   4.311
12270SOL     OW48437   1.913   3.375   3.175
12270SOL    HW148438   1.871   3.301   3.131
12270SOL    HW248439   1.968   3.335   3.242
12271SOL     OW48440   3.037   3.187  21.759
12271SOL    HW148441   2.998   3.111  21.802
12271SOL    HW248442   2.971   3.215  21.696
12272SOL     OW48443   0.346   4.372   3.962
12272SOL    HW148444   0.275   4.408   4.015
12272SOL    HW248445   0.346   4.278   3.983
12273SOL     OW48446   2.133   3.613   5.795
12273SOL    HW148447   2.184   3.553   5.850
12273SOL    HW248448   2.116   3.563   5.715
12274SOL     OW48449   1.173   1.755  20.626
12274SOL    HW148450   1.110   1.814  20.584
12274SOL    HW248451   1.217   1.810  20.691
12275SOL     OW48452   2.801   2.575  28.125
12275SOL    HW148453   2.722   2.588  28.073
12275SOL    HW248454   2.791   2.633  28.201
12276SOL     OW48455   0.078   4.109  22.234
12276SOL    HW148456   0.052   4.196  22.204
12276SOL    HW248457   0.173   4.107  22.224
12277SOL     OW48458   3.965   4.037  21.096
12277SOL    HW148459   3.894   4.099  21.082
12277SOL    HW248460   3.988   4.047  21.189
12278SOL     OW48461   1.569   3.858   5.104
12278SOL    HW148462   1.665   3.861   5.106
12278SOL    HW248463   1.547   3.874   5.012
12279SOL     OW48464   2.044   3.915   2.665
12279SOL    HW148465   2.140   3.911   2.666
12279SOL    HW248466   2.024   4.001   2.700
12280SOL     OW48467   1.896   4.631  27.851
12280SOL    HW148468   1.882   4.679  27.770
12280SOL    HW248469   1.886   4.697  27.920
12281SOL     OW48470   2.958   2.198   0.368
12281SOL    HW148471   2.862   2.202   0.364
12281SOL    HW248472   2.978   2.105   0.380
12282SOL     OW48473   1.826   1.317  21.993
12282SOL    HW148474   1.859   1.230  22.014
12282SOL    HW248475   1.762   1.303  21.924
12283SOL     OW48476   0.697   0.251  23.247
12283SOL    HW148477   0.718   0.161  23.269
12283SOL    HW248478   0.691   0.251  23.151
12284SOL     OW48479   4.298   1.964   4.265
12284SOL    HW148480   4.234   2.008   4.321
12284SOL    HW248481   4.364   1.930   4.325
12285SOL     OW48482   0.049   3.980  27.222
12285SOL    HW148483   4.773   4.011  27.153
12285SOL    HW248484   4.772   3.954  27.293
12286SOL     OW48485   1.430   2.079   0.865
12286SOL    HW148486   1.368   2.006   0.866
12286SOL    HW248487   1.386   2.147   0.814
12287SOL     OW48488   1.631   0.976  22.958
12287SOL    HW148489   1.656   0.956  22.868
12287SOL    HW248490   1.625   1.071  22.961
12288SOL     OW48491   2.993   3.497  25.748
12288SOL    HW148492   3.068   3.552  25.722
12288SOL    HW248493   2.998   3.422  25.689
12289SOL     OW48494   0.881   0.531   9.722
12289SOL    HW148495   0.819   0.536   9.650
12289SOL    HW248496   0.827   0.530   9.801
12290SOL     OW48497   4.016   0.905  20.891
12290SOL    HW148498   4.026   0.992  20.852
12290SOL    HW248499   4.103   0.882  20.923
12291SOL     OW48500   1.674   2.836  27.545
12291SOL    HW148501   1.584   2.852  27.517
12291SOL    HW248502   1.670   2.834  27.641
12292SOL     OW48503   4.584   0.891  22.382
12292SOL    HW148504   4.646   0.945  22.430
12292SOL    HW248505   4.639   0.833  22.329
12293SOL     OW48506   1.743   1.327   2.934
12293SOL    HW148507   1.808   1.397   2.936
12293SOL    HW248508   1.676   1.357   2.872
12294SOL     OW48509   3.781   0.235  28.313
12294SOL    HW148510   3.838   0.218  28.387
12294SOL    HW248511   3.744   0.322  28.330
12295SOL     OW48512   0.171   2.870   9.044
12295SOL    HW148513   0.241   2.874   8.979
12295SOL    HW248514   0.098   2.917   9.002
12296SOL     OW48515   2.689   0.967   8.982
12296SOL    HW148516   2.661   0.926   9.064
12296SOL    HW248517   2.766   1.019   9.007
12297SOL     OW48518   3.461   2.731   7.227
12297SOL    HW148519   3.456   2.638   7.202
12297SOL    HW248520   3.480   2.728   7.321
12298SOL     OW48521   2.667   2.233  18.376
12298SOL    HW148522   2.598   2.276  18.426
12298SOL    HW248523   2.626   2.156  18.338
12299SOL     OW48524   1.663   2.670  27.320
12299SOL    HW148525   1.703   2.694  27.403
12299SOL    HW248526   1.611   2.592  27.340
12300SOL     OW48527   2.181   0.248  22.429
12300SOL    HW148528   2.263   0.227  22.474
12300SOL    HW248529   2.209   0.298  22.352
12301SOL     OW48530   1.827   0.542  28.073
12301SOL    HW148531   1.841   0.628  28.033
12301SOL    HW248532   1.876   0.482  28.017
12302SOL     OW48533   2.641   3.324  22.190
12302SOL    HW148534   2.594   3.255  22.142
12302SOL    HW248535   2.728   3.326  22.149
12303SOL     OW48536   0.530   3.875  22.245
12303SOL    HW148537   0.571   3.791  22.228
12303SOL    HW248538   0.511   3.911  22.159
12304SOL     OW48539   3.518   4.512   2.023
12304SOL    HW148540   3.516   4.603   2.052
12304SOL    HW248541   3.428   4.481   2.033
12305SOL     OW48542   4.039   2.513  26.148
12305SOL    HW148543   4.029   2.472  26.063
12305SOL    HW248544   4.039   2.440  26.210
12306SOL     OW48545   3.561   2.012  27.265
12306SOL    HW148546   3.618   1.942  27.234
12306SOL    HW248547   3.509   2.037  27.188
12307SOL     OW48548   1.175   4.738   5.347
12307SOL    HW148549   1.141   0.030   5.297
12307SOL    HW248550   1.101   4.677   5.352
12308SOL     OW48551   2.762   3.072   7.528
12308SOL    HW148552   2.682   3.114   7.559
12308SOL    HW248553   2.830   3.138   7.542
12309SOL     OW48554   2.452   2.551   8.988
12309SOL    HW148555   2.481   2.461   8.978
12309SOL    HW248556   2.359   2.544   9.011
12310SOL     OW48557   4.242   4.559   4.741
12310SOL    HW148558   4.226   4.482   4.686
12310SOL    HW248559   4.154   4.592   4.761
12311SOL     OW48560   3.694   4.062  28.056
12311SOL    HW148561   3.714   3.972  28.085
12311SOL    HW248562   3.663   4.106  28.135
12312SOL     OW48563   0.437   0.504  23.711
12312SOL    HW148564   0.453   0.414  23.685
12312SOL    HW248565   0.360   0.530  23.660
12313SOL     OW48566   3.963   2.747  24.547
12313SOL    HW148567   3.893   2.720  24.607
12313SOL    HW248568   3.949   2.841  24.534
12314SOL     OW48569   0.282   3.636  27.918
12314SOL    HW148570   0.229   3.618  27.996
12314SOL    HW248571   0.220   3.671  27.854
12315SOL     OW48572   1.739   2.894  23.024
12315SOL    HW148573   1.777   2.895  22.937
12315SOL    HW248574   1.660   2.948  23.016
12316SOL     OW48575   2.684   3.588   8.319
12316SOL    HW148576   2.662   3.678   8.344
12316SOL    HW248577   2.746   3.597   8.248
12317SOL     OW48578   0.163   2.961  22.892
12317SOL    HW148579   0.160   2.912  22.810
12317SOL    HW248580   0.189   3.049  22.867
12318SOL     OW48581   0.736   0.046  27.785
12318SOL    HW148582   0.675   4.767  27.825
12318SOL    HW248583   0.783   0.084  27.859
12319SOL     OW48584   1.496   4.120   9.297
12319SOL    HW148585   1.518   4.054   9.231
12319SOL    HW248586   1.578   4.169   9.310
12320SOL     OW48587   4.712   1.210   5.578
12320SOL    HW148588   0.009   1.181   5.623
12320SOL    HW248589   4.641   1.192   5.640
12321SOL     OW48590   1.656   1.234  23.035
12321SOL    HW148591   1.581   1.286  23.008
12321SOL    HW248592   1.631   1.196  23.120
12322SOL     OW48593   1.025   2.782   2.675
12322SOL    HW148594   0.981   2.835   2.608
12322SOL    HW248595   1.012   2.831   2.756
12323SOL     OW48596   3.535   0.069   6.015
12323SOL    HW148597   3.497   0.066   5.927
12323SOL    HW248598   3.562   0.160   6.026
12324SOL     OW48599   3.725   1.293  24.597
12324SOL    HW148600   3.718   1.389  24.594
12324SOL    HW248601   3.753   1.269  24.509
12325SOL     OW48602   2.385   0.388  27.628
12325SOL    HW148603   2.413   0.331  27.699
12325SOL    HW248604   2.309   0.435  27.662
12326SOL     OW48605   2.445   2.836   7.789
12326SOL    HW148606   2.474   2.887   7.713
12326SOL    HW248607   2.500   2.867   7.861
12327SOL     OW48608   0.101   0.978   2.133
12327SOL    HW148609   0.054   1.043   2.184
12327SOL    HW248610   0.037   0.908   2.118
12328SOL     OW48611   4.642   0.835  21.417
12328SOL    HW148612   4.693   0.823  21.497
12328SOL    HW248613   4.707   0.832  21.346
12329SOL     OW48614   1.013   3.280  10.153
12329SOL    HW148615   1.080   3.254  10.089
12329SOL    HW248616   1.007   3.376  10.143
12330SOL     OW48617   0.623   0.325  10.979
12330SOL    HW148618   0.685   0.309  11.050
12330SOL    HW248619   0.564   0.250  10.980
12331SOL     OW48620   3.936   3.966  25.337
12331SOL    HW148621   3.869   4.006  25.392
12331SOL    HW248622   3.923   3.872  25.347
12332SOL     OW48623   0.377   2.844   5.806
12332SOL    HW148624   0.343   2.828   5.718
12332SOL    HW248625   0.426   2.926   5.799
12333SOL     OW48626   3.272   3.595   0.294
12333SOL    HW148627   3.259   3.561   0.205
12333SOL    HW248628   3.366   3.610   0.300
12334SOL     OW48629   3.054   4.255  19.452
12334SOL    HW148630   3.029   4.287  19.366
12334SOL    HW248631   3.059   4.334  19.507
12335SOL     OW48632   2.923   0.525   1.436
12335SOL    HW148633   2.921   0.612   1.394
12335SOL    HW248634   2.894   0.465   1.367
12336SOL     OW48635   3.548   2.960  10.696
12336SOL    HW148636   3.523   2.900  10.626
12336SOL    HW248637   3.611   2.911  10.749
12337SOL     OW48638   1.213   2.568  25.215
12337SOL    HW148639   1.269   2.500  25.179
12337SOL    HW248640   1.226   2.643  25.157
12338SOL     OW48641   0.777   4.392  20.019
12338SOL    HW148642   0.800   4.324  20.082
12338SOL    HW248643   0.714   4.447  20.064
12339SOL     OW48644   0.723   1.136  23.414
12339SOL    HW148645   0.651   1.179  23.460
12339SOL    HW248646   0.747   1.062  23.470
12340SOL     OW48647   1.348   3.631   4.719
12340SOL    HW148648   1.308   3.545   4.728
12340SOL    HW248649   1.429   3.615   4.670
12341SOL     OW48650   0.833   4.052  26.473
12341SOL    HW148651   0.775   4.062  26.398
12341SOL    HW248652   0.854   3.959  26.475
12342SOL     OW48653   3.374   4.736  22.793
12342SOL    HW148654   3.349   0.021  22.729
12342SOL    HW248655   3.382   4.656  22.741
12343SOL     OW48656   2.287   3.397   0.845
12343SOL    HW148657   2.256   3.306   0.852
12343SOL    HW248658   2.207   3.449   0.845
12344SOL     OW48659   0.696   0.818   3.401
12344SOL    HW148660   0.671   0.760   3.473
12344SOL    HW248661   0.626   0.883   3.396
12345SOL     OW48662   1.581   0.541   3.058
12345SOL    HW148663   1.557   0.465   3.112
12345SOL    HW248664   1.648   0.507   2.998
12346SOL     OW48665   0.001   1.439   0.233
12346SOL    HW148666   0.042   1.522   0.256
12346SOL    HW248667   0.066   1.373   0.257
12347SOL     OW48668   3.750   1.231   0.503
12347SOL    HW148669   3.780   1.224   0.594
12347SOL    HW248670   3.715   1.319   0.496
12348SOL     OW48671   3.635   0.913   3.635
12348SOL    HW148672   3.716   0.886   3.593
12348SOL    HW248673   3.576   0.838   3.625
12349SOL     OW48674   1.337   1.865   6.177
12349SOL    HW148675   1.374   1.788   6.220
12349SOL    HW248676   1.243   1.854   6.185
12350SOL     OW48677   1.895   4.218  21.694
12350SOL    HW148678   1.819   4.188  21.745
12350SOL    HW248679   1.869   4.205  21.603
12351SOL     OW48680   0.481   4.281   1.520
12351SOL    HW148681   0.521   4.211   1.467
12351SOL    HW248682   0.489   4.250   1.610
12352SOL     OW48683   3.609   1.926  20.763
12352SOL    HW148684   3.688   1.886  20.726
12352SOL    HW248685   3.580   1.988  20.697
12353SOL     OW48686   2.518   4.395  11.111
12353SOL    HW148687   2.548   4.468  11.166
12353SOL    HW248688   2.586   4.388  11.043
12354SOL     OW48689   2.893   3.304  25.450
12354SOL    HW148690   2.850   3.229  25.491
12354SOL    HW248691   2.965   3.266  25.400
12355SOL     OW48692   4.694   3.977   4.051
12355SOL    HW148693   4.745   3.994   3.972
12355SOL    HW248694   4.668   3.885   4.044
12356SOL     OW48695   2.613   2.817  22.776
12356SOL    HW148696   2.704   2.812  22.749
12356SOL    HW248697   2.573   2.738  22.741
12357SOL     OW48698   0.360   0.504   3.954
12357SOL    HW148699   0.355   0.592   3.919
12357SOL    HW248700   0.407   0.514   4.038
12358SOL     OW48701   0.893   0.013  18.618
12358SOL    HW148702   0.880   0.027  18.524
12358SOL    HW248703   0.909   4.701  18.626
12359SOL     OW48704   4.550   1.965  22.118
12359SOL    HW148705   4.481   1.928  22.173
12359SOL    HW248706   4.608   2.012  22.179
12360SOL     OW48707   0.106   0.486  23.493
12360SOL    HW148708   0.193   0.525  23.486
12360SOL    HW248709   0.053   0.533  23.429
12361SOL     OW48710   1.800   0.584   0.996
12361SOL    HW148711   1.727   0.637   1.027
12361SOL    HW248712   1.841   0.551   1.076
12362SOL     OW48713   0.186   4.308   1.492
12362SOL    HW148714   0.280   4.292   1.502
12362SOL    HW248715   0.180   4.370   1.419
12363SOL     OW48716   4.419   4.298   6.187
12363SOL    HW148717   4.510   4.270   6.197
12363SOL    HW248718   4.400   4.349   6.265
12364SOL     OW48719   2.195   1.331   7.101
12364SOL    HW148720   2.138   1.374   7.038
12364SOL    HW248721   2.273   1.308   7.050
12365SOL     OW48722   4.732   1.118  21.508
12365SOL    HW148723   4.642   1.148  21.516
12365SOL    HW248724   4.730   1.028  21.542
12366SOL     OW48725   1.778   1.462  26.489
12366SOL    HW148726   1.775   1.538  26.546
12366SOL    HW248727   1.868   1.428  26.499
12367SOL     OW48728   3.359   3.467   9.533
12367SOL    HW148729   3.366   3.452   9.628
12367SOL    HW248730   3.441   3.432   9.498
12368SOL     OW48731   1.279   3.493   2.893
12368SOL    HW148732   1.327   3.508   2.974
12368SOL    HW248733   1.220   3.569   2.887
12369SOL     OW48734   2.631   1.090   2.718
12369SOL    HW148735   2.569   1.047   2.777
12369SOL    HW248736   2.711   1.038   2.726
12370SOL     OW48737   2.267   0.173  22.764
12370SOL    HW148738   2.313   0.136  22.688
12370SOL    HW248739   2.292   0.265  22.765
12371SOL     OW48740   3.683   3.525   0.020
12371SOL    HW148741   3.632   3.571   0.087
12371SOL    HW248742   3.698   3.438   0.057
12372SOL     OW48743   1.640   0.258  13.609
12372SOL    HW148744   1.659   0.201  13.683
12372SOL    HW248745   1.589   0.330  13.647
12373SOL     OW48746   0.349   1.830   8.458
12373SOL    HW148747   0.352   1.902   8.521
12373SOL    HW248748   0.440   1.809   8.441
12374SOL     OW48749   3.928   4.321  24.906
12374SOL    HW148750   3.936   4.292  24.996
12374SOL    HW248751   3.994   4.270  24.859
12375SOL     OW48752   2.622   1.668  24.604
12375SOL    HW148753   2.561   1.705  24.540
12375SOL    HW248754   2.603   1.715  24.685
12376SOL     OW48755   2.488   4.766  21.831
12376SOL    HW148756   2.458   0.055  21.775
12376SOL    HW248757   2.421   4.759  21.899
12377SOL     OW48758   1.201   0.182  12.647
12377SOL    HW148759   1.189   0.111  12.709
12377SOL    HW248760   1.293   0.174  12.619
12378SOL     OW48761   1.141   4.321   9.859
12378SOL    HW148762   1.190   4.393   9.897
12378SOL    HW248763   1.053   4.356   9.845
12379SOL     OW48764   1.643   1.231   5.998
12379SOL    HW148765   1.611   1.227   6.088
12379SOL    HW248766   1.611   1.150   5.958
12380SOL     OW48767   2.983   0.283  22.282
12380SOL    HW148768   3.002   0.373  22.254
12380SOL    HW248769   2.904   0.259  22.234
12381SOL     OW48770   0.865   1.881   5.168
12381SOL    HW148771   0.823   1.909   5.249
12381SOL    HW248772   0.953   1.920   5.172
12382SOL     OW48773   2.234   4.167  25.214
12382SOL    HW148774   2.259   4.259  25.214
12382SOL    HW248775   2.316   4.120  25.200
12383SOL     OW48776   2.336   0.491   8.254
12383SOL    HW148777   2.384   0.467   8.175
12383SOL    HW248778   2.253   0.528   8.223
12384SOL     OW48779   3.555   3.360  20.184
12384SOL    HW148780   3.477   3.353  20.239
12384SOL    HW248781   3.534   3.428  20.120
12385SOL     OW48782   1.954   1.461   5.040
12385SOL    HW148783   1.989   1.473   5.129
12385SOL    HW248784   1.989   1.535   4.991
12386SOL     OW48785   1.375   3.898  10.545
12386SOL    HW148786   1.451   3.954  10.562
12386SOL    HW248787   1.341   3.877  10.632
12387SOL     OW48788   2.585   1.266  25.098
12387SOL    HW148789   2.672   1.232  25.075
12387SOL    HW248790   2.574   1.343  25.044
12388SOL     OW48791   2.735   4.417   7.923
12388SOL    HW148792   2.818   4.443   7.885
12388SOL    HW248793   2.753   4.405   8.016
12389SOL     OW48794   1.820   0.944  19.256
12389SOL    HW148795   1.802   1.037  19.241
12389SOL    HW248796   1.868   0.916  19.178
12390SOL     OW48797   3.236   0.979   7.843
12390SOL    HW148798   3.186   0.923   7.903
12390SOL    HW248799   3.182   0.982   7.764
12391SOL     OW48800   1.044   1.878   9.338
12391SOL    HW148801   1.139   1.889   9.342
12391SOL    HW248802   1.009   1.940   9.402
12392SOL     OW48803   3.638   2.637  25.537
12392SOL    HW148804   3.699   2.709  25.519
12392SOL    HW248805   3.690   2.573  25.586
12393SOL     OW48806   4.155   1.709   2.791
12393SOL    HW148807   4.067   1.697   2.756
12393SOL    HW248808   4.147   1.783   2.851
12394SOL     OW48809   1.264   1.064   8.747
12394SOL    HW148810   1.199   1.126   8.714
12394SOL    HW248811   1.337   1.119   8.776
12395SOL     OW48812   3.441   4.096   9.686
12395SOL    HW148813   3.497   4.021   9.708
12395SOL    HW248814   3.360   4.080   9.736
12396SOL     OW48815   4.409   4.781   3.912
12396SOL    HW148816   4.438   4.745   3.995
12396SOL    HW248817   4.316   0.018   3.926
12397SOL     OW48818   4.583   0.942  21.098
12397SOL    HW148819   4.538   0.886  21.162
12397SOL    HW248820   4.674   0.915  21.103
12398SOL     OW48821   0.205   4.365  23.069
12398SOL    HW148822   0.117   4.357  23.031
12398SOL    HW248823   0.190   4.393  23.159
12399SOL     OW48824   1.305   1.332   1.573
12399SOL    HW148825   1.237   1.277   1.534
12399SOL    HW248826   1.331   1.284   1.652
12400SOL     OW48827   1.075   2.119   8.216
12400SOL    HW148828   1.135   2.174   8.166
12400SOL    HW248829   0.992   2.126   8.169
12401SOL     OW48830   2.901   0.819   8.691
12401SOL    HW148831   2.824   0.856   8.649
12401SOL    HW248832   2.967   0.888   8.687
12402SOL     OW48833   0.502   3.925  23.206
12402SOL    HW148834   0.429   3.923  23.144
12402SOL    HW248835   0.494   3.843  23.255
12403SOL     OW48836   3.213   1.392   0.761
12403SOL    HW148837   3.170   1.311   0.731
12403SOL    HW248838   3.161   1.462   0.721
12404SOL     OW48839   4.741   2.697   5.365
12404SOL    HW148840   0.048   2.665   5.352
12404SOL    HW248841   4.707   2.644   5.436
12405SOL     OW48842   3.781   0.491   9.845
12405SOL    HW148843   3.707   0.443   9.883
12405SOL    HW248844   3.823   0.429   9.787
12406SOL     OW48845   2.419   1.541   3.278
12406SOL    HW148846   2.507   1.551   3.241
12406SOL    HW248847   2.428   1.569   3.369
12407SOL     OW48848   0.261   2.948  22.238
12407SOL    HW148849   0.220   2.959  22.153
12407SOL    HW248850   0.348   2.915  22.219
12408SOL     OW48851   3.845   2.614   2.028
12408SOL    HW148852   3.775   2.680   2.031
12408SOL    HW248853   3.799   2.531   2.038
12409SOL     OW48854   4.286   1.413  28.176
12409SOL    HW148855   4.329   1.362  28.107
12409SOL    HW248856   4.245   1.348  28.232
12410SOL     OW48857   0.551   1.192  22.360
12410SOL    HW148858   0.617   1.140  22.406
12410SOL    HW248859   0.483   1.208  22.426
12411SOL     OW48860   3.086   0.926   7.281
12411SOL    HW148861   3.160   0.981   7.255
12411SOL    HW248862   3.017   0.989   7.304
12412SOL     OW48863   1.168   4.685  26.770
12412SOL    HW148864   1.083   4.728  26.782
12412SOL    HW248865   1.180   4.682  26.676
12413SOL     OW48866   3.481   4.485  24.879
12413SOL    HW148867   3.399   4.483  24.829
12413SOL    HW248868   3.517   4.572  24.863
12414SOL     OW48869   4.305   0.255  21.126
12414SOL    HW148870   4.338   0.166  21.134
12414SOL    HW248871   4.226   0.256  21.179
12415SOL     OW48872   0.818   0.135  25.838
12415SOL    HW148873   0.777   0.156  25.754
12415SOL    HW248874   0.827   0.040  25.837
12416SOL     OW48875   4.740   3.720   7.614
12416SOL    HW148876   0.038   3.772   7.614
12416SOL    HW248877   4.762   3.643   7.562
12417SOL     OW48878   1.461   4.669   7.330
12417SOL    HW148879   1.461   4.635   7.240
12417SOL    HW248880   1.370   4.660   7.359
12418SOL     OW48881   2.672   1.103  19.467
12418SOL    HW148882   2.583   1.068  19.456
12418SOL    HW248883   2.685   1.158  19.389
12419SOL     OW48884   1.385   4.294  25.653
12419SOL    HW148885   1.290   4.295  25.667
12419SOL    HW248886   1.405   4.382  25.621
12420SOL     OW48887   4.075   1.997  23.242
12420SOL    HW148888   4.127   1.957  23.172
12420SOL    HW248889   3.985   1.971  23.222
12421SOL     OW48890   1.568   1.082  20.882
12421SOL    HW148891   1.582   0.997  20.924
12421SOL    HW248892   1.632   1.085  20.811
12422SOL     OW48893   0.732   4.376  26.362
12422SOL    HW148894   0.810   4.327  26.336
12422SOL    HW248895   0.683   4.315  26.418
12423SOL     OW48896   2.474   3.481   8.177
12423SOL    HW148897   2.530   3.525   8.240
12423SOL    HW248898   2.387   3.518   8.193
12424SOL     OW48899   1.975   1.451   0.942
12424SOL    HW148900   1.959   1.452   1.036
12424SOL    HW248901   2.012   1.537   0.922
12425SOL     OW48902   1.522   2.216  22.205
12425SOL    HW148903   1.617   2.212  22.192
12425SOL    HW248904   1.491   2.277  22.138
12426SOL     OW48905   4.460   3.018   5.152
12426SOL    HW148906   4.518   3.005   5.227
12426SOL    HW248907   4.516   3.006   5.076
12427SOL     OW48908   2.458   2.946   8.899
12427SOL    HW148909   2.497   3.007   8.961
12427SOL    HW248910   2.520   2.873   8.894
12428SOL     OW48911   2.415   0.036   0.245
12428SOL    HW148912   2.392   4.726   0.235
12428SOL    HW248913   2.478   0.037   0.317
12429SOL     OW48914   1.242   3.286  25.218
12429SOL    HW148915   1.327   3.241  25.217
12429SOL    HW248916   1.251   3.355  25.152
12430SOL     OW48917   0.497   0.127  21.768
12430SOL    HW148918   0.582   0.089  21.747
12430SOL    HW248919   0.518   0.204  21.821
12431SOL     OW48920   3.428   4.696  11.099
12431SOL    HW148921   3.478   4.670  11.177
12431SOL    HW248922   3.391   4.782  11.122
12432SOL     OW48923   3.422   0.048  20.953
12432SOL    HW148924   3.387   4.766  21.014
12432SOL    HW248925   3.471   4.780  20.888
12433SOL     OW48926   1.195   1.131  25.873
12433SOL    HW148927   1.128   1.070  25.842
12433SOL    HW248928   1.260   1.133  25.803
12434SOL     OW48929   0.696   1.803  25.134
12434SOL    HW148930   0.601   1.795  25.127
12434SOL    HW248931   0.725   1.714  25.157
12435SOL     OW48932   1.232   0.444   6.102
12435SOL    HW148933   1.226   0.428   6.197
12435SOL    HW248934   1.301   0.510   6.094
12436SOL     OW48935   2.656   2.346  17.506
12436SOL    HW148936   2.656   2.252  17.524
12436SOL    HW248937   2.679   2.354  17.414
12437SOL     OW48938   1.883   3.225  20.384
12437SOL    HW148939   1.945   3.297  20.373
12437SOL    HW248940   1.930   3.161  20.438
12438SOL     OW48941   0.285   0.742   9.046
12438SOL    HW148942   0.341   0.679   9.001
12438SOL    HW248943   0.339   0.776   9.118
12439SOL     OW48944   3.286   2.780   4.484
12439SOL    HW148945   3.264   2.818   4.569
12439SOL    HW248946   3.202   2.766   4.441
12440SOL     OW48947   4.330   0.484  21.540
12440SOL    HW148948   4.235   0.471  21.539
12440SOL    HW248949   4.361   0.439  21.462
12441SOL     OW48950   2.787   1.304  17.605
12441SOL    HW148951   2.783   1.225  17.550
12441SOL    HW248952   2.816   1.373  17.546
12442SOL     OW48953   0.013   0.504  26.588
12442SOL    HW148954   0.098   0.543  26.610
12442SOL    HW248955   4.733   0.550  26.645
12443SOL     OW48956   4.541   0.374  10.666
12443SOL    HW148957   4.536   0.280  10.646
12443SOL    HW248958   4.552   0.377  10.761
12444SOL     OW48959   0.398   4.261   2.723
12444SOL    HW148960   0.491   4.240   2.713
12444SOL    HW248961   0.388   4.346   2.681
12445SOL     OW48962   4.244   2.658  23.130
12445SOL    HW148963   4.228   2.752  23.127
12445SOL    HW248964   4.320   2.648  23.187
12446SOL     OW48965   2.157   4.250  27.080
12446SOL    HW148966   2.123   4.167  27.114
12446SOL    HW248967   2.249   4.250  27.106
12447SOL     OW48968   4.230   3.960  21.023
12447SOL    HW148969   4.161   4.023  21.047
12447SOL    HW248970   4.189   3.904  20.957
12448SOL     OW48971   0.123   0.517  21.178
12448SOL    HW148972   0.086   0.547  21.261
12448SOL    HW248973   0.060   0.545  21.111
12449SOL     OW48974   2.148   0.179   5.167
12449SOL    HW148975   2.124   0.089   5.188
12449SOL    HW248976   2.216   0.171   5.100
12450SOL     OW48977   0.570   3.667   0.918
12450SOL    HW148978   0.629   3.682   0.844
12450SOL    HW248979   0.523   3.587   0.896
12451SOL     OW48980   3.519   2.188  19.208
12451SOL    HW148981   3.436   2.186  19.162
12451SOL    HW248982   3.517   2.111  19.264
12452SOL     OW48983   2.349   1.727  24.998
12452SOL    HW148984   2.266   1.679  25.004
12452SOL    HW248985   2.381   1.710  24.910
12453SOL     OW48986   0.136   3.185   5.060
12453SOL    HW148987   0.211   3.155   5.008
12453SOL    HW248988   0.070   3.117   5.048
12454SOL     OW48989   1.524   0.964  24.265
12454SOL    HW148990   1.567   1.039  24.223
12454SOL    HW248991   1.592   0.898  24.273
12455SOL     OW48992   4.453   0.042  21.259
12455SOL    HW148993   4.433   4.730  21.263
12455SOL    HW248994   4.542   0.045  21.225
12456SOL     OW48995   3.348   2.794  19.183
12456SOL    HW148996   3.388   2.854  19.245
12456SOL    HW248997   3.302   2.730  19.237
12457SOL     OW48998   3.104   2.989  22.907
12457SOL    HW148999   3.017   2.975  22.870
12457SOL    HW249000   3.123   2.908  22.955
12458SOL     OW49001   0.713   1.317   9.443
12458SOL    HW149002   0.685   1.319   9.352
12458SOL    HW249003   0.651   1.257   9.486
12459SOL     OW49004   3.429   3.446  17.242
12459SOL    HW149005   3.487   3.447  17.166
12459SOL    HW249006   3.387   3.360  17.240
12460SOL     OW49007   4.670   0.301  26.734
12460SOL    HW149008   4.733   0.353  26.685
12460SOL    HW249009   4.665   0.343  26.820
12461SOL     OW49010   3.695   4.511  27.120
12461SOL    HW149011   3.648   4.437  27.158
12461SOL    HW249012   3.728   4.479  27.037
12462SOL     OW49013   2.266   3.123   3.014
12462SOL    HW149014   2.327   3.189   3.047
12462SOL    HW249015   2.187   3.135   3.066
12463SOL     OW49016   2.800   0.633  22.461
12463SOL    HW149017   2.761   0.654  22.376
12463SOL    HW249018   2.752   0.555  22.491
12464SOL     OW49019   0.457   4.113  20.273
12464SOL    HW149020   0.433   4.062  20.196
12464SOL    HW249021   0.405   4.075  20.344
12465SOL     OW49022   0.754   2.088  21.817
12465SOL    HW149023   0.711   2.158  21.867
12465SOL    HW249024   0.833   2.068  21.868
12466SOL     OW49025   3.755   4.571  25.059
12466SOL    HW149026   3.729   4.563  24.967
12466SOL    HW249027   3.684   4.620  25.100
12467SOL     OW49028   2.495   4.206   9.726
12467SOL    HW149029   2.528   4.276   9.669
12467SOL    HW249030   2.505   4.126   9.674
12468SOL     OW49031   0.676   4.107  10.565
12468SOL    HW149032   0.689   4.161  10.486
12468SOL    HW249033   0.615   4.157  10.619
12469SOL     OW49034   3.199   3.411  21.805
12469SOL    HW149035   3.142   3.334  21.804
12469SOL    HW249036   3.263   3.392  21.874
12470SOL     OW49037   4.221   2.861   8.338
12470SOL    HW149038   4.185   2.950   8.341
12470SOL    HW249039   4.298   2.868   8.281
12471SOL     OW49040   2.113   3.701   0.524
12471SOL    HW149041   2.036   3.715   0.580
12471SOL    HW249042   2.177   3.766   0.555
12472SOL     OW49043   2.457   3.328  25.571
12472SOL    HW149044   2.470   3.257  25.509
12472SOL    HW249045   2.499   3.299  25.652
12473SOL     OW49046   3.612   2.056   2.106
12473SOL    HW149047   3.591   2.137   2.059
12473SOL    HW249048   3.540   1.997   2.083
12474SOL     OW49049   4.441   1.121   3.810
12474SOL    HW149050   4.354   1.093   3.837
12474SOL    HW249051   4.426   1.173   3.731
12475SOL     OW49052   3.603   1.677  20.557
12475SOL    HW149053   3.538   1.743  20.581
12475SOL    HW249054   3.551   1.599  20.535
12476SOL     OW49055   3.378   0.609   2.590
12476SOL    HW149056   3.320   0.623   2.665
12476SOL    HW249057   3.451   0.670   2.605
12477SOL     OW49058   1.039   4.607   2.781
12477SOL    HW149059   0.977   4.585   2.711
12477SOL    HW249060   0.989   4.662   2.841
12478SOL     OW49061   4.627   0.446  22.981
12478SOL    HW149062   4.578   0.442  23.063
12478SOL    HW249063   4.682   0.368  22.981
12479SOL     OW49064   1.241   1.445  24.708
12479SOL    HW149065   1.336   1.436  24.722
12479SOL    HW249066   1.228   1.427  24.615
12480SOL     OW49067   0.354   0.270  28.265
12480SOL    HW149068   0.414   0.243  28.195
12480SOL    HW249069   0.323   0.187  28.303
12481SOL     OW49070   1.653   0.949   6.394
12481SOL    HW149071   1.679   0.857   6.400
12481SOL    HW249072   1.608   0.967   6.476
12482SOL     OW49073   1.748   2.546   7.462
12482SOL    HW149074   1.670   2.560   7.408
12482SOL    HW249075   1.716   2.499   7.539
12483SOL     OW49076   2.582   0.922  22.663
12483SOL    HW149077   2.575   0.983  22.590
12483SOL    HW249078   2.560   0.837  22.625
12484SOL     OW49079   3.048   3.515  22.409
12484SOL    HW149080   3.021   3.552  22.325
12484SOL    HW249081   2.992   3.439  22.421
12485SOL     OW49082   0.782   0.021   3.970
12485SOL    HW149083   0.774   4.761   4.055
12485SOL    HW249084   0.716   4.759   3.916
12486SOL     OW49085   4.227   2.264   1.975
12486SOL    HW149086   4.265   2.277   1.888
12486SOL    HW249087   4.187   2.177   1.972
12487SOL     OW49088   4.570   0.649   8.262
12487SOL    HW149089   4.621   0.630   8.184
12487SOL    HW249090   4.627   0.624   8.335
12488SOL     OW49091   3.249   2.749   5.406
12488SOL    HW149092   3.198   2.827   5.426
12488SOL    HW249093   3.184   2.685   5.374
12489SOL     OW49094   2.933   0.894  25.000
12489SOL    HW149095   2.958   0.882  25.092
12489SOL    HW249096   2.902   0.984  24.995
12490SOL     OW49097   1.340   4.683   7.676
12490SOL    HW149098   1.359   4.767   7.635
12490SOL    HW249099   1.272   4.644   7.621
12491SOL     OW49100   3.466   1.643   5.423
12491SOL    HW149101   3.403   1.715   5.421
12491SOL    HW249102   3.536   1.672   5.481
12492SOL     OW49103   3.716   3.455   0.692
12492SOL    HW149104   3.804   3.445   0.729
12492SOL    HW249105   3.731   3.494   0.606
12493SOL     OW49106   4.761   2.049  20.328
12493SOL    HW149107   4.671   2.027  20.355
12493SOL    HW249108   4.773   2.001  20.246
12494SOL     OW49109   1.542   3.721  26.004
12494SOL    HW149110   1.575   3.750  25.919
12494SOL    HW249111   1.553   3.626  26.002
12495SOL     OW49112   2.895   2.746   1.342
12495SOL    HW149113   2.805   2.765   1.366
12495SOL    HW249114   2.931   2.829   1.312
12496SOL     OW49115   1.588   3.866  27.918
12496SOL    HW149116   1.591   3.791  27.978
12496SOL    HW249117   1.665   3.917  27.940
12497SOL     OW49118   4.439   4.738  19.493
12497SOL    HW149119   4.377   4.690  19.547
12497SOL    HW249120   4.389   0.030  19.459
12498SOL     OW49121   1.594   1.397   5.537
12498SOL    HW149122   1.638   1.347   5.606
12498SOL    HW249123   1.641   1.481   5.535
12499SOL     OW49124   2.335   1.227  25.445
12499SOL    HW149125   2.359   1.161  25.380
12499SOL    HW249126   2.384   1.305  25.419
12500SOL     OW49127   3.136   1.279   2.416
12500SOL    HW149128   3.063   1.275   2.354
12500SOL    HW249129   3.203   1.331   2.370
12501SOL     OW49130   4.519   3.833  23.790
12501SOL    HW149131   4.453   3.887  23.833
12501SOL    HW249132   4.557   3.781  23.860
12502SOL     OW49133   1.107   0.833   6.039
12502SOL    HW149134   1.186   0.786   6.063
12502SOL    HW249135   1.123   0.865   5.950
12503SOL     OW49136   3.694   1.055  25.984
12503SOL    HW149137   3.648   1.041  25.901
12503SOL    HW249138   3.665   1.141  26.013
12504SOL     OW49139   2.110   3.869  27.799
12504SOL    HW149140   2.126   3.804  27.731
12504SOL    HW249141   2.046   3.929  27.761
12505SOL     OW49142   2.113   1.409   5.631
12505SOL    HW149143   2.112   1.498   5.666
12505SOL    HW249144   2.204   1.381   5.640
12506SOL     OW49145   2.526   1.079   1.530
12506SOL    HW149146   2.442   1.077   1.483
12506SOL    HW249147   2.577   1.009   1.490
12507SOL     OW49148   2.728   4.480   2.857
12507SOL    HW149149   2.797   4.414   2.848
12507SOL    HW249150   2.766   4.559   2.821
12508SOL     OW49151   0.424   0.502  21.867
12508SOL    HW149152   0.478   0.578  21.889
12508SOL    HW249153   0.483   0.427  21.875
12509SOL     OW49154   2.013   1.577  25.399
12509SOL    HW149155   1.924   1.542  25.396
12509SOL    HW249156   2.062   1.516  25.454
12510SOL     OW49157   2.060   2.475  27.454
12510SOL    HW149158   2.023   2.557  27.488
12510SOL    HW249159   2.106   2.501  27.374
12511SOL     OW49160   0.153   1.044   9.933
12511SOL    HW149161   0.190   1.031   9.846
12511SOL    HW249162   0.215   1.103   9.977
12512SOL     OW49163   0.764   0.062  24.269
12512SOL    HW149164   0.709   0.138  24.289
12512SOL    HW249165   0.824   0.094  24.202
12513SOL     OW49166   2.863   3.594   1.679
12513SOL    HW149167   2.927   3.546   1.732
12513SOL    HW249168   2.915   3.663   1.637
12514SOL     OW49169   4.628   1.200  18.080
12514SOL    HW149170   4.642   1.123  18.135
12514SOL    HW249171   4.587   1.264  18.138
12515SOL     OW49172   0.287   2.243  12.762
12515SOL    HW149173   0.295   2.154  12.796
12515SOL    HW249174   0.343   2.296  12.818
12516SOL     OW49175   1.502   0.992   0.408
12516SOL    HW149176   1.513   0.897   0.400
12516SOL    HW249177   1.550   1.015   0.487
12517SOL     OW49178   2.410   4.072   4.858
12517SOL    HW149179   2.484   4.012   4.847
12517SOL    HW249180   2.381   4.058   4.948
12518SOL     OW49181   2.253   3.123  10.593
12518SOL    HW149182   2.195   3.059  10.634
12518SOL    HW249183   2.315   3.148  10.662
12519SOL     OW49184   3.168   4.217   0.481
12519SOL    HW149185   3.132   4.142   0.433
12519SOL    HW249186   3.258   4.191   0.502
12520SOL     OW49187   0.245   4.430   9.612
12520SOL    HW149188   0.252   4.336   9.597
12520SOL    HW249189   0.294   4.445   9.693
12521SOL     OW49190   1.907   0.226   8.272
12521SOL    HW149191   1.976   0.159   8.272
12521SOL    HW249192   1.859   0.211   8.353
12522SOL     OW49193   4.195   1.029  20.458
12522SOL    HW149194   4.243   1.026  20.376
12522SOL    HW249195   4.130   0.958  20.451
12523SOL     OW49196   0.635   2.652   9.946
12523SOL    HW149197   0.658   2.588   9.879
12523SOL    HW249198   0.584   2.603  10.010
12524SOL     OW49199   4.745   3.065   8.571
12524SOL    HW149200   0.003   3.010   8.504
12524SOL    HW249201   4.658   3.086   8.536
12525SOL     OW49202   3.216   2.099   4.374
12525SOL    HW149203   3.135   2.048   4.382
12525SOL    HW249204   3.266   2.053   4.306
12526SOL     OW49205   3.128   0.898   9.026
12526SOL    HW149206   3.052   0.948   9.056
12526SOL    HW249207   3.195   0.964   9.011
12527SOL     OW49208   2.809   0.079  25.026
12527SOL    HW149209   2.789   4.771  25.003
12527SOL    HW249210   2.729   0.128  25.005
12528SOL     OW49211   1.063   0.944   1.921
12528SOL    HW149212   1.056   1.008   1.992
12528SOL    HW249213   1.127   0.880   1.951
12529SOL     OW49214   1.935   3.056  23.190
12529SOL    HW149215   1.873   3.077  23.260
12529SOL    HW249216   1.892   2.985  23.141
12530SOL     OW49217   3.717   4.388  25.803
12530SOL    HW149218   3.721   4.294  25.789
12530SOL    HW249219   3.794   4.423  25.758
12531SOL     OW49220   2.709   0.988   6.662
12531SOL    HW149221   2.754   0.984   6.746
12531SOL    HW249222   2.618   1.007   6.684
12532SOL     OW49223   2.403   3.774   8.026
12532SOL    HW149224   2.407   3.779   8.122
12532SOL    HW249225   2.426   3.863   7.997
12533SOL     OW49226   2.676   4.060   1.776
12533SOL    HW149227   2.768   4.051   1.751
12533SOL    HW249228   2.646   4.140   1.732
12534SOL     OW49229   3.615   2.816  24.854
12534SOL    HW149230   3.582   2.894  24.809
12534SOL    HW249231   3.568   2.814  24.937
12535SOL     OW49232   1.598   0.817  10.572
12535SOL    HW149233   1.601   0.721  10.574
12535SOL    HW249234   1.657   0.842  10.500
12536SOL     OW49235   3.513   0.894  21.957
12536SOL    HW149236   3.419   0.900  21.943
12536SOL    HW249237   3.540   0.983  21.980
12537SOL     OW49238   4.614   0.857   5.049
12537SOL    HW149239   4.608   0.946   5.083
12537SOL    HW249240   4.586   0.865   4.957
12538SOL     OW49241   4.091   2.434   2.346
12538SOL    HW149242   4.124   2.516   2.307
12538SOL    HW249243   4.166   2.375   2.346
12539SOL     OW49244   0.507   3.282  26.984
12539SOL    HW149245   0.516   3.262  27.078
12539SOL    HW249246   0.528   3.199  26.941
12540SOL     OW49247   0.523   1.303   9.796
12540SOL    HW149248   0.436   1.330   9.769
12540SOL    HW249249   0.553   1.243   9.727
12541SOL     OW49250   0.469   0.063   7.941
12541SOL    HW149251   0.465   4.761   7.897
12541SOL    HW249252   0.527   0.049   8.016
12542SOL     OW49253   2.917   3.800  10.536
12542SOL    HW149254   2.904   3.742  10.612
12542SOL    HW249255   2.920   3.740  10.462
12543SOL     OW49256   4.417   0.386  17.911
12543SOL    HW149257   4.327   0.381  17.878
12543SOL    HW249258   4.438   0.479  17.910
12544SOL     OW49259   1.830   3.730  24.344
12544SOL    HW149260   1.754   3.708  24.291
12544SOL    HW249261   1.906   3.703  24.292
12545SOL     OW49262   1.699   0.796  23.149
12545SOL    HW149263   1.710   0.714  23.100
12545SOL    HW249264   1.660   0.857  23.086
12546SOL     OW49265   1.125   2.681  25.713
12546SOL    HW149266   1.158   2.759  25.757
12546SOL    HW249267   1.151   2.691  25.622
12547SOL     OW49268   4.518   4.264   5.268
12547SOL    HW149269   4.461   4.316   5.325
12547SOL    HW249270   4.606   4.277   5.303
12548SOL     OW49271   4.120   1.679  23.487
12548SOL    HW149272   4.044   1.737  23.481
12548SOL    HW249273   4.186   1.721  23.432
12549SOL     OW49274   1.710   0.727   7.998
12549SOL    HW149275   1.803   0.705   8.000
12549SOL    HW249276   1.699   0.778   7.918
12550SOL     OW49277   2.249   0.550   9.874
12550SOL    HW149278   2.184   0.518   9.936
12550SOL    HW249279   2.204   0.621   9.827
12551SOL     OW49280   4.610   2.815  22.078
12551SOL    HW149281   4.623   2.720  22.086
12551SOL    HW249282   4.515   2.826  22.090
12552SOL     OW49283   4.691   2.702  21.461
12552SOL    HW149284   4.656   2.672  21.545
12552SOL    HW249285   4.622   2.757  21.425
12553SOL     OW49286   3.326   3.236  25.068
12553SOL    HW149287   3.390   3.169  25.094
12553SOL    HW249288   3.270   3.191  25.004
12554SOL     OW49289   3.615   2.812   0.399
12554SOL    HW149290   3.673   2.850   0.465
12554SOL    HW249291   3.612   2.877   0.329
12555SOL     OW49292   1.894   1.959   3.907
12555SOL    HW149293   1.868   1.949   3.998
12555SOL    HW249294   1.815   1.993   3.863
12556SOL     OW49295   3.866   4.160   3.921
12556SOL    HW149296   3.851   4.201   3.836
12556SOL    HW249297   3.779   4.146   3.957
12557SOL     OW49298   3.039   4.075  19.684
12557SOL    HW149299   3.010   3.987  19.659
12557SOL    HW249300   3.015   4.130  19.610
12558SOL     OW49301   1.301   2.774  10.419
12558SOL    HW149302   1.302   2.741  10.509
12558SOL    HW249303   1.233   2.842  10.419
12559SOL     OW49304   1.251   1.354  20.030
12559SOL    HW149305   1.174   1.389  19.986
12559SOL    HW249306   1.232   1.364  20.123
12560SOL     OW49307   1.185   2.928   9.090
12560SOL    HW149308   1.156   2.849   9.046
12560SOL    HW249309   1.108   2.960   9.137
12561SOL     OW49310   2.582   0.542  12.751
12561SOL    HW149311   2.631   0.467  12.782
12561SOL    HW249312   2.557   0.590  12.831
12562SOL     OW49313   3.589   2.285  17.982
12562SOL    HW149314   3.607   2.299  17.889
12562SOL    HW249315   3.626   2.199  18.001
12563SOL     OW49316   3.183   1.725   3.440
12563SOL    HW149317   3.242   1.793   3.408
12563SOL    HW249318   3.193   1.653   3.378
12564SOL     OW49319   4.636   2.801  28.165
12564SOL    HW149320   4.556   2.852  28.172
12564SOL    HW249321   4.635   2.743  28.242
12565SOL     OW49322   4.150   4.333   6.877
12565SOL    HW149323   4.219   4.388   6.840
12565SOL    HW249324   4.190   4.246   6.886
12566SOL     OW49325   0.236   2.583   5.030
12566SOL    HW149326   0.295   2.544   4.966
12566SOL    HW249327   0.287   2.589   5.111
12567SOL     OW49328   4.203   2.493   2.809
12567SOL    HW149329   4.195   2.588   2.796
12567SOL    HW249330   4.150   2.455   2.738
12568SOL     OW49331   4.746   4.485  26.818
12568SOL    HW149332   4.710   4.477  26.906
12568SOL    HW249333   0.058   4.471  26.829
12569SOL     OW49334   2.944   1.410  10.425
12569SOL    HW149335   2.978   1.500  10.432
12569SOL    HW249336   2.849   1.421  10.416
12570SOL     OW49337   4.445   2.583  26.790
12570SOL    HW149338   4.361   2.615  26.823
12570SOL    HW249339   4.492   2.663  26.766
12571SOL     OW49340   1.284   1.871  25.412
12571SOL    HW149341   1.233   1.884  25.332
12571SOL    HW249342   1.343   1.946  25.416
12572SOL     OW49343   3.886   2.454  25.506
12572SOL    HW149344   3.829   2.401  25.452
12572SOL    HW249345   3.896   2.536  25.457
12573SOL     OW49346   4.403   0.715  22.779
12573SOL    HW149347   4.436   0.646  22.722
12573SOL    HW249348   4.326   0.676  22.821
12574SOL     OW49349   3.612   0.924   7.245
12574SOL    HW149350   3.705   0.937   7.265
12574SOL    HW249351   3.593   0.991   7.179
12575SOL     OW49352   0.293   4.534   2.590
12575SOL    HW149353   0.386   4.512   2.598
12575SOL    HW249354   0.292   4.629   2.572
12576SOL     OW49355   4.588   3.978   0.406
12576SOL    HW149356   4.609   4.069   0.381
12576SOL    HW249357   4.596   3.929   0.324
12577SOL     OW49358   4.175   4.703   0.282
12577SOL    HW149359   4.131   4.742   0.358
12577SOL    HW249360   4.132   4.618   0.270
12578SOL     OW49361   0.611   1.909  24.147
12578SOL    HW149362   0.696   1.888  24.185
12578SOL    HW249363   0.630   1.976  24.082
12579SOL     OW49364   1.023   0.767  16.351
12579SOL    HW149365   1.071   0.793  16.272
12579SOL    HW249366   0.940   0.733  16.317
12580SOL     OW49367   3.449   1.123   5.568
12580SOL    HW149368   3.360   1.131   5.534
12580SOL    HW249369   3.479   1.213   5.580
12581SOL     OW49370   0.230   2.212  27.512
12581SOL    HW149371   0.180   2.147  27.462
12581SOL    HW249372   0.283   2.257  27.447
12582SOL     OW49373   3.505   1.545  18.064
12582SOL    HW149374   3.553   1.462  18.073
12582SOL    HW249375   3.455   1.535  17.983
12583SOL     OW49376   3.965   2.894  22.287
12583SOL    HW149377   4.058   2.915  22.285
12583SOL    HW249378   3.947   2.855  22.201
12584SOL     OW49379   1.825   3.792   0.239
12584SOL    HW149380   1.791   3.754   0.158
12584SOL    HW249381   1.841   3.716   0.296
12585SOL     OW49382   3.599   0.845   0.262
12585SOL    HW149383   3.674   0.800   0.223
12585SOL    HW249384   3.531   0.839   0.195
12586SOL     OW49385   4.320   0.407   3.324
12586SOL    HW149386   4.380   0.431   3.254
12586SOL    HW249387   4.322   0.311   3.326
12587SOL     OW49388   0.234   0.275   9.942
12587SOL    HW149389   0.236   0.183   9.918
12587SOL    HW249390   0.270   0.279  10.030
12588SOL     OW49391   2.065   0.320   9.538
12588SOL    HW149392   2.104   0.258   9.600
12588SOL    HW249393   2.138   0.345   9.481
12589SOL     OW49394   1.670   0.744   3.861
12589SOL    HW149395   1.618   0.770   3.785
12589SOL    HW249396   1.607   0.738   3.933
12590SOL     OW49397   4.149   2.078   2.716
12590SOL    HW149398   4.147   2.028   2.798
12590SOL    HW249399   4.229   2.129   2.721
12591SOL     OW49400   0.627   4.114   6.499
12591SOL    HW149401   0.620   4.197   6.546
12591SOL    HW249402   0.690   4.063   6.550
12592SOL     OW49403   0.310   2.595  25.054
12592SOL    HW149404   0.378   2.661  25.071
12592SOL    HW249405   0.355   2.511  25.064
12593SOL     OW49406   3.029   4.478   7.959
12593SOL    HW149407   3.065   4.483   8.047
12593SOL    HW249408   2.985   4.562   7.947
12594SOL     OW49409   3.828   2.780  26.656
12594SOL    HW149410   3.837   2.858  26.710
12594SOL    HW249411   3.822   2.707  26.718
12595SOL     OW49412   4.432   2.583  21.266
12595SOL    HW149413   4.478   2.667  21.260
12595SOL    HW249414   4.498   2.522  21.299
12596SOL     OW49415   2.442   4.262   6.608
12596SOL    HW149416   2.417   4.230   6.521
12596SOL    HW249417   2.506   4.198   6.640
12597SOL     OW49418   0.697   2.231  24.216
12597SOL    HW149419   0.607   2.263  24.210
12597SOL    HW249420   0.697   2.175  24.293
12598SOL     OW49421   4.101   0.199  25.651
12598SOL    HW149422   4.122   0.292  25.654
12598SOL    HW249423   4.142   0.163  25.730
12599SOL     OW49424   3.180   1.384   4.110
12599SOL    HW149425   3.204   1.345   4.194
12599SOL    HW249426   3.239   1.459   4.101
12600SOL     OW49427   0.738   3.260  28.097
12600SOL    HW149428   0.683   3.268  28.175
12600SOL    HW249429   0.772   3.348  28.082
12601SOL     OW49430   1.727   1.693  26.276
12601SOL    HW149431   1.799   1.639  26.309
12601SOL    HW249432   1.686   1.639  26.208
12602SOL     OW49433   2.694   3.004   0.290
12602SOL    HW149434   2.629   3.045   0.234
12602SOL    HW249435   2.764   2.976   0.230
12603SOL     OW49436   4.060   4.444  22.721
12603SOL    HW149437   4.096   4.393  22.793
12603SOL    HW249438   4.006   4.382  22.672
12604SOL     OW49439   2.588   0.296  25.498
12604SOL    HW149440   2.650   0.238  25.454
12604SOL    HW249441   2.507   0.287  25.447
12605SOL     OW49442   4.498   3.669  22.739
12605SOL    HW149443   4.470   3.651  22.829
12605SOL    HW249444   4.539   3.755  22.744
12606SOL     OW49445   0.191   1.692  27.359
12606SOL    HW149446   0.095   1.693  27.356
12606SOL    HW249447   0.212   1.647  27.441
12607SOL     OW49448   0.658   4.509  21.193
12607SOL    HW149449   0.624   4.425  21.227
12607SOL    HW249450   0.677   4.492  21.101
12608SOL     OW49451   3.541   2.396  27.116
12608SOL    HW149452   3.473   2.418  27.179
12608SOL    HW249453   3.605   2.467  27.124
12609SOL     OW49454   0.912   3.278   4.862
12609SOL    HW149455   0.928   3.192   4.825
12609SOL    HW249456   0.846   3.318   4.805
12610SOL     OW49457   4.569   1.122  23.063
12610SOL    HW149458   4.524   1.206  23.070
12610SOL    HW249459   4.552   1.079  23.147
12611SOL     OW49460   1.070   3.390  25.992
12611SOL    HW149461   0.981   3.410  26.020
12611SOL    HW249462   1.082   3.441  25.912
12612SOL     OW49463   4.499   2.217  17.632
12612SOL    HW149464   4.512   2.280  17.560
12612SOL    HW249465   4.436   2.154  17.596
12613SOL     OW49466   3.975   2.020  10.681
12613SOL    HW149467   4.030   1.969  10.740
12613SOL    HW249468   4.006   1.997  10.593
12614SOL     OW49469   0.493   0.793  16.687
12614SOL    HW149470   0.546   0.729  16.639
12614SOL    HW249471   0.410   0.795  16.640
12615SOL     OW49472   3.279   4.453  20.851
12615SOL    HW149473   3.371   4.431  20.867
12615SOL    HW249474   3.282   4.533  20.798
12616SOL     OW49475   4.435   0.265  25.495
12616SOL    HW149476   4.493   0.227  25.428
12616SOL    HW249477   4.363   0.303  25.445
12617SOL     OW49478   3.199   0.638   5.865
12617SOL    HW149479   3.153   0.709   5.820
12617SOL    HW249480   3.132   0.570   5.877
12618SOL     OW49481   1.162   2.412   7.375
12618SOL    HW149482   1.105   2.429   7.300
12618SOL    HW249483   1.232   2.357   7.340
12619SOL     OW49484   2.490   2.019  22.732
12619SOL    HW149485   2.415   2.061  22.774
12619SOL    HW249486   2.565   2.071  22.759
12620SOL     OW49487   2.349   3.589   8.845
12620SOL    HW149488   2.328   3.651   8.775
12620SOL    HW249489   2.439   3.563   8.827
12621SOL     OW49490   3.460   4.741   9.678
12621SOL    HW149491   3.413   4.684   9.738
12621SOL    HW249492   3.442   4.705   9.591
12622SOL     OW49493   2.325   3.857  26.936
12622SOL    HW149494   2.289   3.868  27.024
12622SOL    HW249495   2.397   3.795  26.948
12623SOL     OW49496   2.299   4.326  20.097
12623SOL    HW149497   2.359   4.357  20.165
12623SOL    HW249498   2.259   4.248  20.134
12624SOL     OW49499   3.151   2.994  20.627
12624SOL    HW149500   3.171   2.902  20.639
12624SOL    HW249501   3.067   2.994  20.580
12625SOL     OW49502   3.130   3.101  24.938
12625SOL    HW149503   3.078   3.111  24.858
12625SOL    HW249504   3.073   3.055  24.999
12626SOL     OW49505   3.407   1.139   4.527
12626SOL    HW149506   3.495   1.126   4.491
12626SOL    HW249507   3.419   1.201   4.599
12627SOL     OW49508   1.648   0.136  12.699
12627SOL    HW149509   1.628   0.142  12.793
12627SOL    HW249510   1.664   0.043  12.685
12628SOL     OW49511   3.199   0.711   2.774
12628SOL    HW149512   3.107   0.719   2.748
12628SOL    HW249513   3.197   0.652   2.849
12629SOL     OW49514   2.827   1.500   3.370
12629SOL    HW149515   2.827   1.408   3.397
12629SOL    HW249516   2.769   1.502   3.294
12630SOL     OW49517   2.354   2.538  22.067
12630SOL    HW149518   2.321   2.508  22.152
12630SOL    HW249519   2.425   2.599  22.089
12631SOL     OW49520   1.142   2.577  24.778
12631SOL    HW149521   1.142   2.485  24.752
12631SOL    HW249522   1.076   2.583  24.847
12632SOL     OW49523   1.903   0.557   1.274
12632SOL    HW149524   1.817   0.552   1.317
12632SOL    HW249525   1.915   0.470   1.237
12633SOL     OW49526   2.736   1.223  22.949
12633SOL    HW149527   2.801   1.270  23.002
12633SOL    HW249528   2.685   1.174  23.013
12634SOL     OW49529   1.875   0.589  17.457
12634SOL    HW149530   1.908   0.556  17.374
12634SOL    HW249531   1.780   0.598  17.444
12635SOL     OW49532   2.682   0.117  27.694
12635SOL    HW149533   2.674   0.032  27.650
12635SOL    HW249534   2.664   0.181  27.626
12636SOL     OW49535   1.282   0.961  23.016
12636SOL    HW149536   1.238   1.004  23.090
12636SOL    HW249537   1.211   0.935  22.958
12637SOL     OW49538   4.780   0.963  11.445
12637SOL    HW149539   0.066   0.932  11.385
12637SOL    HW249540   0.008   0.910  11.523
12638SOL     OW49541   3.559   3.607   0.349
12638SOL    HW149542   3.595   3.656   0.423
12638SOL    HW249543   3.565   3.668   0.275
12639SOL     OW49544   2.096   1.802  26.093
12639SOL    HW149545   2.098   1.789  26.188
12639SOL    HW249546   2.004   1.822  26.074
12640SOL     OW49547   0.466   1.472  23.688
12640SOL    HW149548   0.400   1.413  23.652
12640SOL    HW249549   0.527   1.487  23.616
12641SOL     OW49550   1.977   0.833  27.832
12641SOL    HW149551   1.924   0.832  27.912
12641SOL    HW249552   1.923   0.789  27.767
12642SOL     OW49553   2.203   2.095   6.991
12642SOL    HW149554   2.261   2.157   7.035
12642SOL    HW249555   2.226   2.103   6.899
12643SOL     OW49556   0.768   0.805  10.212
12643SOL    HW149557   0.708   0.859  10.262
12643SOL    HW249558   0.805   0.745  10.277
12644SOL     OW49559   4.061   2.515   4.332
12644SOL    HW149560   4.018   2.450   4.277
12644SOL    HW249561   4.007   2.594   4.322
12645SOL     OW49562   4.292   1.729  22.729
12645SOL    HW149563   4.337   1.788  22.790
12645SOL    HW249564   4.199   1.744  22.746
12646SOL     OW49565   2.477   2.992  21.376
12646SOL    HW149566   2.502   2.930  21.308
12646SOL    HW249567   2.420   2.941  21.434
12647SOL     OW49568   2.725   4.339   5.477
12647SOL    HW149569   2.773   4.391   5.412
12647SOL    HW249570   2.761   4.251   5.468
12648SOL     OW49571   1.106   4.392   1.345
12648SOL    HW149572   1.089   4.482   1.320
12648SOL    HW249573   1.021   4.349   1.342
12649SOL     OW49574   2.124   0.296   3.319
12649SOL    HW149575   2.081   0.377   3.289
12649SOL    HW249576   2.206   0.293   3.271
12650SOL     OW49577   2.974   1.808   9.947
12650SOL    HW149578   3.007   1.887   9.990
12650SOL    HW249579   2.976   1.741  10.016
12651SOL     OW49580   4.225   3.068  19.496
12651SOL    HW149581   4.161   3.140  19.499
12651SOL    HW249582   4.248   3.061  19.403
12652SOL     OW49583   1.457   0.342   3.191
12652SOL    HW149584   1.467   0.251   3.215
12652SOL    HW249585   1.362   0.357   3.193
12653SOL     OW49586   3.772   3.560  27.067
12653SOL    HW149587   3.768   3.612  27.148
12653SOL    HW249588   3.804   3.474  27.095
12654SOL     OW49589   2.541   4.666   6.533
12654SOL    HW149590   2.611   4.720   6.570
12654SOL    HW249591   2.462   4.719   6.543
12655SOL     OW49592   4.477   3.881   1.542
12655SOL    HW149593   4.546   3.925   1.491
12655SOL    HW249594   4.461   3.940   1.615
12656SOL     OW49595   0.336   2.220   1.190
12656SOL    HW149596   0.352   2.230   1.284
12656SOL    HW249597   0.311   2.129   1.179
12657SOL     OW49598   1.046   3.316  19.175
12657SOL    HW149599   0.962   3.270  19.173
12657SOL    HW249600   1.093   3.278  19.250
12658SOL     OW49601   2.366   0.242   4.227
12658SOL    HW149602   2.434   0.209   4.285
12658SOL    HW249603   2.411   0.265   4.146
12659SOL     OW49604   1.738   0.950   8.286
12659SOL    HW149605   1.784   0.932   8.204
12659SOL    HW249606   1.767   1.037   8.311
12660SOL     OW49607   2.545   1.064   1.140
12660SOL    HW149608   2.474   1.018   1.097
12660SOL    HW249609   2.624   1.039   1.091
12661SOL     OW49610   4.028   4.153  24.360
12661SOL    HW149611   4.059   4.114  24.278
12661SOL    HW249612   3.953   4.207  24.334
12662SOL     OW49613   4.694   2.308  28.302
12662SOL    HW149614   4.774   2.259  28.319
12662SOL    HW249615   4.701   2.335  28.211
12663SOL     OW49616   0.198   3.220   8.572
12663SOL    HW149617   0.118   3.171   8.585
12663SOL    HW249618   0.178   3.283   8.503
12664SOL     OW49619   4.334   4.387   7.160
12664SOL    HW149620   4.302   4.477   7.159
12664SOL    HW249621   4.255   4.333   7.154
12665SOL     OW49622   3.504   3.713   3.186
12665SOL    HW149623   3.550   3.692   3.105
12665SOL    HW249624   3.416   3.737   3.157
12666SOL     OW49625   1.610   0.673  22.125
12666SOL    HW149626   1.594   0.645  22.035
12666SOL    HW249627   1.572   0.603  22.179
12667SOL     OW49628   2.875   2.753   8.417
12667SOL    HW149629   2.818   2.801   8.477
12667SOL    HW249630   2.848   2.662   8.425
12668SOL     OW49631   0.937   0.931  21.076
12668SOL    HW149632   1.030   0.951  21.090
12668SOL    HW249633   0.927   0.840  21.105
12669SOL     OW49634   1.175   1.119  21.993
12669SOL    HW149635   1.145   1.064  21.921
12669SOL    HW249636   1.254   1.162  21.960
12670SOL     OW49637   0.335   2.761   1.246
12670SOL    HW149638   0.296   2.675   1.261
12670SOL    HW249639   0.354   2.794   1.334
12671SOL     OW49640   1.774   0.160  21.089
12671SOL    HW149641   1.773   0.076  21.043
12671SOL    HW249642   1.799   0.136  21.179
12672SOL     OW49643   0.435   3.561  11.540
12672SOL    HW149644   0.397   3.580  11.625
12672SOL    HW249645   0.372   3.595  11.477
12673SOL     OW49646   2.078   1.763   7.273
12673SOL    HW149647   2.005   1.705   7.296
12673SOL    HW249648   2.117   1.723   7.196
12674SOL     OW49649   2.095   4.026   2.174
12674SOL    HW149650   2.073   3.937   2.203
12674SOL    HW249651   2.137   4.066   2.250
12675SOL     OW49652   3.257   0.297  10.713
12675SOL    HW149653   3.238   0.244  10.790
12675SOL    HW249654   3.326   0.357  10.741
12676SOL     OW49655   0.774   3.140  10.174
12676SOL    HW149656   0.744   3.222  10.214
12676SOL    HW249657   0.869   3.150  10.167
12677SOL     OW49658   0.888   2.966  19.489
12677SOL    HW149659   0.980   2.940  19.481
12677SOL    HW249660   0.845   2.889  19.527
12678SOL     OW49661   2.070   2.413   3.695
12678SOL    HW149662   2.069   2.501   3.657
12678SOL    HW249663   1.978   2.391   3.706
12679SOL     OW49664   0.891   1.678  20.874
12679SOL    HW149665   0.958   1.744  20.857
12679SOL    HW249666   0.825   1.723  20.926
12680SOL     OW49667   1.383   0.921   3.303
12680SOL    HW149668   1.394   0.853   3.236
12680SOL    HW249669   1.316   0.886   3.362
12681SOL     OW49670   0.573   1.119  27.122
12681SOL    HW149671   0.628   1.130  27.044
12681SOL    HW249672   0.634   1.098  27.192
12682SOL     OW49673   3.920   4.505  21.944
12682SOL    HW149674   4.000   4.455  21.958
12682SOL    HW249675   3.857   4.442  21.909
12683SOL     OW49676   1.822   0.455  21.779
12683SOL    HW149677   1.869   0.383  21.821
12683SOL    HW249678   1.736   0.455  21.822
12684SOL     OW49679   3.527   2.919  19.646
12684SOL    HW149680   3.511   2.963  19.729
12684SOL    HW249681   3.613   2.952  19.618
12685SOL     OW49682   0.833   3.318  11.132
12685SOL    HW149683   0.763   3.383  11.119
12685SOL    HW249684   0.868   3.338  11.218
12686SOL     OW49685   4.264   2.751   5.828
12686SOL    HW149686   4.286   2.832   5.872
12686SOL    HW249687   4.177   2.766   5.790
12687SOL     OW49688   0.509   2.963  10.793
12687SOL    HW149689   0.578   3.019  10.757
12687SOL    HW249690   0.459   3.021  10.851
12688SOL     OW49691   4.457   3.774  22.277
12688SOL    HW149692   4.432   3.692  22.236
12688SOL    HW249693   4.425   3.767  22.367
12689SOL     OW49694   4.724   0.613  20.982
12689SOL    HW149695   4.644   0.573  21.015
12689SOL    HW249696   4.696   0.695  20.942
12690SOL     OW49697   2.971   2.300   0.778
12690SOL    HW149698   2.924   2.377   0.744
12690SOL    HW249699   3.038   2.336   0.836
12691SOL     OW49700   2.412   0.098  23.857
12691SOL    HW149701   2.402   0.150  23.777
12691SOL    HW249702   2.329   0.050  23.864
12692SOL     OW49703   4.518   0.114  10.539
12692SOL    HW149704   4.425   0.128  10.522
12692SOL    HW249705   4.560   0.123  10.453
12693SOL     OW49706   0.622   4.521  20.890
12693SOL    HW149707   0.687   4.451  20.894
12693SOL    HW249708   0.652   4.578  20.818
12694SOL     OW49709   0.416   3.102   7.126
12694SOL    HW149710   0.322   3.084   7.130
12694SOL    HW249711   0.457   3.025   7.164
12695SOL     OW49712   0.184   0.683   5.563
12695SOL    HW149713   0.110   0.706   5.618
12695SOL    HW249714   0.205   0.593   5.588
12696SOL     OW49715   3.393   2.128  10.896
12696SOL    HW149716   3.426   2.170  10.975
12696SOL    HW249717   3.470   2.087  10.856
12697SOL     OW49718   3.330   1.153   7.569
12697SOL    HW149719   3.279   1.211   7.513
12697SOL    HW249720   3.301   1.065   7.546
12698SOL     OW49721   2.587   1.514  23.546
12698SOL    HW149722   2.663   1.457  23.559
12698SOL    HW249723   2.616   1.578  23.481
12699SOL     OW49724   0.178   3.024   2.076
12699SOL    HW149725   0.182   2.940   2.031
12699SOL    HW249726   0.186   3.089   2.006
12700SOL     OW49727   1.617   3.600  18.900
12700SOL    HW149728   1.627   3.512  18.938
12700SOL    HW249729   1.546   3.640  18.950
12701SOL     OW49730   2.293   0.276   1.582
12701SOL    HW149731   2.200   0.254   1.595
12701SOL    HW249732   2.335   0.193   1.562
12702SOL     OW49733   3.587   2.666  21.009
12702SOL    HW149734   3.675   2.673  21.044
12702SOL    HW249735   3.535   2.725  21.064
12703SOL     OW49736   3.057   0.189  26.041
12703SOL    HW149737   3.086   0.108  26.085
12703SOL    HW249738   3.128   0.209  25.981
12704SOL     OW49739   4.659   2.597   5.615
12704SOL    HW149740   4.577   2.642   5.597
12704SOL    HW249741   4.683   2.625   5.704
12705SOL     OW49742   1.849   2.505   5.293
12705SOL    HW149743   1.758   2.516   5.265
12705SOL    HW249744   1.880   2.594   5.311
12706SOL     OW49745   4.019   1.735   3.184
12706SOL    HW149746   3.941   1.693   3.220
12706SOL    HW249747   4.081   1.737   3.257
12707SOL     OW49748   1.983   3.836  26.122
12707SOL    HW149749   1.900   3.877  26.144
12707SOL    HW249750   2.030   3.831  26.205
12708SOL     OW49751   1.003   2.191  23.556
12708SOL    HW149752   0.976   2.155  23.641
12708SOL    HW249753   1.071   2.131  23.525
12709SOL     OW49754   4.089   0.820   5.200
12709SOL    HW149755   4.041   0.845   5.121
12709SOL    HW249756   4.026   0.767   5.249
12710SOL     OW49757   1.557   3.298   4.036
12710SOL    HW149758   1.533   3.256   4.118
12710SOL    HW249759   1.535   3.390   4.048
12711SOL     OW49760   2.089   1.190  20.870
12711SOL    HW149761   2.163   1.168  20.927
12711SOL    HW249762   2.122   1.172  20.781
12712SOL     OW49763   0.433   2.410  12.940
12712SOL    HW149764   0.478   2.339  12.985
12712SOL    HW249765   0.502   2.456  12.891
12713SOL     OW49766   2.649   1.534  28.486
12713SOL    HW149767   2.612   1.535   0.043
12713SOL    HW249768   2.582   1.575  28.431
12714SOL     OW49769   2.904   2.918   4.729
12714SOL    HW149770   2.888   3.012   4.727
12714SOL    HW249771   2.820   2.879   4.752
12715SOL     OW49772   2.331   0.781  25.002
12715SOL    HW149773   2.319   0.727  25.080
12715SOL    HW249774   2.278   0.739  24.935
12716SOL     OW49775   1.691   2.887   7.539
12716SOL    HW149776   1.608   2.900   7.584
12716SOL    HW249777   1.667   2.858   7.451
12717SOL     OW49778   2.580   3.184   3.344
12717SOL    HW149779   2.509   3.120   3.343
12717SOL    HW249780   2.657   3.133   3.318
12718SOL     OW49781   4.501   1.473  25.025
12718SOL    HW149782   4.533   1.413  24.957
12718SOL    HW249783   4.573   1.536  25.036
12719SOL     OW49784   2.908   2.073  22.049
12719SOL    HW149785   2.949   2.032  22.126
12719SOL    HW249786   2.922   2.166  22.062
12720SOL     OW49787   3.444   3.067  24.779
12720SOL    HW149788   3.504   3.138  24.801
12720SOL    HW249789   3.375   3.108  24.727
12721SOL     OW49790   4.032   1.966   8.420
12721SOL    HW149791   4.005   2.015   8.497
12721SOL    HW249792   4.107   1.914   8.450
12722SOL     OW49793   4.404   1.260   5.439
12722SOL    HW149794   4.472   1.316   5.400
12722SOL    HW249795   4.414   1.274   5.534
12723SOL     OW49796   2.188   1.483  22.208
12723SOL    HW149797   2.162   1.479  22.116
12723SOL    HW249798   2.133   1.417  22.251
12724SOL     OW49799   1.801   1.506  23.995
12724SOL    HW149800   1.742   1.578  23.974
12724SOL    HW249801   1.867   1.545  24.052
12725SOL     OW49802   2.679   0.065   1.265
12725SOL    HW149803   2.723   0.146   1.239
12725SOL    HW249804   2.597   0.094   1.305
12726SOL     OW49805   4.141   1.112   5.681
12726SOL    HW149806   4.186   1.069   5.607
12726SOL    HW249807   4.174   1.067   5.758
12727SOL     OW49808   1.732   4.458  22.027
12727SOL    HW149809   1.777   4.466  21.944
12727SOL    HW249810   1.710   4.548  22.052
12728SOL     OW49811   2.502   1.517   5.621
12728SOL    HW149812   2.534   1.434   5.585
12728SOL    HW249813   2.496   1.501   5.715
12729SOL     OW49814   3.881   0.901  21.837
12729SOL    HW149815   3.805   0.930  21.786
12729SOL    HW249816   3.849   0.897  21.927
12730SOL     OW49817   4.095   2.891   8.718
12730SOL    HW149818   4.022   2.877   8.659
12730SOL    HW249819   4.165   2.924   8.662
12731SOL     OW49820   1.170   2.494  27.293
12731SOL    HW149821   1.240   2.519  27.232
12731SOL    HW249822   1.112   2.569  27.294
12732SOL     OW49823   3.809   2.900  26.425
12732SOL    HW149824   3.843   2.846  26.354
12732SOL    HW249825   3.814   2.844  26.502
12733SOL     OW49826   3.788   0.611  25.388
12733SOL    HW149827   3.854   0.566  25.441
12733SOL    HW249828   3.829   0.695  25.365
12734SOL     OW49829   3.462   4.363   9.602
12734SOL    HW149830   3.452   4.269   9.616
12734SOL    HW249831   3.555   4.376   9.589
12735SOL     OW49832   2.813   3.402  20.140
12735SOL    HW149833   2.844   3.397  20.230
12735SOL    HW249834   2.780   3.491  20.131
12736SOL     OW49835   4.715   2.164  20.828
12736SOL    HW149836   4.690   2.148  20.737
12736SOL    HW249837   4.632   2.178  20.874
12737SOL     OW49838   2.018   0.481   4.650
12737SOL    HW149839   1.952   0.501   4.717
12737SOL    HW249840   2.087   0.435   4.698
12738SOL     OW49841   0.946   4.608  23.944
12738SOL    HW149842   0.989   4.671  24.002
12738SOL    HW249843   0.971   4.523  23.978
12739SOL     OW49844   0.485   0.910  18.784
12739SOL    HW149845   0.547   0.916  18.856
12739SOL    HW249846   0.474   1.000  18.754
12740SOL     OW49847   0.642   2.253  22.231
12740SOL    HW149848   0.681   2.268  22.317
12740SOL    HW249849   0.613   2.339  22.201
12741SOL     OW49850   1.302   0.875  10.755
12741SOL    HW149851   1.239   0.944  10.778
12741SOL    HW249852   1.262   0.831  10.679
12742SOL     OW49853   4.017   4.364  26.178
12742SOL    HW149854   4.045   4.420  26.249
12742SOL    HW249855   4.005   4.423  26.103
12743SOL     OW49856   0.197   0.138   6.765
12743SOL    HW149857   0.145   0.215   6.789
12743SOL    HW249858   0.285   0.159   6.794
12744SOL     OW49859   0.242   2.020  23.610
12744SOL    HW149860   0.289   2.090  23.655
12744SOL    HW249861   0.150   2.044  23.618
12745SOL     OW49862   0.595   1.739  21.241
12745SOL    HW149863   0.500   1.732  21.231
12745SOL    HW249864   0.609   1.723  21.335
12746SOL     OW49865   1.987   3.109   7.221
12746SOL    HW149866   1.999   3.036   7.282
12746SOL    HW249867   1.961   3.182   7.276
12747SOL     OW49868   4.776   3.128   6.648
12747SOL    HW149869   4.774   3.192   6.719
12747SOL    HW249870   4.699   3.074   6.663
12748SOL     OW49871   4.563   0.497   3.651
12748SOL    HW149872   4.512   0.459   3.723
12748SOL    HW249873   4.641   0.443   3.646
12749SOL     OW49874   4.565   2.793  23.311
12749SOL    HW149875   4.612   2.822  23.233
12749SOL    HW249876   4.585   2.859  23.378
12750SOL     OW49877   2.484   0.282   7.787
12750SOL    HW149878   2.578   0.287   7.767
12750SOL    HW249879   2.441   0.313   7.708
12751SOL     OW49880   0.057   3.655   8.699
12751SOL    HW149881   0.051   3.567   8.736
12751SOL    HW249882   0.148   3.680   8.710
12752SOL     OW49883   0.231   3.911   3.701
12752SOL    HW149884   0.219   3.871   3.615
12752SOL    HW249885   0.325   3.927   3.706
12753SOL     OW49886   3.327   1.078   8.925
12753SOL    HW149887   3.390   1.016   8.964
12753SOL    HW249888   3.337   1.158   8.977
12754SOL     OW49889   4.264   2.107   8.366
12754SOL    HW149890   4.311   2.082   8.445
12754SOL    HW249891   4.183   2.056   8.369
12755SOL     OW49892   4.754   0.084   8.105
12755SOL    HW149893   4.659   0.077   8.110
12755SOL    HW249894   0.003   0.052   8.190
12756SOL     OW49895   2.657   4.082   5.277
12756SOL    HW149896   2.750   4.101   5.267
12756SOL    HW249897   2.647   4.052   5.367
12757SOL     OW49898   3.302   1.583  23.378
12757SOL    HW149899   3.248   1.606  23.454
12757SOL    HW249900   3.297   1.488  23.373
12758SOL     OW49901   1.579   2.732   5.857
12758SOL    HW149902   1.647   2.733   5.924
12758SOL    HW249903   1.527   2.654   5.875
12759SOL     OW49904   0.013   4.535  24.178
12759SOL    HW149905   0.089   4.532  24.236
12759SOL    HW249906   4.769   4.627  24.177
12760SOL     OW49907   3.734   1.634   7.078
12760SOL    HW149908   3.736   1.668   7.168
12760SOL    HW249909   3.653   1.583   7.074
12761SOL     OW49910   1.795   0.888  28.399
12761SOL    HW149911   1.700   0.876  28.412
12761SOL    HW249912   1.835   0.840  28.472
12762SOL     OW49913   4.295   3.191  24.527
12762SOL    HW149914   4.328   3.130  24.593
12762SOL    HW249915   4.288   3.138  24.448
12763SOL     OW49916   0.639   1.921   8.648
12763SOL    HW149917   0.729   1.933   8.678
12763SOL    HW249918   0.617   2.004   8.605
12764SOL     OW49919   0.721   4.646  22.744
12764SOL    HW149920   0.729   4.686  22.657
12764SOL    HW249921   0.701   4.554  22.726
12765SOL     OW49922   2.299   2.026  10.896
12765SOL    HW149923   2.310   2.101  10.838
12765SOL    HW249924   2.300   1.950  10.837
12766SOL     OW49925   3.603   3.069  25.156
12766SOL    HW149926   3.552   3.037  25.081
12766SOL    HW249927   3.689   3.090  25.119
12767SOL     OW49928   3.575   4.718  20.779
12767SOL    HW149929   3.645   4.660  20.750
12767SOL    HW249930   3.578   0.009  20.717
12768SOL     OW49931   2.856   1.934   6.715
12768SOL    HW149932   2.818   1.973   6.636
12768SOL    HW249933   2.780   1.907   6.766
12769SOL     OW49934   1.629   4.378  20.638
12769SOL    HW149935   1.579   4.459  20.649
12769SOL    HW249936   1.670   4.364  20.724
12770SOL     OW49937   2.298   1.330   3.102
12770SOL    HW149938   2.373   1.286   3.063
12770SOL    HW249939   2.335   1.406   3.147
12771SOL     OW49940   1.025   0.284   2.081
12771SOL    HW149941   1.035   0.327   2.166
12771SOL    HW249942   0.937   0.309   2.052
12772SOL     OW49943   1.154   1.294   3.665
12772SOL    HW149944   1.160   1.360   3.735
12772SOL    HW249945   1.225   1.234   3.683
12773SOL     OW49946   1.245   0.134   4.347
12773SOL    HW149947   1.176   0.092   4.399
12773SOL    HW249948   1.293   0.188   4.410
12774SOL     OW49949   0.740   4.611   4.739
12774SOL    HW149950   0.662   4.587   4.690
12774SOL    HW249951   0.813   4.583   4.684
12775SOL     OW49952   0.048   3.313   7.393
12775SOL    HW149953   4.755   3.261   7.419
12775SOL    HW249954   0.124   3.262   7.423
12776SOL     OW49955   1.631   3.490  27.721
12776SOL    HW149956   1.550   3.502  27.672
12776SOL    HW249957   1.656   3.399  27.706
12777SOL     OW49958   3.578   3.807   8.793
12777SOL    HW149959   3.502   3.757   8.762
12777SOL    HW249960   3.612   3.756   8.866
12778SOL     OW49961   1.548   3.950   9.067
12778SOL    HW149962   1.471   3.926   9.118
12778SOL    HW249963   1.557   3.879   9.003
12779SOL     OW49964   2.497   1.561  21.095
12779SOL    HW149965   2.436   1.541  21.024
12779SOL    HW249966   2.578   1.516  21.071
12780SOL     OW49967   2.391   0.790   1.877
12780SOL    HW149968   2.341   0.871   1.868
12780SOL    HW249969   2.478   0.811   1.842
12781SOL     OW49970   2.414   4.689  24.886
12781SOL    HW149971   2.354   4.737  24.828
12781SOL    HW249972   2.501   4.719  24.860
12782SOL     OW49973   1.300   3.409  18.637
12782SOL    HW149974   1.304   3.393  18.731
12782SOL    HW249975   1.242   3.485  18.628
12783SOL     OW49976   4.337   4.626   8.063
12783SOL    HW149977   4.410   4.650   8.006
12783SOL    HW249978   4.258   4.645   8.011
12784SOL     OW49979   2.687   1.531  10.462
12784SOL    HW149980   2.733   1.539  10.546
12784SOL    HW249981   2.611   1.477  10.483
12785SOL     OW49982   4.183   4.131   8.344
12785SOL    HW149983   4.142   4.176   8.418
12785SOL    HW249984   4.256   4.187   8.319
12786SOL     OW49985   2.835   1.356  20.725
12786SOL    HW149986   2.872   1.335  20.639
12786SOL    HW249987   2.890   1.428  20.758
12787SOL     OW49988   2.074   1.285   9.322
12787SOL    HW149989   2.123   1.359   9.360
12787SOL    HW249990   1.997   1.277   9.377
12788SOL     OW49991   0.598   4.726  21.363
12788SOL    HW149992   0.564   0.003  21.296
12788SOL    HW249993   0.622   4.646  21.315
12789SOL     OW49994   2.294   0.019  21.007
12789SOL    HW149995   2.241   0.089  20.970
12789SOL    HW249996   2.371   0.014  20.950
12790SOL     OW49997   1.750   2.311   9.477
12790SOL    HW149998   1.656   2.299   9.462
12790SOL    HW249999   1.769   2.397   9.440
12791SOL     OW50000   0.948   3.313   6.135
12791SOL    HW150001   0.898   3.347   6.210
12791SOL    HW250002   1.020   3.376   6.124
12792SOL     OW50003   3.810   0.783   1.537
12792SOL    HW150004   3.761   0.726   1.597
12792SOL    HW250005   3.900   0.782   1.571
12793SOL     OW50006   4.247   4.221   8.629
12793SOL    HW150007   4.321   4.281   8.621
12793SOL    HW250008   4.286   4.134   8.628
12794SOL     OW50009   2.804   2.705  20.356
12794SOL    HW150010   2.748   2.735  20.428
12794SOL    HW250011   2.893   2.728  20.382
12795SOL     OW50012   0.925   1.400  19.643
12795SOL    HW150013   0.907   1.477  19.589
12795SOL    HW250014   0.914   1.326  19.583
12796SOL     OW50015   3.838   2.678   1.486
12796SOL    HW150016   3.775   2.745   1.460
12796SOL    HW250017   3.806   2.647   1.571
12797SOL     OW50018   4.554   3.323   1.838
12797SOL    HW150019   4.530   3.303   1.748
12797SOL    HW250020   4.544   3.418   1.845
12798SOL     OW50021   4.360   2.336   9.350
12798SOL    HW150022   4.292   2.331   9.282
12798SOL    HW250023   4.312   2.332   9.432
12799SOL     OW50024   0.839   1.522   3.239
12799SOL    HW150025   0.873   1.478   3.317
12799SOL    HW250026   0.895   1.491   3.168
12800SOL     OW50027   4.419   1.416   8.960
12800SOL    HW150028   4.349   1.356   8.933
12800SOL    HW250029   4.387   1.455   9.041
12801SOL     OW50030   3.934   3.279  25.087
12801SOL    HW150031   3.961   3.342  25.020
12801SOL    HW250032   4.008   3.278  25.149
12802SOL     OW50033   0.530   1.795  27.463
12802SOL    HW150034   0.595   1.785  27.532
12802SOL    HW250035   0.455   1.743  27.492
12803SOL     OW50036   4.736   1.715   7.131
12803SOL    HW150037   4.683   1.687   7.206
12803SOL    HW250038   0.004   1.637   7.108
12804SOL     OW50039   1.859   3.322   3.565
12804SOL    HW150040   1.845   3.286   3.652
12804SOL    HW250041   1.776   3.363   3.542
12805SOL     OW50042   2.586   1.625  20.294
12805SOL    HW150043   2.573   1.576  20.213
12805SOL    HW250044   2.519   1.693  20.292
12806SOL     OW50045   4.073   3.790  20.863
12806SOL    HW150046   4.062   3.818  20.772
12806SOL    HW250047   3.984   3.784  20.897
12807SOL     OW50048   0.644   0.587   7.113
12807SOL    HW150049   0.650   0.616   7.022
12807SOL    HW250050   0.603   0.660   7.159
12808SOL     OW50051   0.066   3.883   0.275
12808SOL    HW150052   0.115   3.808   0.240
12808SOL    HW250053   0.064   3.868   0.370
12809SOL     OW50054   4.031   2.495  23.448
12809SOL    HW150055   4.091   2.471  23.377
12809SOL    HW250056   4.085   2.494  23.527
12810SOL     OW50057   1.553   4.211   6.891
12810SOL    HW150058   1.459   4.205   6.908
12810SOL    HW250059   1.594   4.180   6.972
12811SOL     OW50060   2.216   4.598   4.063
12811SOL    HW150061   2.190   4.618   4.153
12811SOL    HW250062   2.140   4.554   4.025
12812SOL     OW50063   1.026   2.393  18.390
12812SOL    HW150064   0.992   2.481  18.374
12812SOL    HW250065   1.005   2.344  18.310
12813SOL     OW50066   3.839   1.443   2.586
12813SOL    HW150067   3.794   1.460   2.503
12813SOL    HW250068   3.845   1.529   2.627
12814SOL     OW50069   3.509   0.797  24.670
12814SOL    HW150070   3.518   0.891  24.660
12814SOL    HW250071   3.509   0.763  24.581
12815SOL     OW50072   2.579   0.027   2.965
12815SOL    HW150073   2.575   0.042   2.871
12815SOL    HW250074   2.582   0.115   3.004
12816SOL     OW50075   3.391   0.862  11.229
12816SOL    HW150076   3.353   0.922  11.294
12816SOL    HW250077   3.474   0.834  11.268
12817SOL     OW50078   3.735   3.173   2.915
12817SOL    HW150079   3.697   3.171   3.003
12817SOL    HW250080   3.694   3.100   2.869
12818SOL     OW50081   4.245   0.729   8.716
12818SOL    HW150082   4.323   0.744   8.770
12818SOL    HW250083   4.279   0.726   8.626
12819SOL     OW50084   2.220   0.090  21.484
12819SOL    HW150085   2.208   0.121  21.574
12819SOL    HW250086   2.312   0.065  21.479
12820SOL     OW50087   1.135   0.559  28.383
12820SOL    HW150088   1.143   0.625  28.452
12820SOL    HW250089   1.117   0.477  28.430
12821SOL     OW50090   0.926   0.560   6.181
12821SOL    HW150091   0.895   0.502   6.250
12821SOL    HW250092   1.017   0.534   6.167
12822SOL     OW50093   3.103   3.804  21.182
12822SOL    HW150094   3.011   3.828  21.187
12822SOL    HW250095   3.116   3.773  21.093
12823SOL     OW50096   3.277   3.071   5.667
12823SOL    HW150097   3.202   3.100   5.719
12823SOL    HW250098   3.262   2.977   5.654
12824SOL     OW50099   1.133   1.785  20.239
12824SOL    HW150100   1.177   1.763  20.157
12824SOL    HW250101   1.058   1.837  20.212
12825SOL     OW50102   0.730   0.010   9.552
12825SOL    HW150103   0.780   0.092   9.560
12825SOL    HW250104   0.646   0.029   9.594
12826SOL     OW50105   1.279   1.555  25.622
12826SOL    HW150106   1.303   1.547  25.530
12826SOL    HW250107   1.251   1.646  25.631
12827SOL     OW50108   2.823   1.000   4.965
12827SOL    HW150109   2.786   0.973   4.881
12827SOL    HW250110   2.831   0.919   5.015
12828SOL     OW50111   3.204   0.133   1.064
12828SOL    HW150112   3.217   0.123   0.970
12828SOL    HW250113   3.134   0.070   1.085
12829SOL     OW50114   3.941   4.103   3.249
12829SOL    HW150115   3.845   4.108   3.258
12829SOL    HW250116   3.974   4.169   3.310
12830SOL     OW50117   0.001   2.545  16.292
12830SOL    HW150118   0.006   2.613  16.359
12830SOL    HW250119   4.694   2.549  16.260
12831SOL     OW50120   2.424   0.505   6.758
12831SOL    HW150121   2.517   0.492   6.776
12831SOL    HW250122   2.397   0.575   6.818
12832SOL     OW50123   3.152   1.888   2.543
12832SOL    HW150124   3.165   1.958   2.607
12832SOL    HW250125   3.057   1.881   2.535
12833SOL     OW50126   2.263   1.149   8.224
12833SOL    HW150127   2.197   1.089   8.188
12833SOL    HW250128   2.212   1.223   8.259
12834SOL     OW50129   0.339   3.128   3.057
12834SOL    HW150130   0.354   3.076   2.978
12834SOL    HW250131   0.419   3.118   3.109
12835SOL     OW50132   1.507   4.330   6.427
12835SOL    HW150133   1.545   4.297   6.508
12835SOL    HW250134   1.419   4.293   6.425
12836SOL     OW50135   2.040   1.752  22.282
12836SOL    HW150136   2.049   1.791  22.195
12836SOL    HW250137   2.075   1.664  22.272
12837SOL     OW50138   3.497   3.273  27.271
12837SOL    HW150139   3.495   3.369  27.274
12837SOL    HW250140   3.406   3.247  27.282
12838SOL     OW50141   3.853   1.203   2.437
12838SOL    HW150142   3.941   1.169   2.424
12838SOL    HW250143   3.864   1.276   2.498
12839SOL     OW50144   0.600   1.971   7.354
12839SOL    HW150145   0.672   1.909   7.343
12839SOL    HW250146   0.638   2.044   7.402
12840SOL     OW50147   0.871   1.145  18.187
12840SOL    HW150148   0.917   1.087  18.248
12840SOL    HW250149   0.873   1.097  18.104
12841SOL     OW50150   1.463   1.512  21.011
12841SOL    HW150151   1.527   1.581  21.029
12841SOL    HW250152   1.379   1.550  21.037
12842SOL     OW50153   4.693   4.121   6.728
12842SOL    HW150154   4.666   4.125   6.820
12842SOL    HW250155   4.625   4.170   6.681
12843SOL     OW50156   1.899   2.450   0.796
12843SOL    HW150157   1.955   2.400   0.855
12843SOL    HW250158   1.902   2.539   0.830
12844SOL     OW50159   3.574   0.737   6.331
12844SOL    HW150160   3.652   0.773   6.288
12844SOL    HW250161   3.562   0.792   6.408
12845SOL     OW50162   3.100   3.676   9.623
12845SOL    HW150163   3.191   3.692   9.597
12845SOL    HW250164   3.106   3.608   9.689
12846SOL     OW50165   3.821   1.373  24.969
12846SOL    HW150166   3.736   1.379  24.924
12846SOL    HW250167   3.874   1.442  24.929
12847SOL     OW50168   3.847   4.238  22.516
12847SOL    HW150169   3.908   4.297  22.472
12847SOL    HW250170   3.784   4.296  22.558
12848SOL     OW50171   2.801   2.913   0.713
12848SOL    HW150172   2.735   2.874   0.770
12848SOL    HW250173   2.871   2.940   0.773
12849SOL     OW50174   0.923   2.800  24.469
12849SOL    HW150175   0.978   2.726  24.495
12849SOL    HW250176   0.977   2.848  24.406
12850SOL     OW50177   4.756   0.146   7.796
12850SOL    HW150178   0.048   0.086   7.798
12850SOL    HW250179   4.723   0.146   7.885
12851SOL     OW50180   2.004   0.256  12.294
12851SOL    HW150181   1.991   0.204  12.373
12851SOL    HW250182   2.061   0.328  12.322
12852SOL     OW50183   0.887   1.860  24.170
12852SOL    HW150184   0.965   1.913  24.187
12852SOL    HW250185   0.918   1.792  24.110
12853SOL     OW50186   4.484   4.155   5.800
12853SOL    HW150187   4.533   4.237   5.799
12853SOL    HW250188   4.544   4.090   5.766
12854SOL     OW50189   1.624   1.995  22.399
12854SOL    HW150190   1.674   2.066  22.360
12854SOL    HW250191   1.690   1.928  22.420
12855SOL     OW50192   2.500   3.234   7.305
12855SOL    HW150193   2.450   3.160   7.338
12855SOL    HW250194   2.464   3.310   7.351
12856SOL     OW50195   0.468   2.025  22.434
12856SOL    HW150196   0.468   2.031  22.529
12856SOL    HW250197   0.561   2.022  22.410
12857SOL     OW50198   3.740   1.341   5.271
12857SOL    HW150199   3.729   1.365   5.363
12857SOL    HW250200   3.835   1.342   5.257
12858SOL     OW50201   3.405   2.128   5.329
12858SOL    HW150202   3.310   2.121   5.337
12858SOL    HW250203   3.426   2.215   5.363
12859SOL     OW50204   1.769   3.683   4.536
12859SOL    HW150205   1.734   3.599   4.565
12859SOL    HW250206   1.822   3.662   4.460
12860SOL     OW50207   1.280   4.533   3.518
12860SOL    HW150208   1.248   4.594   3.451
12860SOL    HW250209   1.222   4.457   3.510
12861SOL     OW50210   1.918   3.988  23.630
12861SOL    HW150211   1.935   4.062  23.688
12861SOL    HW250212   1.992   3.988  23.569
12862SOL     OW50213   3.390   4.076   3.513
12862SOL    HW150214   3.437   4.005   3.470
12862SOL    HW250215   3.300   4.043   3.522
12863SOL     OW50216   2.485   2.419   6.304
12863SOL    HW150217   2.498   2.327   6.280
12863SOL    HW250218   2.390   2.430   6.308
12864SOL     OW50219   4.174   1.667   4.349
12864SOL    HW150220   4.210   1.581   4.373
12864SOL    HW250221   4.236   1.730   4.384
12865SOL     OW50222   2.106   4.634   3.675
12865SOL    HW150223   2.063   4.614   3.758
12865SOL    HW250224   2.064   4.576   3.611
12866SOL     OW50225   1.805   1.175   9.750
12866SOL    HW150226   1.812   1.258   9.797
12866SOL    HW250227   1.727   1.133   9.786
12867SOL     OW50228   1.402   2.492   2.590
12867SOL    HW150229   1.433   2.452   2.672
12867SOL    HW250230   1.311   2.518   2.609
12868SOL     OW50231   2.475   4.759   2.271
12868SOL    HW150232   2.437   4.674   2.293
12868SOL    HW250233   2.408   0.021   2.220
12869SOL     OW50234   4.334   4.722  12.916
12869SOL    HW150235   4.372   0.001  12.979
12869SOL    HW250236   4.243   4.750  12.907
12870SOL     OW50237   2.257   0.147  25.026
12870SOL    HW150238   2.294   0.123  25.111
12870SOL    HW250239   2.199   0.074  25.004
12871SOL     OW50240   2.675   4.680  10.834
12871SOL    HW150241   2.637   4.765  10.809
12871SOL    HW250242   2.600   4.623  10.848
12872SOL     OW50243   4.160   2.351  28.170
12872SOL    HW150244   4.096   2.341  28.240
12872SOL    HW250245   4.133   2.430  28.123
12873SOL     OW50246   3.833   1.158  22.047
12873SOL    HW150247   3.904   1.221  22.060
12873SOL    HW250248   3.875   1.072  22.055
12874SOL     OW50249   3.975   2.120  11.085
12874SOL    HW150250   3.980   2.143  11.178
12874SOL    HW250251   4.039   2.176  11.042
12875SOL     OW50252   4.257   1.196   4.539
12875SOL    HW150253   4.353   1.195   4.548
12875SOL    HW250254   4.230   1.109   4.569
12876SOL     OW50255   0.978   4.671  24.874
12876SOL    HW150256   1.074   4.662  24.874
12876SOL    HW250257   0.946   4.581  24.863
12877SOL     OW50258   0.897   2.467   5.887
12877SOL    HW150259   0.971   2.464   5.826
12877SOL    HW250260   0.885   2.560   5.904
12878SOL     OW50261   2.251   4.546  26.769
12878SOL    HW150262   2.247   4.601  26.848
12878SOL    HW250263   2.234   4.458  26.801
12879SOL     OW50264   0.351   1.580  18.660
12879SOL    HW150265   0.348   1.576  18.756
12879SOL    HW250266   0.427   1.635  18.641
12880SOL     OW50267   3.476   0.784   6.039
12880SOL    HW150268   3.443   0.873   6.050
12880SOL    HW250269   3.502   0.757   6.127
12881SOL     OW50270   1.506   0.089  25.454
12881SOL    HW150271   1.425   0.080  25.505
12881SOL    HW250272   1.483   0.055  25.367
12882SOL     OW50273   1.382   1.815   7.067
12882SOL    HW150274   1.365   1.855   6.982
12882SOL    HW250275   1.308   1.841   7.122
12883SOL     OW50276   4.066   1.648   5.089
12883SOL    HW150277   4.057   1.559   5.121
12883SOL    HW250278   3.984   1.691   5.112
12884SOL     OW50279   2.511   1.374   8.845
12884SOL    HW150280   2.496   1.334   8.759
12884SOL    HW250281   2.518   1.300   8.905
12885SOL     OW50282   1.733   0.962   2.492
12885SOL    HW150283   1.822   0.932   2.477
12885SOL    HW250284   1.738   1.014   2.572
12886SOL     OW50285   0.139   0.112  24.790
12886SOL    HW150286   0.160   0.204  24.807
12886SOL    HW250287   0.147   0.103  24.695
12887SOL     OW50288   4.625   1.315   9.827
12887SOL    HW150289   4.606   1.396   9.781
12887SOL    HW250290   4.582   1.247   9.775
12888SOL     OW50291   1.013   0.729   1.362
12888SOL    HW150292   1.063   0.662   1.314
12888SOL    HW250293   1.056   0.811   1.338
12889SOL     OW50294   2.720   2.486  22.763
12889SOL    HW150295   2.745   2.575  22.737
12889SOL    HW250296   2.679   2.497  22.848
12890SOL     OW50297   0.458   3.696  27.150
12890SOL    HW150298   0.530   3.759  27.145
12890SOL    HW250299   0.380   3.746  27.129
12891SOL     OW50300   1.221   1.940  24.909
12891SOL    HW150301   1.221   1.867  24.846
12891SOL    HW250302   1.298   1.925  24.964
12892SOL     OW50303   3.568   1.818  28.479
12892SOL    HW150304   3.580   1.863  28.395
12892SOL    HW250305   3.502   1.871  28.525
12893SOL     OW50306   2.259   1.362  23.355
12893SOL    HW150307   2.212   1.443  23.373
12893SOL    HW250308   2.190   1.296  23.345
12894SOL     OW50309   3.580   3.908  16.927
12894SOL    HW150310   3.584   4.000  16.953
12894SOL    HW250311   3.549   3.862  17.006
12895SOL     OW50312   3.943   2.354   4.146
12895SOL    HW150313   3.960   2.260   4.142
12895SOL    HW250314   3.865   2.366   4.091
12896SOL     OW50315   2.183   3.481  22.782
12896SOL    HW150316   2.135   3.487  22.864
12896SOL    HW250317   2.136   3.540  22.723
12897SOL     OW50318   1.783   3.342  27.209
12897SOL    HW150319   1.825   3.309  27.130
12897SOL    HW250320   1.760   3.264  27.259
12898SOL     OW50321   4.728   3.517   3.189
12898SOL    HW150322   0.038   3.490   3.193
12898SOL    HW250323   4.683   3.442   3.151
12899SOL     OW50324   1.847   2.033   6.318
12899SOL    HW150325   1.763   2.003   6.283
12899SOL    HW250326   1.824   2.084   6.396
12900SOL     OW50327   4.480   2.635   3.646
12900SOL    HW150328   4.514   2.634   3.735
12900SOL    HW250329   4.545   2.587   3.595
12901SOL     OW50330   3.048   1.354   0.109
12901SOL    HW150331   3.086   1.380   0.025
12901SOL    HW250332   3.016   1.265   0.095
12902SOL     OW50333   1.569   2.039  24.668
12902SOL    HW150334   1.619   2.032  24.749
12902SOL    HW250335   1.634   2.062  24.602
12903SOL     OW50336   3.543   3.658  19.521
12903SOL    HW150337   3.601   3.694  19.454
12903SOL    HW250338   3.573   3.697  19.603
12904SOL     OW50339   1.708   3.626   8.368
12904SOL    HW150340   1.670   3.691   8.426
12904SOL    HW250341   1.695   3.542   8.412
12905SOL     OW50342   2.800   4.598  24.994
12905SOL    HW150343   2.717   4.575  25.036
12905SOL    HW250344   2.845   4.514  24.984
12906SOL     OW50345   1.060   2.255   2.237
12906SOL    HW150346   1.134   2.248   2.296
12906SOL    HW250347   1.084   2.202   2.161
12907SOL     OW50348   2.548   1.105  24.206
12907SOL    HW150349   2.562   1.099  24.301
12907SOL    HW250350   2.594   1.029  24.171
12908SOL     OW50351   2.469   0.570  10.796
12908SOL    HW150352   2.430   0.656  10.815
12908SOL    HW250353   2.478   0.528  10.881
12909SOL     OW50354   1.677   4.532  23.218
12909SOL    HW150355   1.709   4.452  23.259
12909SOL    HW250356   1.737   4.601  23.248
12910SOL     OW50357   0.435   2.230   3.632
12910SOL    HW150358   0.497   2.270   3.693
12910SOL    HW250359   0.383   2.170   3.686
12911SOL     OW50360   0.868   4.490   0.328
12911SOL    HW150361   0.802   4.514   0.263
12911SOL    HW250362   0.885   4.397   0.312
12912SOL     OW50363   1.439   3.892  22.008
12912SOL    HW150364   1.439   3.818  21.947
12912SOL    HW250365   1.363   3.944  21.982
12913SOL     OW50366   0.751   3.811  11.526
12913SOL    HW150367   0.760   3.715  11.525
12913SOL    HW250368   0.693   3.828  11.601
12914SOL     OW50369   0.586   3.040  26.914
12914SOL    HW150370   0.504   3.006  26.879
12914SOL    HW250371   0.612   2.978  26.981
12915SOL     OW50372   2.929   4.114  22.234
12915SOL    HW150373   2.963   4.073  22.155
12915SOL    HW250374   2.874   4.047  22.275
12916SOL     OW50375   2.074   4.588   7.251
12916SOL    HW150376   2.103   4.677   7.232
12916SOL    HW250377   2.052   4.590   7.344
12917SOL     OW50378   3.370   0.092   1.833
12917SOL    HW150379   3.350   4.781   1.843
12917SOL    HW250380   3.294   0.128   1.787
12918SOL     OW50381   2.510   3.689  27.965
12918SOL    HW150382   2.439   3.737  28.007
12918SOL    HW250383   2.466   3.639  27.895
12919SOL     OW50384   2.028   3.527  22.984
12919SOL    HW150385   2.052   3.472  23.058
12919SOL    HW250386   2.042   3.617  23.015
12920SOL     OW50387   1.320   3.841   1.307
12920SOL    HW150388   1.359   3.818   1.223
12920SOL    HW250389   1.386   3.895   1.351
12921SOL     OW50390   4.037   0.651  18.725
12921SOL    HW150391   3.992   0.588  18.669
12921SOL    HW250392   4.030   0.734  18.678
12922SOL     OW50393   3.283   2.635  27.411
12922SOL    HW150394   3.342   2.673  27.476
12922SOL    HW250395   3.283   2.698  27.339
12923SOL     OW50396   1.567   2.804  26.975
12923SOL    HW150397   1.632   2.734  26.976
12923SOL    HW250398   1.513   2.785  26.897
12924SOL     OW50399   4.155   1.677   2.446
12924SOL    HW150400   4.222   1.745   2.442
12924SOL    HW250401   4.203   1.597   2.467
12925SOL     OW50402   2.676   0.182   8.147
12925SOL    HW150403   2.693   0.262   8.196
12925SOL    HW250404   2.762   0.155   8.115
12926SOL     OW50405   2.665   0.125  20.458
12926SOL    HW150406   2.749   0.116  20.501
12926SOL    HW250407   2.679   0.192  20.391
12927SOL     OW50408   3.289   2.676   0.949
12927SOL    HW150409   3.244   2.738   1.008
12927SOL    HW250410   3.359   2.727   0.910
12928SOL     OW50411   0.714   0.146  21.089
12928SOL    HW150412   0.666   0.201  21.028
12928SOL    HW250413   0.667   0.063  21.090
12929SOL     OW50414   2.060   2.522  17.756
12929SOL    HW150415   2.053   2.559  17.844
12929SOL    HW250416   2.142   2.558  17.722
12930SOL     OW50417   2.522   0.032  20.869
12930SOL    HW150418   2.554   4.730  20.837
12930SOL    HW250419   2.550   0.095  20.803
12931SOL     OW50420   3.146   4.714   4.878
12931SOL    HW150421   3.088   4.766   4.824
12931SOL    HW250422   3.151   4.762   4.961
12932SOL     OW50423   0.396   2.511   9.160
12932SOL    HW150424   0.344   2.432   9.173
12932SOL    HW250425   0.371   2.569   9.233
12933SOL     OW50426   4.520   0.583  20.026
12933SOL    HW150427   4.453   0.522  20.057
12933SOL    HW250428   4.475   0.666  20.017
12934SOL     OW50429   1.302   2.382   5.395
12934SOL    HW150430   1.385   2.345   5.422
12934SOL    HW250431   1.304   2.378   5.299
12935SOL     OW50432   3.065   2.912   2.067
12935SOL    HW150433   2.978   2.940   2.096
12935SOL    HW250434   3.080   2.829   2.114
12936SOL     OW50435   2.587   2.192  11.982
12936SOL    HW150436   2.509   2.231  12.023
12936SOL    HW250437   2.641   2.163  12.056
12937SOL     OW50438   4.544   2.993   6.711
12937SOL    HW150439   4.492   2.913   6.698
12937SOL    HW250440   4.483   3.053   6.755
12938SOL     OW50441   0.697   2.853   2.722
12938SOL    HW150442   0.640   2.925   2.750
12938SOL    HW250443   0.719   2.874   2.631
12939SOL     OW50444   4.449   1.066   3.231
12939SOL    HW150445   4.449   0.978   3.193
12939SOL    HW250446   4.361   1.099   3.215
12940SOL     OW50447   1.834   2.747   0.796
12940SOL    HW150448   1.753   2.792   0.773
12940SOL    HW250449   1.867   2.794   0.872
12941SOL     OW50450   3.608   3.494  26.511
12941SOL    HW150451   3.601   3.587  26.491
12941SOL    HW250452   3.661   3.491  26.591
12942SOL     OW50453   0.065   2.245   6.684
12942SOL    HW150454   0.147   2.295   6.693
12942SOL    HW250455   0.042   2.253   6.592
12943SOL     OW50456   0.793   2.128   8.137
12943SOL    HW150457   0.797   2.033   8.151
12943SOL    HW250458   0.700   2.149   8.143
12944SOL     OW50459   3.083   3.963   6.444
12944SOL    HW150460   3.035   4.045   6.456
12944SOL    HW250461   3.110   3.965   6.352
12945SOL     OW50462   2.398   2.033  24.106
12945SOL    HW150463   2.349   2.088  24.045
12945SOL    HW250464   2.376   2.067  24.193
12946SOL     OW50465   1.174   1.615  27.192
12946SOL    HW150466   1.128   1.582  27.115
12946SOL    HW250467   1.239   1.676  27.157
12947SOL     OW50468   2.062   2.295   0.952
12947SOL    HW150469   2.133   2.287   0.888
12947SOL    HW250470   2.021   2.208   0.953
12948SOL     OW50471   2.283   2.784  21.351
12948SOL    HW150472   2.211   2.791  21.413
12948SOL    HW250473   2.255   2.718  21.288
12949SOL     OW50474   2.551   1.934   8.670
12949SOL    HW150475   2.598   1.906   8.592
12949SOL    HW250476   2.610   1.913   8.742
12950SOL     OW50477   3.711   1.707  19.550
12950SOL    HW150478   3.730   1.721  19.643
12950SOL    HW250479   3.798   1.697  19.510
12951SOL     OW50480   0.570   0.846  12.254
12951SOL    HW150481   0.592   0.930  12.294
12951SOL    HW250482   0.605   0.781  12.314
12952SOL     OW50483   4.589   0.801  24.995
12952SOL    HW150484   4.673   0.801  24.949
12952SOL    HW250485   4.589   0.883  25.045
12953SOL     OW50486   1.291   0.589  10.891
12953SOL    HW150487   1.375   0.558  10.857
12953SOL    HW250488   1.234   0.512  10.890
12954SOL     OW50489   1.668   2.973   2.420
12954SOL    HW150490   1.611   2.978   2.497
12954SOL    HW250491   1.753   3.003   2.452
12955SOL     OW50492   3.611   3.136   1.860
12955SOL    HW150493   3.529   3.154   1.814
12955SOL    HW250494   3.618   3.041   1.859
12956SOL     OW50495   1.953   2.624  23.941
12956SOL    HW150496   1.864   2.602  23.913
12956SOL    HW250497   1.945   2.710  23.982
12957SOL     OW50498   4.525   2.142   7.711
12957SOL    HW150499   4.549   2.172   7.623
12957SOL    HW250500   4.600   2.168   7.766
12958SOL     OW50501   0.448   1.349  12.235
12958SOL    HW150502   0.526   1.402  12.220
12958SOL    HW250503   0.461   1.312  12.323
12959SOL     OW50504   0.225   0.530   2.726
12959SOL    HW150505   0.207   0.598   2.662
12959SOL    HW250506   0.164   0.546   2.798
12960SOL     OW50507   4.350   2.858  21.157
12960SOL    HW150508   4.370   2.811  21.076
12960SOL    HW250509   4.297   2.932  21.129
12961SOL     OW50510   0.609   1.526  23.450
12961SOL    HW150511   0.637   1.469  23.378
12961SOL    HW250512   0.540   1.580  23.412
12962SOL     OW50513   3.310   4.063  20.373
12962SOL    HW150514   3.246   4.126  20.408
12962SOL    HW250515   3.269   4.031  20.292
12963SOL     OW50516   0.361   4.141  22.231
12963SOL    HW150517   0.399   4.100  22.153
12963SOL    HW250518   0.430   4.135  22.297
12964SOL     OW50519   4.250   0.830   9.179
12964SOL    HW150520   4.255   0.892   9.106
12964SOL    HW250521   4.323   0.852   9.236
12965SOL     OW50522   0.255   0.493  22.238
12965SOL    HW150523   0.221   0.495  22.149
12965SOL    HW250524   0.177   0.492  22.294
12966SOL     OW50525   1.145   0.354   8.962
12966SOL    HW150526   1.138   0.260   8.944
12966SOL    HW250527   1.170   0.359   9.054
12967SOL     OW50528   1.089   3.359   0.067
12967SOL    HW150529   1.135   3.288   0.022
12967SOL    HW250530   1.158   3.411   0.107
12968SOL     OW50531   4.530   0.520   6.390
12968SOL    HW150532   4.538   0.609   6.426
12968SOL    HW250533   4.451   0.485   6.432
12969SOL     OW50534   2.863   2.716  21.049
12969SOL    HW150535   2.864   2.808  21.076
12969SOL    HW250536   2.949   2.701  21.009
12970SOL     OW50537   2.771   1.287  23.606
12970SOL    HW150538   2.853   1.237  23.606
12970SOL    HW250539   2.732   1.269  23.521
12971SOL     OW50540   4.088   2.875   2.346
12971SOL    HW150541   4.153   2.881   2.417
12971SOL    HW250542   4.067   2.966   2.324
12972SOL     OW50543   1.243   1.848   5.621
12972SOL    HW150544   1.325   1.880   5.585
12972SOL    HW250545   1.264   1.824   5.712
12973SOL     OW50546   1.744   1.856  22.098
12973SOL    HW150547   1.678   1.867  22.167
12973SOL    HW250548   1.716   1.915  22.029
12974SOL     OW50549   4.061   3.071  24.199
12974SOL    HW150550   4.120   3.001  24.227
12974SOL    HW250551   4.056   3.129  24.275
12975SOL     OW50552   2.379   1.055  27.031
12975SOL    HW150553   2.293   1.058  27.073
12975SOL    HW250554   2.365   1.095  26.945
12976SOL     OW50555   3.294   4.557  25.079
12976SOL    HW150556   3.275   4.650  25.075
12976SOL    HW250557   3.337   4.538  24.996
12977SOL     OW50558   3.705   2.017   6.060
12977SOL    HW150559   3.659   2.023   5.977
12977SOL    HW250560   3.795   2.044   6.040
12978SOL     OW50561   4.679   3.088   3.960
12978SOL    HW150562   4.598   3.042   3.942
12978SOL    HW250563   4.657   3.181   3.949
12979SOL     OW50564   4.278   3.249  28.242
12979SOL    HW150565   4.280   3.289  28.329
12979SOL    HW250566   4.260   3.322  28.183
12980SOL     OW50567   3.076   0.362   6.569
12980SOL    HW150568   3.025   0.429   6.614
12980SOL    HW250569   3.162   0.364   6.611
12981SOL     OW50570   3.716   0.717   9.685
12981SOL    HW150571   3.766   0.702   9.605
12981SOL    HW250572   3.738   0.642   9.741
12982SOL     OW50573   1.037   2.362   3.456
12982SOL    HW150574   1.035   2.401   3.368
12982SOL    HW250575   1.090   2.422   3.508
12983SOL     OW50576   3.122   4.165   2.088
12983SOL    HW150577   3.095   4.254   2.110
12983SOL    HW250578   3.122   4.118   2.171
12984SOL     OW50579   3.969   0.282   2.718
12984SOL    HW150580   3.994   0.205   2.667
12984SOL    HW250581   3.951   0.349   2.653
12985SOL     OW50582   2.668   1.900  20.571
12985SOL    HW150583   2.727   1.963  20.612
12985SOL    HW250584   2.715   1.871  20.493
12986SOL     OW50585   0.592   2.738   0.842
12986SOL    HW150586   0.577   2.736   0.937
12986SOL    HW250587   0.623   2.650   0.821
12987SOL     OW50588   0.590   2.047  21.521
12987SOL    HW150589   0.591   2.139  21.549
12987SOL    HW250590   0.653   2.043  21.449
12988SOL     OW50591   1.712   1.334  28.407
12988SOL    HW150592   1.775   1.302  28.471
12988SOL    HW250593   1.751   1.413  28.370
12989SOL     OW50594   2.424   3.101  12.893
12989SOL    HW150595   2.388   3.153  12.965
12989SOL    HW250596   2.492   3.048  12.934
12990SOL     OW50597   2.045   3.002   5.026
12990SOL    HW150598   2.097   2.963   4.956
12990SOL    HW250599   1.961   2.956   5.022
12991SOL     OW50600   0.372   0.046   3.564
12991SOL    HW150601   0.397   0.010   3.479
12991SOL    HW250602   0.454   0.058   3.610
12992SOL     OW50603   3.608   0.528   6.728
12992SOL    HW150604   3.638   0.438   6.716
12992SOL    HW250605   3.578   0.531   6.819
12993SOL     OW50606   2.325   3.617  24.306
12993SOL    HW150607   2.261   3.555  24.341
12993SOL    HW250608   2.281   3.702  24.310
12994SOL     OW50609   0.125   4.018   1.147
12994SOL    HW150610   0.197   4.026   1.209
12994SOL    HW250611   0.160   3.963   1.076
12995SOL     OW50612   2.776   2.436   3.462
12995SOL    HW150613   2.707   2.386   3.417
12995SOL    HW250614   2.778   2.399   3.551
12996SOL     OW50615   3.574   2.016  12.321
12996SOL    HW150616   3.497   1.979  12.364
12996SOL    HW250617   3.622   2.060  12.392
12997SOL     OW50618   4.423   3.374   9.033
12997SOL    HW150619   4.414   3.303   8.969
12997SOL    HW250620   4.350   3.433   9.015
12998SOL     OW50621   3.539   4.628   7.499
12998SOL    HW150622   3.515   4.718   7.478
12998SOL    HW250623   3.456   4.580   7.496
12999SOL     OW50624   3.096   1.155   1.560
12999SOL    HW150625   3.182   1.155   1.601
12999SOL    HW250626   3.109   1.202   1.477
13000SOL     OW50627   0.732   2.616   1.259
13000SOL    HW150628   0.723   2.711   1.260
13000SOL    HW250629   0.756   2.593   1.348
13001SOL     OW50630   0.154   1.548  21.769
13001SOL    HW150631   0.245   1.577  21.759
13001SOL    HW250632   0.151   1.464  21.723
13002SOL     OW50633   2.164   1.483  26.281
13002SOL    HW150634   2.137   1.486  26.189
13002SOL    HW250635   2.118   1.555  26.323
13003SOL     OW50636   1.967   4.328  23.507
13003SOL    HW150637   1.887   4.336  23.455
13003SOL    HW250638   2.014   4.255  23.468
13004SOL     OW50639   4.336   3.949   8.633
13004SOL    HW150640   4.375   3.864   8.613
13004SOL    HW250641   4.289   3.935   8.715
13005SOL     OW50642   1.142   2.019  23.247
13005SOL    HW150643   1.207   2.083  23.218
13005SOL    HW250644   1.169   1.995  23.335
13006SOL     OW50645   1.549   1.275   4.283
13006SOL    HW150646   1.492   1.234   4.347
13006SOL    HW250647   1.634   1.233   4.297
13007SOL     OW50648   4.388   3.192  20.625
13007SOL    HW150649   4.304   3.232  20.647
13007SOL    HW250650   4.438   3.195  20.706
13008SOL     OW50651   1.080   1.718  12.734
13008SOL    HW150652   1.128   1.699  12.814
13008SOL    HW250653   1.044   1.806  12.747
13009SOL     OW50654   2.853   2.552   5.544
13009SOL    HW150655   2.829   2.482   5.605
13009SOL    HW250656   2.852   2.511   5.458
13010SOL     OW50657   2.147   3.494   2.330
13010SOL    HW150658   2.132   3.477   2.423
13010SOL    HW250659   2.121   3.413   2.286
13011SOL     OW50660   3.475   4.693  16.965
13011SOL    HW150661   3.426   4.748  17.027
13011SOL    HW250662   3.566   4.701  16.991
13012SOL     OW50663   0.627   3.696   2.777
13012SOL    HW150664   0.716   3.662   2.763
13012SOL    HW250665   0.569   3.627   2.745
13013SOL     OW50666   3.900   0.985   4.796
13013SOL    HW150667   3.877   1.076   4.777
13013SOL    HW250668   3.815   0.940   4.802
13014SOL     OW50669   4.057   2.994   3.268
13014SOL    HW150670   4.054   3.005   3.173
13014SOL    HW250671   4.017   3.074   3.302
13015SOL     OW50672   1.150   1.409  26.152
13015SOL    HW150673   1.222   1.396  26.090
13015SOL    HW250674   1.192   1.443  26.231
13016SOL     OW50675   1.011   4.468   9.174
13016SOL    HW150676   0.946   4.461   9.103
13016SOL    HW250677   1.009   4.559   9.200
13017SOL     OW50678   2.342   4.528   2.280
13017SOL    HW150679   2.270   4.581   2.315
13017SOL    HW250680   2.320   4.515   2.188
13018SOL     OW50681   0.991   1.486   5.026
13018SOL    HW150682   1.066   1.522   5.073
13018SOL    HW250683   0.928   1.559   5.023
13019SOL     OW50684   0.026   2.987   6.245
13019SOL    HW150685   0.061   2.927   6.311
13019SOL    HW250686   4.777   3.062   6.296
13020SOL     OW50687   0.232   2.802  11.441
13020SOL    HW150688   0.304   2.789  11.502
13020SOL    HW250689   0.229   2.721  11.390
13021SOL     OW50690   1.316   4.030  13.830
13021SOL    HW150691   1.262   4.091  13.880
13021SOL    HW250692   1.355   4.083  13.761
13022SOL     OW50693   3.780   2.607  11.567
13022SOL    HW150694   3.719   2.660  11.618
13022SOL    HW250695   3.836   2.671  11.524
13023SOL     OW50696   2.392   0.414  13.315
13023SOL    HW150697   2.469   0.449  13.360
13023SOL    HW250698   2.340   0.374  13.385
13024SOL     OW50699   3.515   2.499  13.314
13024SOL    HW150700   3.587   2.440  13.336
13024SOL    HW250701   3.480   2.528  13.398
13025SOL     OW50702   0.886   2.759  13.433
13025SOL    HW150703   0.798   2.753  13.471
13025SOL    HW250704   0.931   2.824  13.487
13026SOL     OW50705   3.309   2.825  11.180
13026SOL    HW150706   3.282   2.878  11.255
13026SOL    HW250707   3.403   2.843  11.171
13027SOL     OW50708   4.500   2.226  13.081
13027SOL    HW150709   4.506   2.246  12.988
13027SOL    HW250710   4.484   2.311  13.123
13028SOL     OW50711   0.416   1.982  11.634
13028SOL    HW150712   0.424   2.012  11.544
13028SOL    HW250713   0.420   2.062  11.687
13029SOL     OW50714   1.742   2.269  11.697
13029SOL    HW150715   1.709   2.181  11.717
13029SOL    HW250716   1.769   2.263  11.605
13030SOL     OW50717   0.669   2.482  12.350
13030SOL    HW150718   0.723   2.452  12.424
13030SOL    HW250719   0.720   2.554  12.312
13031SOL     OW50720   3.092   1.808  11.990
13031SOL    HW150721   3.011   1.833  11.946
13031SOL    HW250722   3.064   1.777  12.076
13032SOL     OW50723   3.260   2.630  11.761
13032SOL    HW150724   3.245   2.537  11.779
13032SOL    HW250725   3.345   2.649  11.800
13033SOL     OW50726   4.155   1.764  12.982
13033SOL    HW150727   4.211   1.697  12.944
13033SOL    HW250728   4.206   1.845  12.973
13034SOL     OW50729   0.041   3.034  12.947
13034SOL    HW150730   0.023   3.034  12.853
13034SOL    HW250731   0.077   2.947  12.965
13035SOL     OW50732   0.191   2.590  11.280
13035SOL    HW150733   0.223   2.500  11.292
13035SOL    HW250734   0.153   2.590  11.192
13036SOL     OW50735   4.199   2.678  11.449
13036SOL    HW150736   4.106   2.701  11.452
13036SOL    HW250737   4.230   2.716  11.367
13037SOL     OW50738   3.362   2.713  12.957
13037SOL    HW150739   3.364   2.808  12.960
13037SOL    HW250740   3.347   2.692  12.865
13038SOL     OW50741   1.429   3.819  13.037
13038SOL    HW150742   1.427   3.749  13.102
13038SOL    HW250743   1.435   3.774  12.953
13039SOL     OW50744   4.753   2.123  13.176
13039SOL    HW150745   0.018   2.206  13.185
13039SOL    HW250746   4.665   2.149  13.147
13040SOL     OW50747   0.269   3.715  21.198
13040SOL    HW150748   0.206   3.644  21.213
13040SOL    HW250749   0.347   3.670  21.163
13041SOL     OW50750   2.187   2.096  11.592
13041SOL    HW150751   2.140   2.052  11.663
13041SOL    HW250752   2.276   2.061  11.597
13042SOL     OW50753   2.223   1.706   7.868
13042SOL    HW150754   2.258   1.781   7.820
13042SOL    HW250755   2.299   1.672   7.917
13043SOL     OW50756   4.188   2.587  13.038
13043SOL    HW150757   4.251   2.618  13.103
13043SOL    HW250758   4.143   2.667  13.009
13044SOL     OW50759   0.623   2.004  10.912
13044SOL    HW150760   0.599   1.915  10.887
13044SOL    HW250761   0.547   2.057  10.888
13045SOL     OW50762   4.316   0.972   1.412
13045SOL    HW150763   4.371   0.995   1.337
13045SOL    HW250764   4.295   0.880   1.399
13046SOL     OW50765   4.097   2.952  12.603
13046SOL    HW150766   4.065   2.996  12.681
13046SOL    HW250767   4.086   2.859  12.621
13047SOL     OW50768   4.452   3.003  12.254
13047SOL    HW150769   4.414   2.937  12.313
13047SOL    HW250770   4.440   2.967  12.166
13048SOL     OW50771   4.039   2.824  13.056
13048SOL    HW150772   3.981   2.794  13.126
13048SOL    HW250773   4.023   2.918  13.050
13049SOL     OW50774   0.521   1.991  12.624
13049SOL    HW150775   0.581   1.922  12.652
13049SOL    HW250776   0.452   1.991  12.690
13050SOL     OW50777   4.703   3.365  12.147
13050SOL    HW150778   4.781   3.371  12.203
13050SOL    HW250779   4.686   3.456  12.121
13051SOL     OW50780   4.456   2.906  12.004
13051SOL    HW150781   4.513   2.848  11.954
13051SOL    HW250782   4.376   2.912  11.951
13052SOL     OW50783   4.102   3.181  12.409
13052SOL    HW150784   4.083   3.100  12.457
13052SOL    HW250785   4.112   3.247  12.478
13053SOL     OW50786   1.413   2.211  12.756
13053SOL    HW150787   1.335   2.193  12.808
13053SOL    HW250788   1.421   2.136  12.697
13054SOL     OW50789   3.641   2.597  17.265
13054SOL    HW150790   3.651   2.675  17.320
13054SOL    HW250791   3.706   2.607  17.196
13055SOL     OW50792   3.332   2.400  12.706
13055SOL    HW150793   3.350   2.390  12.613
13055SOL    HW250794   3.237   2.415  12.711
13056SOL     OW50795   3.790   2.101  14.003
13056SOL    HW150796   3.843   2.141  14.072
13056SOL    HW250797   3.802   2.159  13.928
13057SOL     OW50798   1.351   0.777   9.634
13057SOL    HW150799   1.283   0.732   9.584
13057SOL    HW250800   1.386   0.710   9.693
13058SOL     OW50801   4.652   2.774  14.551
13058SOL    HW150802   4.724   2.822  14.590
13058SOL    HW250803   4.576   2.796  14.605
13059SOL     OW50804   1.776   2.477  13.837
13059SOL    HW150805   1.865   2.484  13.870
13059SOL    HW250806   1.769   2.386  13.807
13060SOL     OW50807   0.899   1.990  14.970
13060SOL    HW150808   0.868   2.076  14.998
13060SOL    HW250809   0.821   1.945  14.936
13061SOL     OW50810   0.189   2.348  12.080
13061SOL    HW150811   0.186   2.386  12.168
13061SOL    HW250812   0.282   2.347  12.057
13062SOL     OW50813   0.571   1.339  14.216
13062SOL    HW150814   0.513   1.414  14.226
13062SOL    HW250815   0.562   1.289  14.297
13063SOL     OW50816   4.719   1.755  16.070
13063SOL    HW150817   4.772   1.829  16.041
13063SOL    HW250818   4.685   1.717  15.989
13064SOL     OW50819   0.100   1.984  14.732
13064SOL    HW150820   0.044   1.910  14.709
13064SOL    HW250821   0.084   2.048  14.663
13065SOL     OW50822   4.352   1.467  14.055
13065SOL    HW150823   4.412   1.523  14.104
13065SOL    HW250824   4.388   1.378  14.067
13066SOL     OW50825   4.779   3.383  12.861
13066SOL    HW150826   0.050   3.330  12.802
13066SOL    HW250827   4.739   3.448  12.804
13067SOL     OW50828   4.605   2.613  13.503
13067SOL    HW150829   4.545   2.592  13.574
13067SOL    HW250830   4.678   2.553  13.515
13068SOL     OW50831   3.482   2.678  12.667
13068SOL    HW150832   3.399   2.721  12.647
13068SOL    HW250833   3.460   2.585  12.672
13069SOL     OW50834   4.674   2.483  14.506
13069SOL    HW150835   4.664   2.578  14.518
13069SOL    HW250836   4.646   2.446  14.590
13070SOL     OW50837   0.323   1.251  13.491
13070SOL    HW150838   0.243   1.264  13.542
13070SOL    HW250839   0.367   1.177  13.534
13071SOL     OW50840   0.541   0.123  15.015
13071SOL    HW150841   0.535   0.142  15.109
13071SOL    HW250842   0.474   0.056  14.999
13072SOL     OW50843   1.434   2.250  13.880
13072SOL    HW150844   1.513   2.198  13.889
13072SOL    HW250845   1.442   2.319  13.946
13073SOL     OW50846   0.478   2.272  11.703
13073SOL    HW150847   0.398   2.312  11.667
13073SOL    HW250848   0.473   2.290  11.797
13074SOL     OW50849   0.325   3.207  14.320
13074SOL    HW150850   0.413   3.186  14.287
13074SOL    HW250851   0.336   3.218  14.414
13075SOL     OW50852   4.130   2.472  14.168
13075SOL    HW150853   4.182   2.497  14.244
13075SOL    HW250854   4.044   2.509  14.184
13076SOL     OW50855   0.329   0.848  15.901
13076SOL    HW150856   0.259   0.829  15.838
13076SOL    HW250857   0.385   0.770  15.898
13077SOL     OW50858   4.636   0.434  14.544
13077SOL    HW150859   4.632   0.488  14.623
13077SOL    HW250860   4.596   0.488  14.476
13078SOL     OW50861   2.519   1.800  14.785
13078SOL    HW150862   2.610   1.802  14.811
13078SOL    HW250863   2.514   1.734  14.716
13079SOL     OW50864   3.532   1.897  14.432
13079SOL    HW150865   3.552   1.804  14.429
13079SOL    HW250866   3.561   1.931  14.347
13080SOL     OW50867   0.673   2.550  12.830
13080SOL    HW150868   0.702   2.637  12.859
13080SOL    HW250869   0.743   2.491  12.858
13081SOL     OW50870   4.655   3.471  12.484
13081SOL    HW150871   4.592   3.402  12.462
13081SOL    HW250872   4.734   3.446  12.436
13082SOL     OW50873   3.468   1.917  13.522
13082SOL    HW150874   3.395   1.888  13.576
13082SOL    HW250875   3.530   1.844  13.524
13083SOL     OW50876   4.365   2.214  14.609
13083SOL    HW150877   4.326   2.257  14.532
13083SOL    HW250878   4.306   2.237  14.681
13084SOL     OW50879   4.718   1.204  14.896
13084SOL    HW150880   0.001   1.259  14.940
13084SOL    HW250881   4.768   1.128  14.865
13085SOL     OW50882   3.639   1.650  14.410
13085SOL    HW150883   3.625   1.578  14.471
13085SOL    HW250884   3.726   1.635  14.374
13086SOL     OW50885   3.681   3.124  12.782
13086SOL    HW150886   3.697   3.218  12.769
13086SOL    HW250887   3.598   3.107  12.737
13087SOL     OW50888   0.254   1.854  15.080
13087SOL    HW150889   0.170   1.897  15.061
13087SOL    HW250890   0.245   1.766  15.044
13088SOL     OW50891   0.367   2.843  13.698
13088SOL    HW150892   0.274   2.822  13.699
13088SOL    HW250893   0.411   2.759  13.687
13089SOL     OW50894   0.126   2.769  13.038
13089SOL    HW150895   0.129   2.677  13.010
13089SOL    HW250896   0.206   2.782  13.088
13090SOL     OW50897   0.218   2.946  14.055
13090SOL    HW150898   0.160   2.920  13.984
13090SOL    HW250899   0.221   2.870  14.113
13091SOL     OW50900   0.443   2.237  14.424
13091SOL    HW150901   0.423   2.177  14.496
13091SOL    HW250902   0.446   2.181  14.346
13092SOL     OW50903   3.935   3.877  12.662
13092SOL    HW150904   3.900   3.818  12.729
13092SOL    HW250905   4.030   3.866  12.668
13093SOL     OW50906   4.717   1.571  12.529
13093SOL    HW150907   4.700   1.479  12.553
13093SOL    HW250908   4.642   1.618  12.564
13094SOL     OW50909   4.672   1.077  16.008
13094SOL    HW150910   4.697   1.169  16.003
13094SOL    HW250911   4.689   1.043  15.921
13095SOL     OW50912   3.179   2.333  11.809
13095SOL    HW150913   3.185   2.258  11.749
13095SOL    HW250914   3.196   2.295  11.895
13096SOL     OW50915   4.099   3.227  13.245
13096SOL    HW150916   4.160   3.246  13.315
13096SOL    HW250917   4.058   3.311  13.224
13097SOL     OW50918   3.723   2.198  14.310
13097SOL    HW150919   3.666   2.263  14.267
13097SOL    HW250920   3.699   2.115  14.269
13098SOL     OW50921   4.723   1.468  15.072
13098SOL    HW150922   4.762   1.516  14.998
13098SOL    HW250923   4.693   1.536  15.131
13099SOL     OW50924   3.892   1.915  15.200
13099SOL    HW150925   3.806   1.897  15.162
13099SOL    HW250926   3.874   1.973  15.274
13100SOL     OW50927   3.596   2.047  15.815
13100SOL    HW150928   3.513   2.002  15.827
13100SOL    HW250929   3.619   2.032  15.723
13101SOL     OW50930   4.564   2.568  16.669
13101SOL    HW150931   4.660   2.572  16.669
13101SOL    HW250932   4.540   2.575  16.762
13102SOL     OW50933   4.218   1.786  14.629
13102SOL    HW150934   4.184   1.869  14.662
13102SOL    HW250935   4.209   1.725  14.702
13103SOL     OW50936   4.095   4.166  15.260
13103SOL    HW150937   4.021   4.117  15.221
13103SOL    HW250938   4.109   4.239  15.200
13104SOL     OW50939   4.656   2.253  14.067
13104SOL    HW150940   4.569   2.216  14.047
13104SOL    HW250941   4.709   2.233  13.990
13105SOL     OW50942   4.195   2.339  14.789
13105SOL    HW150943   4.135   2.405  14.756
13105SOL    HW250944   4.191   2.347  14.885
13106SOL     OW50945   0.877   2.023  15.281
13106SOL    HW150946   0.953   2.075  15.309
13106SOL    HW250947   0.863   2.048  15.190
13107SOL     OW50948   0.622   2.341  16.600
13107SOL    HW150949   0.607   2.254  16.638
13107SOL    HW250950   0.707   2.368  16.635
13108SOL     OW50951   0.304   2.558  15.515
13108SOL    HW150952   0.212   2.543  15.494
13108SOL    HW250953   0.349   2.481  15.481
13109SOL     OW50954   0.318   1.417  16.128
13109SOL    HW150955   0.268   1.336  16.140
13109SOL    HW250956   0.398   1.403  16.178
13110SOL     OW50957   0.410   1.000  15.258
13110SOL    HW150958   0.430   0.919  15.210
13110SOL    HW250959   0.315   1.008  15.252
13111SOL     OW50960   0.878   1.497  15.217
13111SOL    HW150961   0.887   1.592  15.212
13111SOL    HW250962   0.912   1.466  15.133
13112SOL     OW50963   3.976   2.227  15.202
13112SOL    HW150964   3.903   2.183  15.245
13112SOL    HW250965   4.017   2.279  15.271
13113SOL     OW50966   3.962   2.149  14.914
13113SOL    HW150967   3.883   2.097  14.929
13113SOL    HW250968   4.005   2.152  15.000
13114SOL     OW50969   1.656   3.159  18.648
13114SOL    HW150970   1.687   3.151  18.738
13114SOL    HW250971   1.674   3.250  18.625
13115SOL     OW50972   3.972   2.489  14.913
13115SOL    HW150973   3.975   2.467  14.820
13115SOL    HW250974   3.898   2.438  14.947
13116SOL     OW50975   4.677   0.621  14.747
13116SOL    HW150976   4.681   0.549  14.810
13116SOL    HW250977   4.589   0.658  14.757
13117SOL     OW50978   3.597   1.900  15.190
13117SOL    HW150979   3.534   1.948  15.243
13117SOL    HW250980   3.584   1.808  15.214
13118SOL     OW50981   1.048   2.215  15.660
13118SOL    HW150982   1.078   2.303  15.684
13118SOL    HW250983   0.968   2.202  15.711
13119SOL     OW50984   0.651   2.834  16.520
13119SOL    HW150985   0.740   2.840  16.484
13119SOL    HW250986   0.598   2.887  16.460
13120SOL     OW50987   3.412   2.039  15.342
13120SOL    HW150988   3.359   1.973  15.386
13120SOL    HW250989   3.384   2.122  15.383
13121SOL     OW50990   1.317   3.771  16.740
13121SOL    HW150991   1.391   3.768  16.679
13121SOL    HW250992   1.273   3.687  16.729
13122SOL     OW50993   2.384   0.835  18.089
13122SOL    HW150994   2.317   0.870  18.147
13122SOL    HW250995   2.336   0.808  18.010
13123SOL     OW50996   4.596   0.651  14.387
13123SOL    HW150997   4.636   0.737  14.377
13123SOL    HW250998   4.504   0.664  14.363
13124SOL     OW50999   4.728   2.965  25.726
13124SOL    HW151000   4.717   2.925  25.812
13124SOL    HW251001   4.692   3.053  25.736
13125SOL     OW51002   4.181   3.075  15.327
13125SOL    HW151003   4.235   3.128  15.268
13125SOL    HW251004   4.152   3.002  15.273
13126SOL     OW51005   3.683   2.960  16.176
13126SOL    HW151006   3.613   2.925  16.120
13126SOL    HW251007   3.730   3.022  16.119
13127SOL     OW51008   4.655   1.998  14.423
13127SOL    HW151009   4.588   2.066  14.432
13127SOL    HW251010   4.722   2.038  14.368
13128SOL     OW51011   0.359   2.812  15.605
13128SOL    HW151012   0.350   2.717  15.598
13128SOL    HW251013   0.311   2.846  15.530
13129SOL     OW51014   4.547   3.584  15.041
13129SOL    HW151015   4.596   3.547  15.113
13129SOL    HW251016   4.602   3.570  14.964
13130SOL     OW51017   3.955   3.264  15.212
13130SOL    HW151018   4.019   3.208  15.255
13130SOL    HW251019   3.894   3.203  15.171
13131SOL     OW51020   3.618   1.991  15.535
13131SOL    HW151021   3.554   1.979  15.464
13131SOL    HW251022   3.668   1.909  15.536
13132SOL     OW51023   0.322   3.122  15.167
13132SOL    HW151024   0.335   3.056  15.099
13132SOL    HW251025   0.408   3.161  15.179
13133SOL     OW51026   3.688   3.418  16.604
13133SOL    HW151027   3.681   3.410  16.509
13133SOL    HW251028   3.782   3.428  16.621
13134SOL     OW51029   0.762   2.445  16.338
13134SOL    HW151030   0.723   2.421  16.254
13134SOL    HW251031   0.726   2.381  16.400
13135SOL     OW51032   0.082   0.712  14.269
13135SOL    HW151033   0.034   0.790  14.297
13135SOL    HW251034   0.129   0.683  14.347
13136SOL     OW51035   0.050   0.835  15.057
13136SOL    HW151036   0.109   0.800  14.990
13136SOL    HW251037   4.745   0.829  15.018
13137SOL     OW51038   0.209   0.848  15.459
13137SOL    HW151039   0.160   0.919  15.418
13137SOL    HW251040   0.165   0.768  15.431
13138SOL     OW51041   2.723   3.284  17.719
13138SOL    HW151042   2.795   3.346  17.733
13138SOL    HW251043   2.707   3.288  17.624
13139SOL     OW51044   1.308   4.381  23.414
13139SOL    HW151045   1.247   4.365  23.486
13139SOL    HW251046   1.341   4.470  23.431
13140SOL     OW51047   0.269   2.554  16.237
13140SOL    HW151048   0.284   2.618  16.167
13140SOL    HW251049   0.174   2.543  16.239
13141SOL     OW51050   3.931   1.875  16.452
13141SOL    HW151051   3.890   1.792  16.429
13141SOL    HW251052   4.014   1.875  16.406
13142SOL     OW51053   0.819   0.124  16.853
13142SOL    HW151054   0.889   0.148  16.793
13142SOL    HW251055   0.815   0.028  16.848
13143SOL     OW51056   1.157   4.354  21.513
13143SOL    HW151057   1.154   4.291  21.441
13143SOL    HW251058   1.241   4.398  21.502
13144SOL     OW51059   3.682   3.378  16.320
13144SOL    HW151060   3.742   3.453  16.324
13144SOL    HW251061   3.740   3.301  16.327
13145SOL     OW51062   4.680   4.034  23.692
13145SOL    HW151063   4.591   3.998  23.686
13145SOL    HW251064   4.716   3.997  23.773
13146SOL     OW51065   4.420   1.759  15.947
13146SOL    HW151066   4.491   1.735  15.886
13146SOL    HW251067   4.443   1.848  15.974
13147SOL     OW51068   2.306   1.547  16.261
13147SOL    HW151069   2.392   1.520  16.228
13147SOL    HW251070   2.247   1.530  16.187
13148SOL     OW51071   2.728   2.506   5.005
13148SOL    HW151072   2.634   2.514   4.986
13148SOL    HW251073   2.766   2.479   4.921
13149SOL     OW51074   1.286   4.761  20.730
13149SOL    HW151075   1.246   0.007  20.648
13149SOL    HW251076   1.312   0.060  20.773
13150SOL     OW51077   0.300   0.965  28.416
13150SOL    HW151078   0.355   1.044  28.417
13150SOL    HW251079   0.211   0.998  28.431
13151SOL     OW51080   2.022   1.674  16.637
13151SOL    HW151081   2.074   1.702  16.562
13151SOL    HW251082   1.962   1.608  16.601
13152SOL     OW51083   3.172   0.931   8.739
13152SOL    HW151084   3.218   0.948   8.821
13152SOL    HW251085   3.241   0.933   8.672
13153SOL     OW51086   1.572   1.431  16.565
13153SOL    HW151087   1.509   1.362  16.585
13153SOL    HW251088   1.583   1.426  16.470
13154SOL     OW51089   4.275   2.425   5.453
13154SOL    HW151090   4.303   2.361   5.389
13154SOL    HW251091   4.354   2.475   5.474
13155SOL     OW51092   3.600   4.381  24.414
13155SOL    HW151093   3.658   4.402  24.487
13155SOL    HW251094   3.544   4.311  24.448
13156SOL     OW51095   1.143   1.720   2.095
13156SOL    HW151096   1.193   1.798   2.122
13156SOL    HW251097   1.191   1.685   2.020
13157SOL     OW51098   1.460   3.079   3.374
13157SOL    HW151099   1.472   2.995   3.417
13157SOL    HW251100   1.549   3.109   3.355
13158SOL     OW51101   4.396   0.573  18.869
13158SOL    HW151102   4.334   0.500  18.881
13158SOL    HW251103   4.346   0.639  18.822
13159SOL     OW51104   1.953   0.820  16.323
13159SOL    HW151105   1.982   0.810  16.413
13159SOL    HW251106   1.936   0.914  16.314
13160SOL     OW51107   0.181   1.878  15.850
13160SOL    HW151108   0.198   1.794  15.807
13160SOL    HW251109   0.266   1.921  15.854
13161SOL     OW51110   4.104   4.420   8.777
13161SOL    HW151111   4.144   4.506   8.784
13161SOL    HW251112   4.156   4.375   8.710
13162SOL     OW51113   1.357   0.012  27.056
13162SOL    HW151114   1.314   4.776  26.973
13162SOL    HW251115   1.397   0.098  27.044
13163SOL     OW51116   0.941   2.658   6.889
13163SOL    HW151117   0.993   2.722   6.841
13163SOL    HW251118   0.991   2.577   6.882
13164SOL     OW51119   2.288   3.892  24.309
13164SOL    HW151120   2.245   3.962  24.358
13164SOL    HW251121   2.316   3.933  24.227
13165SOL     OW51122   3.346   4.403  24.131
13165SOL    HW151123   3.331   4.498  24.133
13165SOL    HW251124   3.390   4.388  24.047
13166SOL     OW51125   3.186   2.348  24.838
13166SOL    HW151126   3.091   2.347  24.844
13166SOL    HW251127   3.212   2.258  24.857
13167SOL     OW51128   0.252   1.662  15.699
13167SOL    HW151129   0.280   1.584  15.748
13167SOL    HW251130   0.306   1.660  15.620
13168SOL     OW51131   0.718   3.852  17.341
13168SOL    HW151132   0.785   3.885  17.401
13168SOL    HW251133   0.640   3.902  17.363
13169SOL     OW51134   4.204   3.494  22.730
13169SOL    HW151135   4.203   3.415  22.783
13169SOL    HW251136   4.164   3.468  22.647
13170SOL     OW51137   1.748   1.226  15.808
13170SOL    HW151138   1.798   1.160  15.760
13170SOL    HW251139   1.692   1.266  15.741
13171SOL     OW51140   2.070   0.221   7.622
13171SOL    HW151141   2.158   0.188   7.607
13171SOL    HW251142   2.059   0.291   7.558
13172SOL     OW51143   0.664   1.986  25.391
13172SOL    HW151144   0.658   2.056  25.326
13172SOL    HW251145   0.728   1.925  25.355
13173SOL     OW51146   4.736   0.597  15.638
13173SOL    HW151147   4.646   0.630  15.630
13173SOL    HW251148   4.728   0.503  15.622
13174SOL     OW51149   4.362   2.365  16.250
13174SOL    HW151150   4.290   2.386  16.191
13174SOL    HW251151   4.346   2.274  16.275
13175SOL     OW51152   4.353   0.351  21.782
13175SOL    HW151153   4.361   0.413  21.710
13175SOL    HW251154   4.266   0.367  21.819
13176SOL     OW51155   0.264   4.598  16.254
13176SOL    HW151156   0.277   4.558  16.168
13176SOL    HW251157   0.328   4.670  16.256
13177SOL     OW51158   3.583   4.680  16.584
13177SOL    HW151159   3.615   4.757  16.631
13177SOL    HW251160   3.581   4.707  16.492
13178SOL     OW51161   3.780   1.285  26.582
13178SOL    HW151162   3.693   1.313  26.552
13178SOL    HW251163   3.783   1.191  26.565
13179SOL     OW51164   1.518   1.171  19.331
13179SOL    HW151165   1.591   1.129  19.377
13179SOL    HW251166   1.558   1.209  19.252
13180SOL     OW51167   2.163   1.152  22.379
13180SOL    HW151168   2.207   1.071  22.406
13180SOL    HW251169   2.217   1.222  22.414
13181SOL     OW51170   0.879   4.649   8.210
13181SOL    HW151171   0.957   4.692   8.245
13181SOL    HW251172   0.808   4.677   8.268
13182SOL     OW51173   4.773   4.342   2.602
13182SOL    HW151174   4.777   4.391   2.685
13182SOL    HW251175   4.691   4.293   2.607
13183SOL     OW51176   4.737   0.756  15.326
13183SOL    HW151177   4.653   0.738  15.284
13183SOL    HW251178   0.016   0.767  15.253
13184SOL     OW51179   4.632   2.017   6.600
13184SOL    HW151180   4.634   1.950   6.668
13184SOL    HW251181   4.683   1.980   6.528
13185SOL     OW51182   2.411   2.066   3.775
13185SOL    HW151183   2.475   2.109   3.832
13185SOL    HW251184   2.327   2.081   3.818
13186SOL     OW51185   1.532   2.188  21.497
13186SOL    HW151186   1.590   2.120  21.461
13186SOL    HW251187   1.474   2.210  21.425
13187SOL     OW51188   2.778   2.782  22.019
13187SOL    HW151189   2.864   2.789  22.061
13187SOL    HW251190   2.760   2.688  22.017
13188SOL     OW51191   3.426   4.598  26.974
13188SOL    HW151192   3.485   4.531  27.007
13188SOL    HW251193   3.477   4.679  26.975
13189SOL     OW51194   0.519   0.373  27.568
13189SOL    HW151195   0.429   0.347  27.553
13189SOL    HW251196   0.520   0.468  27.554
13190SOL     OW51197   1.004   1.177   9.321
13190SOL    HW151198   1.008   1.268   9.353
13190SOL    HW251199   1.092   1.142   9.334
13191SOL     OW51200   1.475   3.754  23.615
13191SOL    HW151201   1.569   3.757  23.635
13191SOL    HW251202   1.450   3.846  23.606
13192SOL     OW51203   3.524   1.383  17.381
13192SOL    HW151204   3.518   1.367  17.475
13192SOL    HW251205   3.459   1.323  17.343
13193SOL     OW51206   0.160   3.931   7.623
13193SOL    HW151207   0.176   3.951   7.530
13193SOL    HW251208   0.232   3.874   7.648
13194SOL     OW51209   3.524   4.196   8.771
13194SOL    HW151210   3.525   4.236   8.684
13194SOL    HW251211   3.581   4.119   8.762
13195SOL     OW51212   0.830   1.342   8.337
13195SOL    HW151213   0.893   1.287   8.383
13195SOL    HW251214   0.797   1.402   8.404
13196SOL     OW51215   4.552   1.846  19.579
13196SOL    HW151216   4.553   1.929  19.627
13196SOL    HW251217   4.626   1.853  19.518
13197SOL     OW51218   1.474   2.225   8.068
13197SOL    HW151219   1.459   2.187   8.155
13197SOL    HW251220   1.525   2.159   8.022
13198SOL     OW51221   2.857   1.311  18.156
13198SOL    HW151222   2.922   1.376  18.179
13198SOL    HW251223   2.845   1.321  18.062
13199SOL     OW51224   0.983   4.039  27.132
13199SOL    HW151225   1.075   4.033  27.107
13199SOL    HW251226   0.935   4.026  27.051
13200SOL     OW51227   2.883   1.121   4.116
13200SOL    HW151228   2.845   1.201   4.080
13200SOL    HW251229   2.885   1.059   4.043
13201SOL     OW51230   3.998   2.120  27.396
13201SOL    HW151231   3.986   2.031  27.428
13201SOL    HW251232   3.916   2.141  27.352
13202SOL     OW51233   3.365   3.601   8.281
13202SOL    HW151234   3.272   3.597   8.306
13202SOL    HW251235   3.370   3.676   8.222
13203SOL     OW51236   2.551   3.093  24.725
13203SOL    HW151237   2.502   3.071  24.646
13203SOL    HW251238   2.498   3.161  24.768
13204SOL     OW51239   4.308   1.223   8.455
13204SOL    HW151240   4.282   1.280   8.527
13204SOL    HW251241   4.263   1.259   8.378
13205SOL     OW51242   0.922   4.220   0.282
13205SOL    HW151243   0.861   4.157   0.243
13205SOL    HW251244   0.967   4.170   0.351
13206SOL     OW51245   2.826   3.990  17.276
13206SOL    HW151246   2.777   4.072  17.286
13206SOL    HW251247   2.759   3.922  17.279
13207SOL     OW51248   4.349   0.680  23.197
13207SOL    HW151249   4.319   0.755  23.147
13207SOL    HW251250   4.442   0.674  23.177
13208SOL     OW51251   2.659   3.214   9.782
13208SOL    HW151252   2.642   3.166   9.701
13208SOL    HW251253   2.651   3.306   9.757
13209SOL     OW51254   3.832   3.390   1.267
13209SOL    HW151255   3.802   3.429   1.185
13209SOL    HW251256   3.883   3.460   1.309
13210SOL     OW51257   4.007   2.007  28.199
13210SOL    HW151258   4.012   2.021  28.293
13210SOL    HW251259   3.928   2.055  28.172
13211SOL     OW51260   3.045   3.382  17.244
13211SOL    HW151261   3.029   3.295  17.281
13211SOL    HW251262   3.069   3.366  17.153
13212SOL     OW51263   1.614   0.780   4.260
13212SOL    HW151264   1.543   0.784   4.324
13212SOL    HW251265   1.575   0.736   4.184
13213SOL     OW51266   1.355   2.121   4.466
13213SOL    HW151267   1.373   2.215   4.463
13213SOL    HW251268   1.263   2.113   4.442
13214SOL     OW51269   3.067   1.814   7.905
13214SOL    HW151270   3.137   1.756   7.936
13214SOL    HW251271   3.017   1.835   7.983
13215SOL     OW51272   1.269   2.240   7.614
13215SOL    HW151273   1.175   2.253   7.616
13215SOL    HW251274   1.281   2.151   7.580
13216SOL     OW51275   1.820   0.498   7.344
13216SOL    HW151276   1.772   0.431   7.392
13216SOL    HW251277   1.854   0.452   7.267
13217SOL     OW51278   4.761   3.146   2.577
13217SOL    HW151279   0.007   3.218   2.520
13217SOL    HW251280   4.757   3.070   2.518
13218SOL     OW51281   3.480   3.774   2.163
13218SOL    HW151282   3.495   3.869   2.170
13218SOL    HW251283   3.525   3.737   2.239
13219SOL     OW51284   3.828   2.118  26.503
13219SOL    HW151285   3.750   2.168  26.528
13219SOL    HW251286   3.816   2.033  26.544
13220SOL     OW51287   0.206   1.696  24.299
13220SOL    HW151288   0.114   1.722  24.302
13220SOL    HW251289   0.233   1.688  24.391
13221SOL     OW51290   1.251   2.306   1.279
13221SOL    HW151291   1.315   2.322   1.210
13221SOL    HW251292   1.283   2.229   1.325
13222SOL     OW51293   4.780   1.140  27.088
13222SOL    HW151294   0.087   1.122  27.058
13222SOL    HW251295   0.002   1.128  27.183
13223SOL     OW51296   1.114   0.917  25.674
13223SOL    HW151297   1.146   0.889  25.588
13223SOL    HW251298   1.038   0.971  25.655
13224SOL     OW51299   1.250   3.606   1.661
13224SOL    HW151300   1.181   3.640   1.604
13224SOL    HW251301   1.220   3.626   1.750
13225SOL     OW51302   2.909   1.632   6.686
13225SOL    HW151303   2.877   1.711   6.642
13225SOL    HW251304   2.854   1.624   6.764
13226SOL     OW51305   0.960   3.500   3.933
13226SOL    HW151306   0.866   3.500   3.920
13226SOL    HW251307   0.972   3.499   4.028
13227SOL     OW51308   2.497   2.430   7.587
13227SOL    HW151309   2.504   2.380   7.668
13227SOL    HW251310   2.570   2.400   7.533
13228SOL     OW51311   2.976   0.655   7.592
13228SOL    HW151312   2.881   0.647   7.606
13228SOL    HW251313   3.014   0.644   7.679
13229SOL     OW51314   2.893   3.877  26.917
13229SOL    HW151315   2.845   3.949  26.958
13229SOL    HW251316   2.826   3.822  26.877
13230SOL     OW51317   3.911   3.207   1.505
13230SOL    HW151318   3.830   3.157   1.507
13230SOL    HW251319   3.898   3.272   1.436
13231SOL     OW51320   3.663   0.223   4.104
13231SOL    HW151321   3.620   0.295   4.151
13231SOL    HW251322   3.712   0.177   4.172
13232SOL     OW51323   4.389   2.840  25.349
13232SOL    HW151324   4.484   2.847  25.339
13232SOL    HW251325   4.361   2.786  25.276
13233SOL     OW51326   2.143   4.137   4.180
13233SOL    HW151327   2.127   4.046   4.156
13233SOL    HW251328   2.056   4.177   4.181
13234SOL     OW51329   3.854   4.396  23.804
13234SOL    HW151330   3.898   4.327  23.754
13234SOL    HW251331   3.914   4.417  23.875
13235SOL     OW51332   0.501   2.142   6.703
13235SOL    HW151333   0.569   2.170   6.642
13235SOL    HW251334   0.506   2.206   6.775
13236SOL     OW51335   1.008   2.757  21.087
13236SOL    HW151336   0.924   2.800  21.103
13236SOL    HW251337   0.992   2.665  21.109
13237SOL     OW51338   3.135   0.037   0.369
13237SOL    HW151339   3.058   0.058   0.315
13237SOL    HW251340   3.193   4.773   0.309
13238SOL     OW51341   3.778   0.259  20.776
13238SOL    HW151342   3.742   0.302  20.853
13238SOL    HW251343   3.791   0.330  20.712
13239SOL     OW51344   2.131   1.041   0.738
13239SOL    HW151345   2.126   1.128   0.778
13239SOL    HW251346   2.109   0.981   0.809
13240SOL     OW51347   2.721   3.361   4.111
13240SOL    HW151348   2.673   3.279   4.104
13240SOL    HW251349   2.721   3.397   4.023
13241SOL     OW51350   3.420   3.042  27.844
13241SOL    HW151351   3.349   3.060  27.782
13241SOL    HW251352   3.439   2.949  27.831
13242SOL     OW51353   0.988   3.395  23.341
13242SOL    HW151354   1.037   3.477  23.328
13242SOL    HW251355   1.042   3.345  23.402
13243SOL     OW51356   2.604   2.706  25.796
13243SOL    HW151357   2.646   2.714  25.881
13243SOL    HW251358   2.522   2.755  25.804
13244SOL     OW51359   3.318   3.820  17.401
13244SOL    HW151360   3.271   3.753  17.450
13244SOL    HW251361   3.259   3.845  17.331
13245SOL     OW51362   3.901   2.648  20.139
13245SOL    HW151363   3.941   2.675  20.221
13245SOL    HW251364   3.850   2.571  20.161
13246SOL     OW51365   1.657   2.965   6.904
13246SOL    HW151366   1.662   2.987   6.997
13246SOL    HW251367   1.728   3.015   6.863
13247SOL     OW51368   4.569   3.347   0.610
13247SOL    HW151369   4.634   3.330   0.678
13247SOL    HW251370   4.583   3.278   0.545
13248SOL     OW51371   0.344   3.006  25.173
13248SOL    HW151372   0.298   3.043  25.098
13248SOL    HW251373   0.284   2.940  25.208
13249SOL     OW51374   1.189   4.422  23.161
13249SOL    HW151375   1.252   4.381  23.221
13249SOL    HW251376   1.108   4.426  23.211
13250SOL     OW51377   2.380   0.365  21.042
13250SOL    HW151378   2.285   0.361  21.053
13250SOL    HW251379   2.403   0.455  21.064
13251SOL     OW51380   4.511   2.321  26.729
13251SOL    HW151381   4.491   2.413  26.710
13251SOL    HW251382   4.500   2.277  26.645
13252SOL     OW51383   4.658   2.541  23.124
13252SOL    HW151384   4.602   2.616  23.104
13252SOL    HW251385   4.715   2.572  23.194
13253SOL     OW51386   4.634   1.726   1.177
13253SOL    HW151387   4.659   1.634   1.170
13253SOL    HW251388   4.636   1.744   1.271
13254SOL     OW51389   1.854   1.838  22.440
13254SOL    HW151390   1.923   1.816  22.377
13254SOL    HW251391   1.814   1.755  22.462
13255SOL     OW51392   0.036   1.901  22.707
13255SOL    HW151393   0.072   1.813  22.712
13255SOL    HW251394   0.007   1.910  22.616
13256SOL     OW51395   2.224   2.565  11.395
13256SOL    HW151396   2.230   2.614  11.313
13256SOL    HW251397   2.209   2.474  11.367
13257SOL     OW51398   4.334   3.245   7.570
13257SOL    HW151399   4.407   3.249   7.633
13257SOL    HW251400   4.333   3.154   7.541
13258SOL     OW51401   3.338   2.744   3.851
13258SOL    HW151402   3.247   2.716   3.858
13258SOL    HW251403   3.386   2.665   3.826
13259SOL     OW51404   3.240   1.047  24.961
13259SOL    HW151405   3.329   1.082  24.955
13259SOL    HW251406   3.245   0.982  25.031
13260SOL     OW51407   4.010   1.080  22.736
13260SOL    HW151408   4.098   1.111  22.715
13260SOL    HW251409   4.024   1.007  22.797
13261SOL     OW51410   2.585   4.536  20.766
13261SOL    HW151411   2.611   4.483  20.691
13261SOL    HW251412   2.651   4.517  20.833
13262SOL     OW51413   1.318   2.782  26.264
13262SOL    HW151414   1.241   2.738  26.299
13262SOL    HW251415   1.293   2.805  26.174
13263SOL     OW51416   1.295   0.396   3.699
13263SOL    HW151417   1.324   0.487   3.690
13263SOL    HW251418   1.200   0.400   3.691
13264SOL     OW51419   0.033   1.620   6.092
13264SOL    HW151420   0.048   1.708   6.056
13264SOL    HW251421   4.723   1.619   6.115
13265SOL     OW51422   0.482   0.963   4.920
13265SOL    HW151423   0.564   0.915   4.911
13265SOL    HW251424   0.431   0.939   4.842
13266SOL     OW51425   1.617   1.139  26.754
13266SOL    HW151426   1.574   1.217  26.720
13266SOL    HW251427   1.601   1.072  26.687
13267SOL     OW51428   0.704   1.531  27.753
13267SOL    HW151429   0.700   1.623  27.728
13267SOL    HW251430   0.756   1.530  27.833
13268SOL     OW51431   4.181   1.285   8.945
13268SOL    HW151432   4.090   1.305   8.967
13268SOL    HW251433   4.190   1.191   8.965
13269SOL     OW51434   2.147   3.270   8.252
13269SOL    HW151435   2.157   3.280   8.157
13269SOL    HW251436   2.218   3.211   8.277
13270SOL     OW51437   0.391   3.928  21.640
13270SOL    HW151438   0.475   3.974  21.649
13270SOL    HW251439   0.388   3.901  21.549
13271SOL     OW51440   1.494   2.179   9.665
13271SOL    HW151441   1.458   2.246   9.723
13271SOL    HW251442   1.504   2.223   9.580
13272SOL     OW51443   0.974   0.535  27.441
13272SOL    HW151444   0.915   0.462  27.461
13272SOL    HW251445   0.942   0.607  27.496
13273SOL     OW51446   1.452   2.566   8.652
13273SOL    HW151447   1.391   2.534   8.587
13273SOL    HW251448   1.489   2.646   8.613
13274SOL     OW51449   1.829   2.212  20.245
13274SOL    HW151450   1.910   2.248  20.208
13274SOL    HW251451   1.780   2.179  20.170
13275SOL     OW51452   0.554   0.434   1.247
13275SOL    HW151453   0.573   0.351   1.292
13275SOL    HW251454   0.578   0.502   1.310
13276SOL     OW51455   4.425   3.816  18.843
13276SOL    HW151456   4.457   3.861  18.765
13276SOL    HW251457   4.375   3.742  18.809
13277SOL     OW51458   2.654   0.488  10.144
13277SOL    HW151459   2.603   0.419  10.187
13277SOL    HW251460   2.596   0.520  10.075
13278SOL     OW51461   2.703   3.578  25.430
13278SOL    HW151462   2.751   3.497  25.446
13278SOL    HW251463   2.636   3.580  25.498
13279SOL     OW51464   2.114   2.507  28.115
13279SOL    HW151465   2.140   2.530  28.205
13279SOL    HW251466   2.028   2.466  28.125
13280SOL     OW51467   2.806   0.673  16.493
13280SOL    HW151468   2.871   0.739  16.516
13280SOL    HW251469   2.842   0.630  16.416
13281SOL     OW51470   2.053   4.412   3.545
13281SOL    HW151471   2.146   4.388   3.543
13281SOL    HW251472   2.022   4.395   3.457
13282SOL     OW51473   1.215   2.968   2.284
13282SOL    HW151474   1.281   2.967   2.354
13282SOL    HW251475   1.196   2.876   2.267
13283SOL     OW51476   0.359   2.617  17.487
13283SOL    HW151477   0.370   2.699  17.439
13283SOL    HW251478   0.448   2.592  17.513
13284SOL     OW51479   2.660   4.034   6.374
13284SOL    HW151480   2.688   4.107   6.429
13284SOL    HW251481   2.726   4.030   6.305
13285SOL     OW51482   2.514   4.404  25.481
13285SOL    HW151483   2.439   4.395  25.423
13285SOL    HW251484   2.480   4.449  25.558
13286SOL     OW51485   4.604   4.431  16.764
13286SOL    HW151486   4.511   4.446  16.749
13286SOL    HW251487   4.645   4.515  16.743
13287SOL     OW51488   4.038   3.682  11.125
13287SOL    HW151489   3.969   3.743  11.098
13287SOL    HW251490   4.020   3.665  11.218
13288SOL     OW51491   1.095   2.358  18.740
13288SOL    HW151492   1.147   2.400  18.671
13288SOL    HW251493   1.078   2.427  18.804
13289SOL     OW51494   0.781   2.442  28.280
13289SOL    HW151495   0.766   2.523  28.329
13289SOL    HW251496   0.782   2.374  28.347
13290SOL     OW51497   0.057   3.574  23.759
13290SOL    HW151498   0.024   3.649  23.711
13290SOL    HW251499   0.122   3.535  23.701
13291SOL     OW51500   3.145   3.620  20.051
13291SOL    HW151501   3.106   3.671  19.979
13291SOL    HW251502   3.235   3.652  20.057
13292SOL     OW51503   4.305   2.866  27.878
13292SOL    HW151504   4.238   2.934  27.884
13292SOL    HW251505   4.262   2.788  27.913
13293SOL     OW51506   0.828   4.426  27.409
13293SOL    HW151507   0.893   4.496  27.403
13293SOL    HW251508   0.788   4.438  27.495
13294SOL     OW51509   3.689   3.880   0.578
13294SOL    HW151510   3.634   3.804   0.595
13294SOL    HW251511   3.635   3.938   0.525
13295SOL     OW51512   1.535   2.762  18.263
13295SOL    HW151513   1.477   2.693  18.296
13295SOL    HW251514   1.622   2.723  18.262
13296SOL     OW51515   1.284   2.757   1.845
13296SOL    HW151516   1.262   2.728   1.933
13296SOL    HW251517   1.345   2.830   1.857
13297SOL     OW51518   4.578   2.657  26.196
13297SOL    HW151519   4.573   2.589  26.263
13297SOL    HW251520   4.562   2.738  26.244
13298SOL     OW51521   2.956   0.229   7.416
13298SOL    HW151522   3.020   0.199   7.351
13298SOL    HW251523   2.944   0.322   7.396
13299SOL     OW51524   2.107   1.354   0.021
13299SOL    HW151525   2.052   1.429  28.529
13299SOL    HW251526   2.194   1.378  28.522
13300SOL     OW51527   4.018   2.510   3.663
13300SOL    HW151528   4.040   2.501   3.756
13300SOL    HW251529   4.095   2.551   3.625
13301SOL     OW51530   2.137   4.632  22.763
13301SOL    HW151531   2.063   4.572  22.766
13301SOL    HW251532   2.125   4.681  22.681
13302SOL     OW51533   2.070   3.456   7.310
13302SOL    HW151534   2.111   3.517   7.373
13302SOL    HW251535   2.123   3.376   7.317
13303SOL     OW51536   0.745   3.912  27.355
13303SOL    HW151537   0.754   4.006  27.343
13303SOL    HW251538   0.724   3.879  27.268
13304SOL     OW51539   0.800   0.818  25.468
13304SOL    HW151540   0.821   0.882  25.535
13304SOL    HW251541   0.705   0.807  25.474
13305SOL     OW51542   3.108   3.525   7.659
13305SOL    HW151543   3.121   3.618   7.643
13305SOL    HW251544   3.089   3.488   7.573
13306SOL     OW51545   0.421   2.453   3.434
13306SOL    HW151546   0.426   2.377   3.493
13306SOL    HW251547   0.500   2.446   3.380
13307SOL     OW51548   4.205   0.490  22.155
13307SOL    HW151549   4.295   0.517  22.142
13307SOL    HW251550   4.194   0.487  22.250
13308SOL     OW51551   4.258   3.616  20.814
13308SOL    HW151552   4.185   3.674  20.835
13308SOL    HW251553   4.304   3.660  20.742
13309SOL     OW51554   0.727   0.610  20.728
13309SOL    HW151555   0.656   0.650  20.778
13309SOL    HW251556   0.743   0.671  20.656
13310SOL     OW51557   3.521   3.920  25.246
13310SOL    HW151558   3.550   3.885  25.331
13310SOL    HW251559   3.469   3.997  25.268
13311SOL     OW51560   2.396   3.746   9.081
13311SOL    HW151561   2.351   3.711   9.158
13311SOL    HW251562   2.367   3.689   9.009
13312SOL     OW51563   1.654   3.415   9.949
13312SOL    HW151564   1.663   3.436   9.856
13312SOL    HW251565   1.707   3.481   9.994
13313SOL     OW51566   0.714   3.541  10.050
13313SOL    HW151567   0.671   3.542  10.136
13313SOL    HW251568   0.808   3.546  10.070
13314SOL     OW51569   0.624   1.733   8.447
13314SOL    HW151570   0.627   1.646   8.487
13314SOL    HW251571   0.622   1.793   8.521
13315SOL     OW51572   4.666   2.312   7.855
13315SOL    HW151573   4.701   2.320   7.943
13315SOL    HW251574   4.615   2.392   7.842
13316SOL     OW51575   3.849   0.651   9.469
13316SOL    HW151576   3.898   0.701   9.404
13316SOL    HW251577   3.910   0.583   9.498
13317SOL     OW51578   4.153   2.492   1.110
13317SOL    HW151579   4.150   2.477   1.204
13317SOL    HW251580   4.237   2.455   1.082
13318SOL     OW51581   4.386   3.533   6.884
13318SOL    HW151582   4.353   3.464   6.943
13318SOL    HW251583   4.351   3.614   6.920
13319SOL     OW51584   0.793   3.632  23.120
13319SOL    HW151585   0.819   3.710  23.168
13319SOL    HW251586   0.704   3.613  23.151
13320SOL     OW51587   0.355   2.181   3.238
13320SOL    HW151588   0.317   2.267   3.224
13320SOL    HW251589   0.445   2.189   3.207
13321SOL     OW51590   1.986   4.344   3.298
13321SOL    HW151591   1.994   4.367   3.205
13321SOL    HW251592   1.954   4.254   3.298
13322SOL     OW51593   0.046   0.228  21.923
13322SOL    HW151594   4.777   0.164  21.973
13322SOL    HW251595   0.087   0.176  21.854
13323SOL     OW51596   0.462   3.856  19.565
13323SOL    HW151597   0.376   3.891  19.540
13323SOL    HW251598   0.444   3.800  19.640
13324SOL     OW51599   4.178   0.485  24.896
13324SOL    HW151600   4.136   0.521  24.974
13324SOL    HW251601   4.266   0.522  24.897
13325SOL     OW51602   2.046   4.120   1.933
13325SOL    HW151603   1.955   4.151   1.936
13325SOL    HW251604   2.069   4.105   2.025
13326SOL     OW51605   2.478   0.604  21.114
13326SOL    HW151606   2.395   0.651  21.106
13326SOL    HW251607   2.526   0.627  21.035
13327SOL     OW51608   2.368   4.116  20.489
13327SOL    HW151609   2.318   4.043  20.452
13327SOL    HW251610   2.437   4.133  20.425
13328SOL     OW51611   4.123   1.886  10.833
13328SOL    HW151612   4.206   1.907  10.788
13328SOL    HW251613   4.142   1.805  10.881
13329SOL     OW51614   3.253   1.610   2.496
13329SOL    HW151615   3.161   1.628   2.478
13329SOL    HW251616   3.252   1.534   2.555
13330SOL     OW51617   4.451   1.604   1.460
13330SOL    HW151618   4.408   1.552   1.392
13330SOL    HW251619   4.437   1.554   1.540
13331SOL     OW51620   2.581   4.705   8.138
13331SOL    HW151621   2.621   0.005   8.166
13331SOL    HW251622   2.651   4.640   8.145
13332SOL     OW51623   4.079   3.654   9.472
13332SOL    HW151624   4.087   3.725   9.536
13332SOL    HW251625   4.155   3.598   9.489
13333SOL     OW51626   4.583   1.200  10.750
13333SOL    HW151627   4.525   1.205  10.826
13333SOL    HW251628   4.566   1.114  10.712
13334SOL     OW51629   0.377   0.307   0.774
13334SOL    HW151630   0.449   0.369   0.762
13334SOL    HW251631   0.378   0.253   0.694
13335SOL     OW51632   0.331   3.369  18.200
13335SOL    HW151633   0.290   3.426  18.265
13335SOL    HW251634   0.425   3.378  18.216
13336SOL     OW51635   2.436   3.760  21.196
13336SOL    HW151636   2.399   3.836  21.240
13336SOL    HW251637   2.361   3.715  21.159
13337SOL     OW51638   3.995   4.779  27.416
13337SOL    HW151639   4.087   0.025  27.419
13337SOL    HW251640   3.965   0.021  27.329
13338SOL     OW51641   0.658   0.887   9.673
13338SOL    HW151642   0.731   0.927   9.627
13338SOL    HW251643   0.680   0.896   9.766
13339SOL     OW51644   4.279   2.771   2.839
13339SOL    HW151645   4.266   2.866   2.837
13339SOL    HW251646   4.265   2.747   2.931
13340SOL     OW51647   2.245   0.828  27.192
13340SOL    HW151648   2.335   0.857  27.210
13340SOL    HW251649   2.191   0.879  27.252
13341SOL     OW51650   3.597   4.551   3.300
13341SOL    HW151651   3.644   4.553   3.217
13341SOL    HW251652   3.610   4.462   3.333
13342SOL     OW51653   1.865   0.457  19.251
13342SOL    HW151654   1.904   0.380  19.291
13342SOL    HW251655   1.798   0.486  19.313
13343SOL     OW51656   3.168   2.990  24.496
13343SOL    HW151657   3.115   3.050  24.444
13343SOL    HW251658   3.117   2.909  24.501
13344SOL     OW51659   1.422   2.264   3.806
13344SOL    HW151660   1.349   2.208   3.780
13344SOL    HW251661   1.447   2.310   3.726
13345SOL     OW51662   4.513   3.978  26.930
13345SOL    HW151663   4.572   4.050  26.951
13345SOL    HW251664   4.446   4.018  26.875
13346SOL     OW51665   0.038   4.497   9.109
13346SOL    HW151666   0.075   4.452   9.184
13346SOL    HW251667   0.098   4.570   9.092
13347SOL     OW51668   1.920   1.880   3.490
13347SOL    HW151669   1.958   1.846   3.571
13347SOL    HW251670   1.993   1.880   3.428
13348SOL     OW51671   4.679   4.002  20.192
13348SOL    HW151672   4.745   4.058  20.151
13348SOL    HW251673   4.642   4.056  20.261
13349SOL     OW51674   3.017   4.673   0.037
13349SOL    HW151675   2.995   4.757   0.076
13349SOL    HW251676   3.024   4.691  28.474
13350SOL     OW51677   1.003   4.439  19.633
13350SOL    HW151678   1.001   4.517  19.687
13350SOL    HW251679   0.956   4.373  19.683
13351SOL     OW51680   2.816   1.399  22.032
13351SOL    HW151681   2.911   1.400  22.029
13351SOL    HW251682   2.792   1.476  22.084
13352SOL     OW51683   1.276   1.352   6.349
13352SOL    HW151684   1.224   1.429   6.324
13352SOL    HW251685   1.218   1.278   6.332
13353SOL     OW51686   2.089   3.036   3.651
13353SOL    HW151687   2.074   2.952   3.694
13353SOL    HW251688   2.037   3.031   3.570
13354SOL     OW51689   3.870   3.057  23.724
13354SOL    HW151690   3.853   2.968  23.692
13354SOL    HW251691   3.790   3.081  23.771
13355SOL     OW51692   4.379   2.289   0.559
13355SOL    HW151693   4.332   2.366   0.590
13355SOL    HW251694   4.399   2.308   0.468
13356SOL     OW51695   2.689   3.317  25.951
13356SOL    HW151696   2.660   3.388  26.008
13356SOL    HW251697   2.781   3.337  25.932
13357SOL     OW51698   1.648   2.389  20.949
13357SOL    HW151699   1.575   2.416  20.893
13357SOL    HW251700   1.726   2.413  20.899
13358SOL     OW51701   3.739   1.770   4.433
13358SOL    HW151702   3.745   1.702   4.366
13358SOL    HW251703   3.741   1.723   4.516
13359SOL     OW51704   1.353   0.754   8.846
13359SOL    HW151705   1.413   0.723   8.778
13359SOL    HW251706   1.278   0.693   8.842
13360SOL     OW51707   4.201   3.703   6.208
13360SOL    HW151708   4.195   3.782   6.261
13360SOL    HW251709   4.178   3.732   6.119
13361SOL     OW51710   1.013   2.054   7.534
13361SOL    HW151711   1.105   2.035   7.514
13361SOL    HW251712   1.003   2.030   7.626
13362SOL     OW51713   4.106   3.170  18.077
13362SOL    HW151714   4.098   3.076  18.090
13362SOL    HW251715   4.029   3.193  18.024
13363SOL     OW51716   2.241   3.344   4.727
13363SOL    HW151717   2.297   3.414   4.694
13363SOL    HW251718   2.251   3.348   4.822
13364SOL     OW51719   4.037   2.377  22.265
13364SOL    HW151720   3.961   2.336  22.306
13364SOL    HW251721   4.078   2.429  22.334
13365SOL     OW51722   4.100   3.361  21.557
13365SOL    HW151723   4.021   3.366  21.502
13365SOL    HW251724   4.072   3.394  21.642
13366SOL     OW51725   2.411   4.354  22.745
13366SOL    HW151726   2.377   4.279  22.793
13366SOL    HW251727   2.469   4.399  22.807
13367SOL     OW51728   2.864   1.592   5.469
13367SOL    HW151729   2.886   1.662   5.530
13367SOL    HW251730   2.930   1.524   5.486
13368SOL     OW51731   1.435   2.174  28.281
13368SOL    HW151732   1.367   2.237  28.258
13368SOL    HW251733   1.413   2.095  28.232
13369SOL     OW51734   1.439   2.981   8.027
13369SOL    HW151735   1.485   2.898   8.015
13369SOL    HW251736   1.487   3.025   8.097
13370SOL     OW51737   4.610   0.262   3.933
13370SOL    HW151738   4.615   0.202   4.008
13370SOL    HW251739   4.642   0.210   3.859
13371SOL     OW51740   1.921   2.429   0.495
13371SOL    HW151741   1.899   2.444   0.587
13371SOL    HW251742   2.004   2.382   0.497
13372SOL     OW51743   0.212   1.793   3.728
13372SOL    HW151744   0.128   1.837   3.743
13372SOL    HW251745   0.192   1.700   3.743
13373SOL     OW51746   0.137   3.551   2.914
13373SOL    HW151747   0.119   3.464   2.951
13373SOL    HW251748   0.067   3.607   2.948
13374SOL     OW51749   1.375   4.400  11.610
13374SOL    HW151750   1.433   4.372  11.539
13374SOL    HW251751   1.428   4.393  11.689
13375SOL     OW51752   0.946   2.903  25.314
13375SOL    HW151753   0.874   2.840  25.307
13375SOL    HW251754   0.903   2.987  25.329
13376SOL     OW51755   1.665   2.841   7.938
13376SOL    HW151756   1.705   2.787   8.006
13376SOL    HW251757   1.700   2.805   7.856
13377SOL     OW51758   3.616   2.241  27.859
13377SOL    HW151759   3.576   2.325  27.878
13377SOL    HW251760   3.688   2.261  27.799
13378SOL     OW51761   3.825   4.555   8.706
13378SOL    HW151762   3.825   4.468   8.744
13378SOL    HW251763   3.766   4.606   8.761
13379SOL     OW51764   2.001   2.677   8.041
13379SOL    HW151765   2.035   2.737   7.975
13379SOL    HW251766   1.932   2.727   8.086
13380SOL     OW51767   4.164   3.427  27.987
13380SOL    HW151768   4.258   3.433  28.000
13380SOL    HW251769   4.138   3.514  27.956
13381SOL     OW51770   2.349   1.487  10.011
13381SOL    HW151771   2.286   1.437   9.959
13381SOL    HW251772   2.311   1.489  10.099
13382SOL     OW51773   0.156   1.497  20.298
13382SOL    HW151774   0.171   1.410  20.261
13382SOL    HW251775   0.223   1.505  20.367
13383SOL     OW51776   1.807   2.537   3.441
13383SOL    HW151777   1.817   2.501   3.529
13383SOL    HW251778   1.890   2.518   3.397
13384SOL     OW51779   2.512   1.491   0.272
13384SOL    HW151780   2.515   1.410   0.324
13384SOL    HW251781   2.598   1.531   0.286
13385SOL     OW51782   0.046   1.585  22.558
13385SOL    HW151783   0.104   1.520  22.519
13385SOL    HW251784   0.071   1.589  22.650
13386SOL     OW51785   0.438   0.546   3.532
13386SOL    HW151786   0.534   0.545   3.541
13386SOL    HW251787   0.412   0.455   3.549
13387SOL     OW51788   0.330   0.594   3.240
13387SOL    HW151789   0.367   0.588   3.328
13387SOL    HW251790   0.236   0.577   3.252
13388SOL     OW51791   0.384   2.363   7.369
13388SOL    HW151792   0.450   2.333   7.432
13388SOL    HW251793   0.394   2.303   7.295
13389SOL     OW51794   4.481   4.208   6.556
13389SOL    HW151795   4.452   4.299   6.541
13389SOL    HW251796   4.492   4.172   6.468
13390SOL     OW51797   3.287   1.096  22.667
13390SOL    HW151798   3.196   1.064  22.669
13390SOL    HW251799   3.323   1.057  22.587
13391SOL     OW51800   2.749   3.916  24.776
13391SOL    HW151801   2.791   3.892  24.694
13391SOL    HW251802   2.763   3.840  24.833
13392SOL     OW51803   2.352   4.370  19.045
13392SOL    HW151804   2.404   4.437  19.089
13392SOL    HW251805   2.350   4.297  19.106
13393SOL     OW51806   0.144   3.976  27.750
13393SOL    HW151807   0.106   4.063  27.760
13393SOL    HW251808   0.069   3.916  27.754
13394SOL     OW51809   0.215   1.977   9.461
13394SOL    HW151810   0.245   2.038   9.529
13394SOL    HW251811   0.275   1.903   9.467
13395SOL     OW51812   3.184   1.628  26.363
13395SOL    HW151813   3.209   1.661  26.450
13395SOL    HW251814   3.209   1.535  26.365
13396SOL     OW51815   3.020   2.040  25.011
13396SOL    HW151816   3.022   2.131  25.040
13396SOL    HW251817   3.097   2.031  24.955
13397SOL     OW51818   4.518   4.665   5.518
13397SOL    HW151819   4.585   4.662   5.450
13397SOL    HW251820   4.491   4.757   5.521
13398SOL     OW51821   0.249   2.431   3.237
13398SOL    HW151822   0.239   2.497   3.168
13398SOL    HW251823   0.305   2.474   3.302
13399SOL     OW51824   2.488   4.736  25.171
13399SOL    HW151825   2.448   4.745  25.084
13399SOL    HW251826   2.414   4.742  25.231
13400SOL     OW51827   1.937   4.435   7.497
13400SOL    HW151828   1.907   4.369   7.435
13400SOL    HW251829   1.869   4.502   7.496
13401SOL     OW51830   2.570   3.112  25.756
13401SOL    HW151831   2.621   3.161  25.821
13401SOL    HW251832   2.485   3.098  25.798
13402SOL     OW51833   3.248   3.545  17.399
13402SOL    HW151834   3.328   3.537  17.346
13402SOL    HW251835   3.180   3.504  17.345
13403SOL     OW51836   3.073   4.398  25.666
13403SOL    HW151837   3.118   4.342  25.603
13403SOL    HW251838   2.983   4.401  25.634
13404SOL     OW51839   1.549   2.910  27.223
13404SOL    HW151840   1.584   2.832  27.267
13404SOL    HW251841   1.536   2.881  27.132
13405SOL     OW51842   4.134   1.560  20.130
13405SOL    HW151843   4.200   1.615  20.087
13405SOL    HW251844   4.076   1.622  20.174
13406SOL     OW51845   3.122   2.993  20.171
13406SOL    HW151846   3.095   3.006  20.262
13406SOL    HW251847   3.043   2.963  20.126
13407SOL     OW51848   3.317   4.647   5.993
13407SOL    HW151849   3.324   4.732   6.036
13407SOL    HW251850   3.355   4.661   5.906
13408SOL     OW51851   0.191   1.890  19.451
13408SOL    HW151852   0.171   1.964  19.393
13408SOL    HW251853   0.179   1.813  19.396
13409SOL     OW51854   1.682   0.315   1.829
13409SOL    HW151855   1.701   0.345   1.918
13409SOL    HW251856   1.630   0.236   1.840
13410SOL     OW51857   4.025   1.364  22.059
13410SOL    HW151858   4.120   1.352  22.064
13410SOL    HW251859   3.995   1.362  22.150
13411SOL     OW51860   4.686   4.751  19.598
13411SOL    HW151861   4.599   4.760  19.560
13411SOL    HW251862   4.710   0.057  19.625
13412SOL     OW51863   4.470   1.747   6.735
13412SOL    HW151864   4.433   1.678   6.790
13412SOL    HW251865   4.527   1.796   6.793
13413SOL     OW51866   3.372   1.381  10.212
13413SOL    HW151867   3.339   1.460  10.169
13413SOL    HW251868   3.352   1.310  10.151
13414SOL     OW51869   2.639   4.424  20.520
13414SOL    HW151870   2.589   4.446  20.441
13414SOL    HW251871   2.728   4.457  20.502
13415SOL     OW51872   3.417   3.875  15.973
13415SOL    HW151873   3.444   3.949  16.027
13415SOL    HW251874   3.453   3.893  15.886
13416SOL     OW51875   1.436   3.807  28.422
13416SOL    HW151876   1.370   3.856  28.374
13416SOL    HW251877   1.390   3.732  28.458
13417SOL     OW51878   2.445   4.747  21.440
13417SOL    HW151879   2.497   4.716  21.366
13417SOL    HW251880   2.416   4.667  21.484
13418SOL     OW51881   2.726   1.688  21.474
13418SOL    HW151882   2.720   1.603  21.429
13418SOL    HW251883   2.638   1.725  21.468
13419SOL     OW51884   3.695   2.579  21.442
13419SOL    HW151885   3.612   2.534  21.458
13419SOL    HW251886   3.675   2.639  21.369
13420SOL     OW51887   2.920   3.227   5.514
13420SOL    HW151888   2.964   3.266   5.438
13420SOL    HW251889   2.870   3.154   5.478
13421SOL     OW51890   4.337   4.197   1.096
13421SOL    HW151891   4.362   4.200   1.004
13421SOL    HW251892   4.354   4.107   1.123
13422SOL     OW51893   2.742   3.117   8.859
13422SOL    HW151894   2.791   3.177   8.803
13422SOL    HW251895   2.801   3.044   8.874
13423SOL     OW51896   0.701   4.005   0.251
13423SOL    HW151897   0.659   4.060   0.316
13423SOL    HW251898   0.706   4.060   0.173
13424SOL     OW51899   1.299   0.304  21.771
13424SOL    HW151900   1.315   0.239  21.703
13424SOL    HW251901   1.260   0.378  21.724
13425SOL     OW51902   3.751   2.916   0.176
13425SOL    HW151903   3.768   2.823   0.188
13425SOL    HW251904   3.837   2.954   0.157
13426SOL     OW51905   0.698   3.649  24.207
13426SOL    HW151906   0.716   3.733  24.249
13426SOL    HW251907   0.768   3.640  24.142
13427SOL     OW51908   3.288   0.082   0.113
13427SOL    HW151909   3.336   0.049   0.038
13427SOL    HW251910   3.196   0.083   0.084
13428SOL     OW51911   3.919   0.447   7.465
13428SOL    HW151912   3.938   0.371   7.411
13428SOL    HW251913   3.861   0.415   7.533
13429SOL     OW51914   0.609   1.859   4.240
13429SOL    HW151915   0.666   1.795   4.282
13429SOL    HW251916   0.554   1.893   4.311
13430SOL     OW51917   3.835   1.119  25.593
13430SOL    HW151918   3.798   1.201  25.559
13430SOL    HW251919   3.761   1.074  25.634
13431SOL     OW51920   3.572   3.502   4.364
13431SOL    HW151921   3.522   3.422   4.350
13431SOL    HW251922   3.554   3.556   4.287
13432SOL     OW51923   1.009   4.016   7.181
13432SOL    HW151924   0.960   3.955   7.126
13432SOL    HW251925   1.101   3.995   7.164
13433SOL     OW51926   2.209   1.274   5.046
13433SOL    HW151927   2.182   1.327   5.121
13433SOL    HW251928   2.185   1.327   4.970
13434SOL     OW51929   1.432   2.964  19.955
13434SOL    HW151930   1.517   2.948  19.998
13434SOL    HW251931   1.453   2.968  19.862
13435SOL     OW51932   0.636   4.330   4.509
13435SOL    HW151933   0.558   4.299   4.555
13435SOL    HW251934   0.603   4.356   4.423
13436SOL     OW51935   1.465   4.772   9.517
13436SOL    HW151936   1.499   4.724   9.441
13436SOL    HW251937   1.412   4.708   9.564
13437SOL     OW51938   3.095   0.425   4.618
13437SOL    HW151939   3.030   0.427   4.689
13437SOL    HW251940   3.088   0.512   4.578
13438SOL     OW51941   0.780   4.395   2.251
13438SOL    HW151942   0.781   4.329   2.181
13438SOL    HW251943   0.756   4.476   2.208
13439SOL     OW51944   3.864   3.801   2.171
13439SOL    HW151945   3.930   3.783   2.238
13439SOL    HW251946   3.837   3.891   2.188
13440SOL     OW51947   3.785   3.179  22.813
13440SOL    HW151948   3.714   3.154  22.872
13440SOL    HW251949   3.863   3.182  22.870
13441SOL     OW51950   0.714   2.889  28.040
13441SOL    HW151951   0.721   2.958  28.106
13441SOL    HW251952   0.678   2.933  27.963
13442SOL     OW51953   0.844   4.701   5.353
13442SOL    HW151954   0.758   4.738   5.336
13442SOL    HW251955   0.883   4.760   5.418
13443SOL     OW51956   1.134   0.256   1.684
13443SOL    HW151957   1.060   0.315   1.692
13443SOL    HW251958   1.112   0.181   1.739
13444SOL     OW51959   3.045   2.210  19.650
13444SOL    HW151960   3.085   2.131  19.617
13444SOL    HW251961   2.951   2.189  19.656
13445SOL     OW51962   0.704   1.305   2.890
13445SOL    HW151963   0.610   1.314   2.910
13445SOL    HW251964   0.729   1.392   2.857
13446SOL     OW51965   3.879   1.858  23.136
13446SOL    HW151966   3.801   1.887  23.090
13446SOL    HW251967   3.886   1.765  23.115
13447SOL     OW51968   3.842   3.514  19.707
13447SOL    HW151969   3.853   3.531  19.800
13447SOL    HW251970   3.751   3.483  19.699
13448SOL     OW51971   3.722   3.002   8.247
13448SOL    HW151972   3.733   2.920   8.296
13448SOL    HW251973   3.629   3.024   8.258
13449SOL     OW51974   3.887   3.118   5.662
13449SOL    HW151975   3.826   3.168   5.716
13449SOL    HW251976   3.831   3.067   5.604
13450SOL     OW51977   3.401   0.548  21.669
13450SOL    HW151978   3.354   0.626  21.640
13450SOL    HW251979   3.482   0.548  21.618
13451SOL     OW51980   2.222   0.763  17.874
13451SOL    HW151981   2.196   0.851  17.847
13451SOL    HW251982   2.180   0.705  17.810
13452SOL     OW51983   4.388   2.253   4.544
13452SOL    HW151984   4.328   2.320   4.514
13452SOL    HW251985   4.337   2.201   4.606
13453SOL     OW51986   0.377   0.683   2.291
13453SOL    HW151987   0.431   0.739   2.347
13453SOL    HW251988   0.368   0.731   2.209
13454SOL     OW51989   2.305   0.807   5.465
13454SOL    HW151990   2.385   0.835   5.510
13454SOL    HW251991   2.242   0.791   5.535
13455SOL     OW51992   1.216   4.627   8.077
13455SOL    HW151993   1.297   4.576   8.081
13455SOL    HW251994   1.244   4.715   8.050
13456SOL     OW51995   1.487   3.088  28.517
13456SOL    HW151996   1.486   3.139  28.437
13456SOL    HW251997   1.575   3.050  28.522
13457SOL     OW51998   2.995   1.162  10.236
13457SOL    HW151999   2.946   1.165  10.319
13457SOL    HW252000   3.006   1.254  10.212
13458SOL     OW52001   1.814   3.155  20.118
13458SOL    HW152002   1.840   3.224  20.057
13458SOL    HW252003   1.836   3.189  20.204
13459SOL     OW52004   0.934   0.861  17.747
13459SOL    HW152005   0.937   0.874  17.652
13459SOL    HW252006   1.021   0.885  17.777
13460SOL     OW52007   0.484   4.088  27.390
13460SOL    HW152008   0.564   4.140  27.384
13460SOL    HW252009   0.468   4.058  27.301
13461SOL     OW52010   3.848   0.881   8.102
13461SOL    HW152011   3.939   0.857   8.120
13461SOL    HW252012   3.848   0.976   8.102
13462SOL     OW52013   0.581   4.085  20.513
13462SOL    HW152014   0.522   4.115  20.582
13462SOL    HW252015   0.537   4.109  20.432
13463SOL     OW52016   2.216   3.288  10.334
13463SOL    HW152017   2.288   3.276  10.273
13463SOL    HW252018   2.235   3.228  10.406
13464SOL     OW52019   0.320   0.132   9.382
13464SOL    HW152020   0.307   0.201   9.446
13464SOL    HW252021   0.233   0.117   9.345
13465SOL     OW52022   1.237   4.010   1.916
13465SOL    HW152023   1.248   3.915   1.917
13465SOL    HW252024   1.156   4.024   1.867
13466SOL     OW52025   1.684   4.452   6.896
13466SOL    HW152026   1.778   4.435   6.886
13466SOL    HW252027   1.643   4.366   6.893
13467SOL     OW52028   4.007   4.737   3.173
13467SOL    HW152029   3.938   4.745   3.106
13467SOL    HW252030   4.087   4.727   3.122
13468SOL     OW52031   0.270   2.546   7.606
13468SOL    HW152032   0.253   2.465   7.559
13468SOL    HW252033   0.322   2.599   7.546
13469SOL     OW52034   0.884   0.159  20.071
13469SOL    HW152035   0.931   0.198  19.997
13469SOL    HW252036   0.929   0.194  20.148
13470SOL     OW52037   1.896   3.105   9.502
13470SOL    HW152038   1.906   3.143   9.589
13470SOL    HW252039   1.901   3.180   9.442
13471SOL     OW52040   0.245   4.253   4.986
13471SOL    HW152041   0.240   4.237   5.081
13471SOL    HW252042   0.335   4.285   4.973
13472SOL     OW52043   3.064   4.184   8.538
13472SOL    HW152044   3.099   4.163   8.625
13472SOL    HW252045   3.130   4.239   8.498
13473SOL     OW52046   3.278   2.512  10.120
13473SOL    HW152047   3.242   2.565  10.049
13473SOL    HW252048   3.207   2.507  10.184
13474SOL     OW52049   0.614   4.674   0.569
13474SOL    HW152050   0.684   4.658   0.633
13474SOL    HW252051   0.641   4.752   0.522
13475SOL     OW52052   0.785   1.240   2.295
13475SOL    HW152053   0.814   1.330   2.283
13475SOL    HW252054   0.761   1.234   2.388
13476SOL     OW52055   0.963   4.079  22.275
13476SOL    HW152056   0.920   4.140  22.335
13476SOL    HW252057   0.999   4.135  22.206
13477SOL     OW52058   2.006   2.312  12.142
13477SOL    HW152059   2.000   2.266  12.226
13477SOL    HW252060   2.050   2.394  12.162
13478SOL     OW52061   1.904   3.261  21.579
13478SOL    HW152062   1.873   3.271  21.669
13478SOL    HW252063   1.996   3.239  21.588
13479SOL     OW52064   1.974   2.234  27.662
13479SOL    HW152065   1.947   2.285  27.585
13479SOL    HW252066   2.053   2.278  27.693
13480SOL     OW52067   1.193   1.305  19.153
13480SOL    HW152068   1.277   1.322  19.112
13480SOL    HW252069   1.212   1.238  19.219
13481SOL     OW52070   1.939   1.018  25.631
13481SOL    HW152071   1.995   1.095  25.629
13481SOL    HW252072   1.901   1.017  25.719
13482SOL     OW52073   3.265   4.706   2.749
13482SOL    HW152074   3.310   4.752   2.820
13482SOL    HW252075   3.257   4.616   2.780
13483SOL     OW52076   0.122   0.903   1.584
13483SOL    HW152077   0.027   0.912   1.590
13483SOL    HW252078   0.156   0.955   1.657
13484SOL     OW52079   3.866   2.441  26.485
13484SOL    HW152080   3.814   2.455  26.405
13484SOL    HW252081   3.819   2.371  26.532
13485SOL     OW52082   4.682   2.289  24.965
13485SOL    HW152083   4.642   2.223  25.022
13485SOL    HW252084   4.728   2.347  25.025
13486SOL     OW52085   1.416   2.653  23.306
13486SOL    HW152086   1.352   2.724  23.315
13486SOL    HW252087   1.493   2.696  23.269
13487SOL     OW52088   1.342   0.053  24.008
13487SOL    HW152089   1.312   0.064  23.918
13487SOL    HW252090   1.283   4.769  24.045
13488SOL     OW52091   1.467   0.527   9.277
13488SOL    HW152092   1.410   0.482   9.339
13488SOL    HW252093   1.550   0.479   9.282
13489SOL     OW52094   2.156   2.739   6.420
13489SOL    HW152095   2.235   2.763   6.371
13489SOL    HW252096   2.167   2.646   6.439
13490SOL     OW52097   3.471   1.472   8.125
13490SOL    HW152098   3.544   1.534   8.123
13490SOL    HW252099   3.494   1.409   8.193
13491SOL     OW52100   0.692   0.409  26.231
13491SOL    HW152101   0.682   0.324  26.188
13491SOL    HW252102   0.650   0.397  26.316
13492SOL     OW52103   3.126   0.561  22.395
13492SOL    HW152104   3.149   0.588  22.307
13492SOL    HW252105   3.179   0.616  22.453
13493SOL     OW52106   0.260   3.728   8.358
13493SOL    HW152107   0.315   3.656   8.325
13493SOL    HW252108   0.171   3.693   8.359
13494SOL     OW52109   1.684   2.623  25.223
13494SOL    HW152110   1.729   2.639  25.140
13494SOL    HW252111   1.626   2.548  25.205
13495SOL     OW52112   0.030   1.258   1.650
13495SOL    HW152113   0.003   1.234   1.739
13495SOL    HW252114   0.004   1.183   1.596
13496SOL     OW52115   0.694   0.537   9.513
13496SOL    HW152116   0.639   0.613   9.495
13496SOL    HW252117   0.691   0.485   9.433
13497SOL     OW52118   0.295   0.707   1.854
13497SOL    HW152119   0.233   0.748   1.794
13497SOL    HW252120   0.362   0.668   1.797
13498SOL     OW52121   4.055   1.055  23.224
13498SOL    HW152122   3.973   1.004  23.219
13498SOL    HW252123   4.042   1.115  23.297
13499SOL     OW52124   3.489   3.137   2.631
13499SOL    HW152125   3.534   3.081   2.693
13499SOL    HW252126   3.396   3.129   2.654
13500SOL     OW52127   1.410   4.417   8.487
13500SOL    HW152128   1.492   4.455   8.521
13500SOL    HW252129   1.423   4.322   8.495
13501SOL     OW52130   3.420   2.179   1.270
13501SOL    HW152131   3.383   2.208   1.187
13501SOL    HW252132   3.382   2.093   1.284
13502SOL     OW52133   3.417   4.572   6.499
13502SOL    HW152134   3.388   4.632   6.430
13502SOL    HW252135   3.512   4.576   6.496
13503SOL     OW52136   4.769   3.182  27.579
13503SOL    HW152137   4.724   3.223  27.505
13503SOL    HW252138   0.018   3.098  27.545
13504SOL     OW52139   2.972   1.752   0.085
13504SOL    HW152140   2.907   1.694   0.125
13504SOL    HW252141   3.051   1.741   0.139
13505SOL     OW52142   2.867   4.536  20.406
13505SOL    HW152143   2.950   4.491  20.423
13505SOL    HW252144   2.870   4.558  20.313
13506SOL     OW52145   0.319   4.657  11.156
13506SOL    HW152146   0.320   4.746  11.190
13506SOL    HW252147   0.291   4.603  11.230
13507SOL     OW52148   1.246   1.643   6.742
13507SOL    HW152149   1.261   1.682   6.655
13507SOL    HW252150   1.320   1.585   6.756
13508SOL     OW52151   1.975   4.017   5.188
13508SOL    HW152152   1.990   4.104   5.150
13508SOL    HW252153   1.970   4.032   5.282
13509SOL     OW52154   4.267   0.822   1.928
13509SOL    HW152155   4.219   0.823   1.845
13509SOL    HW252156   4.278   0.914   1.951
13510SOL     OW52157   4.073   3.737   2.387
13510SOL    HW152158   4.074   3.686   2.468
13510SOL    HW252159   4.130   3.812   2.406
13511SOL     OW52160   3.627   2.630   2.240
13511SOL    HW152161   3.540   2.636   2.279
13511SOL    HW252162   3.685   2.670   2.305
13512SOL     OW52163   4.449   1.159   1.712
13512SOL    HW152164   4.499   1.102   1.654
13512SOL    HW252165   4.417   1.229   1.655
13513SOL     OW52166   2.567   1.524  25.045
13513SOL    HW152167   2.489   1.580  25.044
13513SOL    HW252168   2.640   1.586  25.042
13514SOL     OW52169   1.793   0.381  27.549
13514SOL    HW152170   1.878   0.338  27.551
13514SOL    HW252171   1.741   0.330  27.487
13515SOL     OW52172   3.430   4.629   9.220
13515SOL    HW152173   3.405   4.624   9.312
13515SOL    HW252174   3.525   4.624   9.221
13516SOL     OW52175   1.108   2.375  24.022
13516SOL    HW152176   1.077   2.293  24.060
13516SOL    HW252177   1.186   2.397  24.073
13517SOL     OW52178   0.014   2.278   4.451
13517SOL    HW152179   0.003   2.371   4.429
13517SOL    HW252180   0.091   2.251   4.401
13518SOL     OW52181   4.731   1.592   7.749
13518SOL    HW152182   4.736   1.590   7.844
13518SOL    HW252183   4.744   1.684   7.725
13519SOL     OW52184   4.249   4.355  20.187
13519SOL    HW152185   4.257   4.400  20.270
13519SOL    HW252186   4.267   4.263  20.208
13520SOL     OW52187   0.837   2.578   8.179
13520SOL    HW152188   0.873   2.655   8.223
13520SOL    HW252189   0.831   2.511   8.248
13521SOL     OW52190   0.233   3.348  24.789
13521SOL    HW152191   0.163   3.363  24.725
13521SOL    HW252192   0.251   3.434  24.826
13522SOL     OW52193   2.804   0.919   3.316
13522SOL    HW152194   2.873   0.920   3.381
13522SOL    HW252195   2.743   0.987   3.344
13523SOL     OW52196   1.579   0.771   0.715
13523SOL    HW152197   1.541   0.720   0.787
13523SOL    HW252198   1.639   0.710   0.672
13524SOL     OW52199   3.528   1.362   4.225
13524SOL    HW152200   3.577   1.372   4.306
13524SOL    HW252201   3.441   1.399   4.245
13525SOL     OW52202   4.051   3.563  23.544
13525SOL    HW152203   4.039   3.569  23.449
13525SOL    HW252204   4.024   3.474  23.565
13526SOL     OW52205   0.324   0.015  10.319
13526SOL    HW152206   0.355   4.709  10.300
13526SOL    HW252207   0.395   0.072  10.292
13527SOL     OW52208   4.197   1.302  24.936
13527SOL    HW152209   4.117   1.250  24.929
13527SOL    HW252210   4.247   1.279  24.857
13528SOL     OW52211   1.168   0.807   7.789
13528SOL    HW152212   1.241   0.804   7.728
13528SOL    HW252213   1.159   0.900   7.811
13529SOL     OW52214   3.766   2.963  28.154
13529SOL    HW152215   3.717   2.999  28.080
13529SOL    HW252216   3.858   2.966  28.126
13530SOL     OW52217   1.969   3.001  23.769
13530SOL    HW152218   1.978   2.936  23.839
13530SOL    HW252219   1.905   3.064  23.803
13531SOL     OW52220   2.136   0.198  20.840
13531SOL    HW152221   2.196   0.162  20.775
13531SOL    HW252222   2.081   0.260  20.791
13532SOL     OW52223   4.149   3.357   4.440
13532SOL    HW152224   4.184   3.279   4.483
13532SOL    HW252225   4.054   3.341   4.437
13533SOL     OW52226   1.797   1.452  27.523
13533SOL    HW152227   1.764   1.431  27.610
13533SOL    HW252228   1.719   1.452  27.467
13534SOL     OW52229   2.083   0.420  10.065
13534SOL    HW152230   1.998   0.429  10.021
13534SOL    HW252231   2.079   0.335  10.108
13535SOL     OW52232   3.994   4.066  10.941
13535SOL    HW152233   3.980   4.058  11.035
13535SOL    HW252234   3.914   4.105  10.908
13536SOL     OW52235   3.252   0.105  24.377
13536SOL    HW152236   3.268   0.196  24.401
13536SOL    HW252237   3.339   0.064  24.379
13537SOL     OW52238   2.844   1.401  26.074
13537SOL    HW152239   2.867   1.485  26.035
13537SOL    HW252240   2.833   1.420  26.167
13538SOL     OW52241   3.570   3.312  18.601
13538SOL    HW152242   3.632   3.249  18.564
13538SOL    HW252243   3.518   3.261  18.663
13539SOL     OW52244   1.281   1.994  22.238
13539SOL    HW152245   1.319   2.080  22.223
13539SOL    HW252246   1.354   1.933  22.233
13540SOL     OW52247   3.307   2.646  10.750
13540SOL    HW152248   3.310   2.551  10.758
13540SOL    HW252249   3.356   2.665  10.670
13541SOL     OW52250   3.967   1.643  24.824
13541SOL    HW152251   4.052   1.609  24.795
13541SOL    HW252252   3.983   1.677  24.912
13542SOL     OW52253   2.088   4.360   7.114
13542SOL    HW152254   2.182   4.367   7.100
13542SOL    HW252255   2.064   4.443   7.154
13543SOL     OW52256   2.891   4.773  20.528
13543SOL    HW152257   2.972   0.010  20.482
13543SOL    HW252258   2.861   4.690  20.491
13544SOL     OW52259   0.785   0.957   3.687
13544SOL    HW152260   0.708   0.984   3.737
13544SOL    HW252261   0.849   0.932   3.754
13545SOL     OW52262   1.945   4.244   8.257
13545SOL    HW152263   1.902   4.278   8.179
13545SOL    HW252264   1.984   4.161   8.228
13546SOL     OW52265   3.359   3.429  27.716
13546SOL    HW152266   3.362   3.358  27.779
13546SOL    HW252267   3.427   3.490  27.745
13547SOL     OW52268   3.706   1.765  27.168
13547SOL    HW152269   3.732   1.673  27.166
13547SOL    HW252270   3.763   1.808  27.104
13548SOL     OW52271   3.321   2.443   8.691
13548SOL    HW152272   3.314   2.347   8.698
13548SOL    HW252273   3.328   2.473   8.781
13549SOL     OW52274   4.181   3.973   0.928
13549SOL    HW152275   4.269   4.000   0.902
13549SOL    HW252276   4.194   3.914   1.003
13550SOL     OW52277   4.330   1.094  21.779
13550SOL    HW152278   4.376   1.105  21.697
13550SOL    HW252279   4.252   1.044  21.756
13551SOL     OW52280   4.410   2.111   4.981
13551SOL    HW152281   4.505   2.121   4.985
13551SOL    HW252282   4.394   2.022   5.012
13552SOL     OW52283   1.099   2.433  28.305
13552SOL    HW152284   1.034   2.378  28.261
13552SOL    HW252285   1.085   2.417  28.398
13553SOL     OW52286   2.593   3.391  19.973
13553SOL    HW152287   2.674   3.367  20.018
13553SOL    HW252288   2.618   3.464  19.916
13554SOL     OW52289   4.454   3.007   0.725
13554SOL    HW152290   4.464   2.995   0.820
13554SOL    HW252291   4.365   3.040   0.715
13555SOL     OW52292   4.404   2.643  24.264
13555SOL    HW152293   4.366   2.643  24.351
13555SOL    HW252294   4.426   2.735  24.248
13556SOL     OW52295   3.058   0.181  23.521
13556SOL    HW152296   3.107   0.234  23.584
13556SOL    HW252297   3.126   0.131  23.474
13557SOL     OW52298   4.655   1.356   6.311
13557SOL    HW152299   4.614   1.291   6.254
13557SOL    HW252300   4.581   1.395   6.359
13558SOL     OW52301   2.414   4.740   1.757
13558SOL    HW152302   2.428   4.648   1.739
13558SOL    HW252303   2.367   4.742   1.841
13559SOL     OW52304   1.444   1.997   5.534
13559SOL    HW152305   1.412   2.086   5.544
13559SOL    HW252306   1.492   1.979   5.615
13560SOL     OW52307   3.260   3.077  23.670
13560SOL    HW152308   3.342   3.082  23.621
13560SOL    HW252309   3.288   3.064  23.761
13561SOL     OW52310   3.808   1.758   5.181
13561SOL    HW152311   3.808   1.837   5.235
13561SOL    HW252312   3.728   1.766   5.128
13562SOL     OW52313   4.208   0.469  25.716
13562SOL    HW152314   4.158   0.517  25.650
13562SOL    HW252315   4.286   0.523  25.731
13563SOL     OW52316   3.131   3.530   9.853
13563SOL    HW152317   3.081   3.599   9.896
13563SOL    HW252318   3.114   3.452   9.906
13564SOL     OW52319   0.667   2.390   3.328
13564SOL    HW152320   0.662   2.329   3.254
13564SOL    HW252321   0.719   2.344   3.394
13565SOL     OW52322   0.187   2.506  26.227
13565SOL    HW152323   0.146   2.590  26.203
13565SOL    HW252324   0.271   2.530  26.265
13566SOL     OW52325   0.030   2.509  26.906
13566SOL    HW152326   0.108   2.557  26.934
13566SOL    HW252327   0.054   2.470  26.822
13567SOL     OW52328   0.194   1.623  18.454
13567SOL    HW152329   0.251   1.610  18.529
13567SOL    HW252330   0.236   1.693  18.404
13568SOL     OW52331   2.586   1.507   1.713
13568SOL    HW152332   2.669   1.497   1.666
13568SOL    HW252333   2.537   1.573   1.663
13569SOL     OW52334   1.702   3.739  20.370
13569SOL    HW152335   1.759   3.812  20.391
13569SOL    HW252336   1.722   3.717  20.279
13570SOL     OW52337   0.286   1.660  24.580
13570SOL    HW152338   0.232   1.644  24.656
13570SOL    HW252339   0.319   1.574  24.554
13571SOL     OW52340   1.339   3.934  24.210
13571SOL    HW152341   1.372   4.012  24.254
13571SOL    HW252342   1.249   3.957  24.186
13572SOL     OW52343   2.472   0.694   1.455
13572SOL    HW152344   2.487   0.637   1.380
13572SOL    HW252345   2.541   0.760   1.448
13573SOL     OW52346   4.135   0.449  11.081
13573SOL    HW152347   4.230   0.437  11.080
13573SOL    HW252348   4.119   0.509  11.154
13574SOL     OW52349   2.603   3.961  22.352
13574SOL    HW152350   2.559   3.889  22.396
13574SOL    HW252351   2.685   3.973  22.400
13575SOL     OW52352   2.352   3.163  24.989
13575SOL    HW152353   2.380   3.240  24.939
13575SOL    HW252354   2.257   3.172  24.996
13576SOL     OW52355   1.987   3.584  10.381
13576SOL    HW152356   1.923   3.565  10.450
13576SOL    HW252357   2.048   3.646  10.422
13577SOL     OW52358   2.499   2.582  26.229
13577SOL    HW152359   2.589   2.550  26.220
13577SOL    HW252360   2.485   2.638  26.153
13578SOL     OW52361   0.510   0.105  27.645
13578SOL    HW152362   0.594   0.102  27.691
13578SOL    HW252363   0.507   0.191  27.605
13579SOL     OW52364   4.457   1.173  21.030
13579SOL    HW152365   4.372   1.134  21.048
13579SOL    HW252366   4.520   1.103  21.044
13580SOL     OW52367   1.379   4.015   8.248
13580SOL    HW152368   1.361   4.066   8.168
13580SOL    HW252369   1.293   4.004   8.289
13581SOL     OW52370   1.491   1.821   8.906
13581SOL    HW152371   1.555   1.882   8.944
13581SOL    HW252372   1.514   1.818   8.813
13582SOL     OW52373   1.170   0.629  24.790
13582SOL    HW152374   1.109   0.686  24.743
13582SOL    HW252375   1.249   0.682  24.800
13583SOL     OW52376   4.582   2.206  21.701
13583SOL    HW152377   4.550   2.170  21.618
13583SOL    HW252378   4.506   2.200  21.759
13584SOL     OW52379   0.665   1.280  26.413
13584SOL    HW152380   0.642   1.315  26.326
13584SOL    HW252381   0.761   1.285  26.416
13585SOL     OW52382   1.153   2.814  23.486
13585SOL    HW152383   1.142   2.817  23.390
13585SOL    HW252384   1.064   2.803  23.519
13586SOL     OW52385   3.434   0.255  25.193
13586SOL    HW152386   3.382   0.288  25.267
13586SOL    HW252387   3.521   0.240  25.229
13587SOL     OW52388   2.775   3.029   3.721
13587SOL    HW152389   2.718   3.091   3.766
13587SOL    HW252390   2.759   2.945   3.765
13588SOL     OW52391   0.297   2.101  25.193
13588SOL    HW152392   0.339   2.123  25.110
13588SOL    HW252393   0.249   2.179  25.218
13589SOL     OW52394   4.486   3.871   3.155
13589SOL    HW152395   4.580   3.869   3.171
13589SOL    HW252396   4.448   3.822   3.228
13590SOL     OW52397   4.523   4.014   4.252
13590SOL    HW152398   4.568   4.041   4.171
13590SOL    HW252399   4.590   3.968   4.302
13591SOL     OW52400   1.566   0.220   7.738
13591SOL    HW152401   1.551   0.191   7.648
13591SOL    HW252402   1.657   0.197   7.755
13592SOL     OW52403   1.369   0.219  20.824
13592SOL    HW152404   1.369   0.212  20.919
13592SOL    HW252405   1.455   0.187  20.797
13593SOL     OW52406   0.442   1.649   5.694
13593SOL    HW152407   0.494   1.685   5.623
13593SOL    HW252408   0.358   1.628   5.653
13594SOL     OW52409   4.517   4.217  20.349
13594SOL    HW152410   4.467   4.293  20.376
13594SOL    HW252411   4.463   4.142  20.375
13595SOL     OW52412   3.873   0.934  20.202
13595SOL    HW152413   3.917   1.019  20.193
13595SOL    HW252414   3.785   0.956  20.232
13596SOL     OW52415   1.856   1.226   9.470
13596SOL    HW152416   1.769   1.213   9.433
13596SOL    HW252417   1.851   1.188   9.558
13597SOL     OW52418   3.966   3.020  24.554
13597SOL    HW152419   3.873   3.025  24.530
13597SOL    HW252420   3.976   3.084  24.624
13598SOL     OW52421   1.011   2.639  25.006
13598SOL    HW152422   0.931   2.691  25.010
13598SOL    HW252423   1.063   2.668  25.082
13599SOL     OW52424   4.613   2.155  11.035
13599SOL    HW152425   4.618   2.070  10.990
13599SOL    HW252426   4.672   2.146  11.110
13600SOL     OW52427   3.264   4.367  18.563
13600SOL    HW152428   3.257   4.323  18.648
13600SOL    HW252429   3.328   4.315  18.514
13601SOL     OW52430   0.024   1.844  17.163
13601SOL    HW152431   4.757   1.925  17.164
13601SOL    HW252432   4.757   1.786  17.105
13602SOL     OW52433   2.118   3.831  20.735
13602SOL    HW152434   2.137   3.862  20.824
13602SOL    HW252435   2.137   3.737  20.738
13603SOL     OW52436   2.676   2.608   3.096
13603SOL    HW152437   2.601   2.665   3.077
13603SOL    HW252438   2.700   2.570   3.012
13604SOL     OW52439   2.995   0.362   6.308
13604SOL    HW152440   3.014   0.376   6.401
13604SOL    HW252441   3.067   0.306   6.278
13605SOL     OW52442   3.543   2.316  25.647
13605SOL    HW152443   3.477   2.250  25.666
13605SOL    HW252444   3.621   2.286  25.694
13606SOL     OW52445   4.563   4.603  21.634
13606SOL    HW152446   4.654   4.613  21.661
13606SOL    HW252447   4.540   4.688  21.596
13607SOL     OW52448   4.319   4.503   6.737
13607SOL    HW152449   4.341   4.560   6.664
13607SOL    HW252450   4.357   4.547   6.814
13608SOL     OW52451   1.191   1.077  22.718
13608SOL    HW152452   1.107   1.115  22.745
13608SOL    HW252453   1.256   1.117  22.776
13609SOL     OW52454   1.090   0.064   9.461
13609SOL    HW152455   1.112   0.133   9.523
13609SOL    HW252456   1.083   4.767   9.515
13610SOL     OW52457   1.537   2.865  26.420
13610SOL    HW152458   1.613   2.808  26.428
13610SOL    HW252459   1.473   2.813  26.371
13611SOL     OW52460   1.635   4.512  20.208
13611SOL    HW152461   1.651   4.425  20.171
13611SOL    HW252462   1.683   4.513  20.290
13612SOL     OW52463   2.520   1.864  27.730
13612SOL    HW152464   2.555   1.923  27.662
13612SOL    HW252465   2.555   1.778  27.707
13613SOL     OW52466   4.328   2.893  20.690
13613SOL    HW152467   4.294   2.893  20.601
13613SOL    HW252468   4.371   2.978  20.699
13614SOL     OW52469   3.327   2.605  23.437
13614SOL    HW152470   3.281   2.568  23.512
13614SOL    HW252471   3.278   2.574  23.361
13615SOL     OW52472   0.168   1.018   7.079
13615SOL    HW152473   0.234   1.044   7.143
13615SOL    HW252474   0.190   1.067   7.000
13616SOL     OW52475   4.220   2.201  17.932
13616SOL    HW152476   4.180   2.154  18.005
13616SOL    HW252477   4.314   2.192  17.946
13617SOL     OW52478   2.332   2.784  25.739
13617SOL    HW152479   2.257   2.839  25.716
13617SOL    HW252480   2.332   2.714  25.674
13618SOL     OW52481   2.134   0.631  24.142
13618SOL    HW152482   2.124   0.565  24.074
13618SOL    HW252483   2.140   0.714  24.094
13619SOL     OW52484   1.920   2.897   7.698
13619SOL    HW152485   1.914   2.976   7.752
13619SOL    HW252486   1.833   2.889   7.658
13620SOL     OW52487   4.114   0.229  24.137
13620SOL    HW152488   4.029   0.249  24.098
13620SOL    HW252489   4.097   0.232  24.232
13621SOL     OW52490   1.598   3.641  28.200
13621SOL    HW152491   1.520   3.664  28.249
13621SOL    HW252492   1.574   3.560  28.155
13622SOL     OW52493   4.244   3.639  24.034
13622SOL    HW152494   4.259   3.545  24.045
13622SOL    HW252495   4.249   3.653  23.939
13623SOL     OW52496   4.604   3.615  24.491
13623SOL    HW152497   4.581   3.702  24.459
13623SOL    HW252498   4.675   3.631  24.553
13624SOL     OW52499   4.767   2.552   5.118
13624SOL    HW152500   0.068   2.582   5.080
13624SOL    HW252501   4.726   2.631   5.153
13625SOL     OW52502   2.262   1.248   8.927
13625SOL    HW152503   2.343   1.238   8.977
13625SOL    HW252504   2.271   1.186   8.855
13626SOL     OW52505   0.540   0.871   6.174
13626SOL    HW152506   0.494   0.845   6.254
13626SOL    HW252507   0.475   0.860   6.104
13627SOL     OW52508   4.058   3.329  19.661
13627SOL    HW152509   4.063   3.334  19.566
13627SOL    HW252510   4.017   3.411  19.688
13628SOL     OW52511   3.815   4.428   3.799
13628SOL    HW152512   3.762   4.401   3.874
13628SOL    HW252513   3.826   4.523   3.811
13629SOL     OW52514   3.556   0.614   7.246
13629SOL    HW152515   3.561   0.706   7.272
13629SOL    HW252516   3.496   0.575   7.308
13630SOL     OW52517   4.319   4.657   4.386
13630SOL    HW152518   4.245   4.623   4.436
13630SOL    HW252519   4.321   4.604   4.307
13631SOL     OW52520   0.988   1.414  20.946
13631SOL    HW152521   0.995   1.332  20.898
13631SOL    HW252522   0.956   1.477  20.882
13632SOL     OW52523   1.279   3.366  28.165
13632SOL    HW152524   1.289   3.413  28.082
13632SOL    HW252525   1.185   3.351  28.172
13633SOL     OW52526   3.668   4.165   3.234
13633SOL    HW152527   3.675   4.257   3.208
13633SOL    HW252528   3.583   4.137   3.200
13634SOL     OW52529   3.784   0.744   3.304
13634SOL    HW152530   3.794   0.661   3.351
13634SOL    HW252531   3.746   0.718   3.220
13635SOL     OW52532   2.530   1.932  20.847
13635SOL    HW152533   2.551   1.894  20.762
13635SOL    HW252534   2.535   2.027  20.833
13636SOL     OW52535   4.234   0.496   4.642
13636SOL    HW152536   4.203   0.586   4.641
13636SOL    HW252537   4.154   0.443   4.642
13637SOL     OW52538   2.482   2.360   7.197
13637SOL    HW152539   2.435   2.401   7.269
13637SOL    HW252540   2.491   2.269   7.223
13638SOL     OW52541   1.071   0.346   8.595
13638SOL    HW152542   1.116   0.268   8.627
13638SOL    HW252543   0.983   0.340   8.632
13639SOL     OW52544   2.078   3.516   3.501
13639SOL    HW152545   2.042   3.585   3.445
13639SOL    HW252546   2.045   3.434   3.463
13640SOL     OW52547   0.266   2.327  11.333
13640SOL    HW152548   0.309   2.252  11.376
13640SOL    HW252549   0.178   2.330  11.371
13641SOL     OW52550   4.629   4.580  23.583
13641SOL    HW152551   4.694   4.561  23.651
13641SOL    HW252552   4.610   4.673  23.593
13642SOL     OW52553   2.675   4.738   5.873
13642SOL    HW152554   2.763   4.775   5.865
13642SOL    HW252555   2.673   4.701   5.962
13643SOL     OW52556   4.479   2.483  15.945
13643SOL    HW152557   4.431   2.401  15.932
13643SOL    HW252558   4.449   2.540  15.874
13644SOL     OW52559   2.005   4.041  22.786
13644SOL    HW152560   1.963   4.023  22.701
13644SOL    HW252561   1.996   3.959  22.835
13645SOL     OW52562   1.294   1.743   1.231
13645SOL    HW152563   1.387   1.764   1.224
13645SOL    HW252564   1.273   1.699   1.148
13646SOL     OW52565   4.254   3.350  26.789
13646SOL    HW152566   4.186   3.314  26.732
13646SOL    HW252567   4.303   3.410  26.732
13647SOL     OW52568   1.090   0.371   2.330
13647SOL    HW152569   1.145   0.378   2.408
13647SOL    HW252570   1.005   0.344   2.363
13648SOL     OW52571   1.462   0.007  25.156
13648SOL    HW152572   1.531   4.767  25.093
13648SOL    HW252573   1.382   0.009  25.104
13649SOL     OW52574   1.390   3.315   6.131
13649SOL    HW152575   1.349   3.394   6.096
13649SOL    HW252576   1.465   3.300   6.074
13650SOL     OW52577   2.812   3.685   9.611
13650SOL    HW152578   2.893   3.715   9.652
13650SOL    HW252579   2.804   3.593   9.637
13651SOL     OW52580   0.318   3.162   2.289
13651SOL    HW152581   0.256   3.140   2.358
13651SOL    HW252582   0.291   3.108   2.214
13652SOL     OW52583   4.323   0.327  25.239
13652SOL    HW152584   4.376   0.405  25.253
13652SOL    HW252585   4.336   0.304  25.147
13653SOL     OW52586   0.582   1.538  25.812
13653SOL    HW152587   0.656   1.561  25.868
13653SOL    HW252588   0.612   1.556  25.723
13654SOL     OW52589   1.989   4.738   7.509
13654SOL    HW152590   2.010   4.685   7.586
13654SOL    HW252591   2.009   0.045   7.535
13655SOL     OW52592   2.844   1.537  23.321
13655SOL    HW152593   2.817   1.604  23.259
13655SOL    HW252594   2.883   1.586  23.394
13656SOL     OW52595   0.991   0.373   2.692
13656SOL    HW152596   1.022   0.288   2.662
13656SOL    HW252597   0.931   0.403   2.624
13657SOL     OW52598   0.266   4.097   4.047
13657SOL    HW152599   0.289   4.005   4.034
13657SOL    HW252600   0.209   4.096   4.124
13658SOL     OW52601   3.850   0.455  20.584
13658SOL    HW152602   3.939   0.482  20.607
13658SOL    HW252603   3.850   0.454  20.489
13659SOL     OW52604   4.649   2.028  27.674
13659SOL    HW152605   4.571   1.973  27.671
13659SOL    HW252606   4.722   1.966  27.667
13660SOL     OW52607   4.252   0.027  23.360
13660SOL    HW152608   4.221   4.758  23.285
13660SOL    HW252609   4.333   0.068  23.328
13661SOL     OW52610   3.862   1.749  20.670
13661SOL    HW152611   3.784   1.722  20.621
13661SOL    HW252612   3.869   1.687  20.742
13662SOL     OW52613   2.939   4.085   1.631
13662SOL    HW152614   2.921   4.175   1.607
13662SOL    HW252615   2.899   4.033   1.562
13663SOL     OW52616   2.489   4.015   4.229
13663SOL    HW152617   2.542   4.090   4.258
13663SOL    HW252618   2.433   4.050   4.160
13664SOL     OW52619   3.242   0.032  19.723
13664SOL    HW152620   3.246   4.719  19.734
13664SOL    HW252621   3.300   0.050  19.648
13665SOL     OW52622   1.121   4.753  17.163
13665SOL    HW152623   1.038   4.705  17.155
13665SOL    HW252624   1.153   4.730  17.250
13666SOL     OW52625   4.205   3.442   2.899
13666SOL    HW152626   4.129   3.404   2.854
13666SOL    HW252627   4.186   3.430   2.992
13667SOL     OW52628   3.834   1.015   3.236
13667SOL    HW152629   3.899   1.017   3.166
13667SOL    HW252630   3.821   0.921   3.253
13668SOL     OW52631   2.036   0.218  10.214
13668SOL    HW152632   1.956   0.167  10.226
13668SOL    HW252633   2.064   0.240  10.303
13669SOL     OW52634   0.870   3.959   2.896
13669SOL    HW152635   0.816   4.006   2.960
13669SOL    HW252636   0.897   4.026   2.833
13670SOL     OW52637   3.540   1.369  19.808
13670SOL    HW152638   3.634   1.372  19.791
13670SOL    HW252639   3.531   1.392  19.901
13671SOL     OW52640   0.728   4.658  28.139
13671SOL    HW152641   0.801   4.600  28.161
13671SOL    HW252642   0.686   4.617  28.064
13672SOL     OW52643   4.656   4.152  26.119
13672SOL    HW152644   4.638   4.084  26.054
13672SOL    HW252645   4.582   4.148  26.180
13673SOL     OW52646   4.707   1.920  25.566
13673SOL    HW152647   0.017   1.900  25.579
13673SOL    HW252648   4.667   1.835  25.546
13674SOL     OW52649   0.606   1.053   5.906
13674SOL    HW152650   0.546   1.084   5.974
13674SOL    HW252651   0.681   1.017   5.954
13675SOL     OW52652   1.211   2.409  26.366
13675SOL    HW152653   1.196   2.383  26.275
13675SOL    HW252654   1.237   2.328  26.410
13676SOL     OW52655   0.160   4.558  25.819
13676SOL    HW152656   0.101   4.519  25.883
13676SOL    HW252657   0.206   4.627  25.867
13677SOL     OW52658   4.400   4.223  26.193
13677SOL    HW152659   4.388   4.291  26.259
13677SOL    HW252660   4.387   4.268  26.110
13678SOL     OW52661   4.018   1.648  23.765
13678SOL    HW152662   4.002   1.557  23.741
13678SOL    HW252663   3.989   1.699  23.690
13679SOL     OW52664   3.763   3.623  25.423
13679SOL    HW152665   3.740   3.552  25.483
13679SOL    HW252666   3.683   3.676  25.418
13680SOL     OW52667   0.866   2.759   0.174
13680SOL    HW152668   0.924   2.827   0.209
13680SOL    HW252669   0.855   2.697   0.247
13681SOL     OW52670   1.747   0.620   5.865
13681SOL    HW152671   1.758   0.582   5.777
13681SOL    HW252672   1.824   0.676   5.876
13682SOL     OW52673   2.475   1.362  25.787
13682SOL    HW152674   2.500   1.309  25.863
13682SOL    HW252675   2.490   1.452  25.815
13683SOL     OW52676   4.771   3.651  26.269
13683SOL    HW152677   4.703   3.586  26.253
13683SOL    HW252678   0.038   3.616  26.344
13684SOL     OW52679   0.298   4.093  24.245
13684SOL    HW152680   0.326   4.063  24.332
13684SOL    HW252681   0.207   4.066  24.239
13685SOL     OW52682   1.423   0.207   9.980
13685SOL    HW152683   1.416   0.280  10.041
13685SOL    HW252684   1.484   0.238   9.913
13686SOL     OW52685   2.181   3.901  22.275
13686SOL    HW152686   2.257   3.951  22.244
13686SOL    HW252687   2.174   3.923  22.368
13687SOL     OW52688   1.610   1.799   7.210
13687SOL    HW152689   1.640   1.885   7.241
13687SOL    HW252690   1.543   1.819   7.145
13688SOL     OW52691   1.431   0.293  13.418
13688SOL    HW152692   1.390   0.225  13.472
13688SOL    HW252693   1.521   0.300  13.451
13689SOL     OW52694   3.092   0.403   1.613
13689SOL    HW152695   3.123   0.420   1.701
13689SOL    HW252696   3.018   0.463   1.600
13690SOL     OW52697   0.404   2.544  20.864
13690SOL    HW152698   0.408   2.639  20.859
13690SOL    HW252699   0.312   2.524  20.882
13691SOL     OW52700   1.729   3.969  26.176
13691SOL    HW152701   1.798   4.028  26.146
13691SOL    HW252702   1.710   3.998  26.265
13692SOL     OW52703   1.090   0.355  10.886
13692SOL    HW152704   1.178   0.320  10.870
13692SOL    HW252705   1.035   0.277  10.896
13693SOL     OW52706   0.084   0.384   9.550
13693SOL    HW152707   0.038   0.424   9.623
13693SOL    HW252708   0.045   0.297   9.541
13694SOL     OW52709   3.109   1.777  11.698
13694SOL    HW152710   3.083   1.839  11.630
13694SOL    HW252711   3.055   1.700  11.682
13695SOL     OW52712   2.535   4.711  20.347
13695SOL    HW152713   2.589   4.772  20.397
13695SOL    HW252714   2.491   4.765  20.282
13696SOL     OW52715   1.974   4.653  17.518
13696SOL    HW152716   1.880   4.667  17.517
13696SOL    HW252717   2.009   4.714  17.454
13697SOL     OW52718   1.971   2.155  23.985
13697SOL    HW152719   1.904   2.205  23.938
13697SOL    HW252720   1.926   2.075  24.012
13698SOL     OW52721   1.182   2.113   3.711
13698SOL    HW152722   1.092   2.146   3.719
13698SOL    HW252723   1.207   2.131   3.621
13699SOL     OW52724   2.279   2.302  25.850
13699SOL    HW152725   2.186   2.322  25.853
13699SOL    HW252726   2.286   2.211  25.878
13700SOL     OW52727   3.292   3.396  21.315
13700SOL    HW152728   3.222   3.395  21.380
13700SOL    HW252729   3.292   3.485  21.280
13701SOL     OW52730   3.843   0.450  25.806
13701SOL    HW152731   3.820   0.515  25.739
13701SOL    HW252732   3.872   0.502  25.881
13702SOL     OW52733   4.142   0.911  17.765
13702SOL    HW152734   4.079   0.982  17.762
13702SOL    HW252735   4.180   0.908  17.678
13703SOL     OW52736   1.997   0.612  21.566
13703SOL    HW152737   1.927   0.553  21.537
13703SOL    HW252738   2.078   0.565  21.545
13704SOL     OW52739   4.691   0.021  25.873
13704SOL    HW152740   4.688   4.709  25.885
13704SOL    HW252741   4.643   0.057  25.947
13705SOL     OW52742   1.142   1.677  25.902
13705SOL    HW152743   1.127   1.587  25.871
13705SOL    HW252744   1.186   1.720  25.829
13706SOL     OW52745   0.734   2.449   8.688
13706SOL    HW152746   0.759   2.521   8.631
13706SOL    HW252747   0.654   2.478   8.731
13707SOL     OW52748   1.307   3.695  21.416
13707SOL    HW152749   1.307   3.650  21.332
13707SOL    HW252750   1.316   3.788  21.393
13708SOL     OW52751   3.167   2.737  19.590
13708SOL    HW152752   3.188   2.663  19.648
13708SOL    HW252753   3.169   2.700  19.502
13709SOL     OW52754   1.644   4.105  20.795
13709SOL    HW152755   1.735   4.128  20.811
13709SOL    HW252756   1.639   4.091  20.700
13710SOL     OW52757   3.127   2.718  26.404
13710SOL    HW152758   3.095   2.630  26.421
13710SOL    HW252759   3.175   2.711  26.321
13711SOL     OW52760   3.361   2.717   8.308
13711SOL    HW152761   3.412   2.732   8.229
13711SOL    HW252762   3.294   2.654   8.282
13712SOL     OW52763   4.728   2.617  27.404
13712SOL    HW152764   0.014   2.554  27.427
13712SOL    HW252765   4.711   2.664  27.486
13713SOL     OW52766   3.134   0.981   4.824
13713SOL    HW152767   3.090   0.946   4.901
13713SOL    HW252768   3.072   0.965   4.752
13714SOL     OW52769   0.039   0.780   7.345
13714SOL    HW152770   0.084   0.705   7.307
13714SOL    HW252771   4.762   0.810   7.275
13715SOL     OW52772   2.191   4.468  11.385
13715SOL    HW152773   2.268   4.515  11.418
13715SOL    HW252774   2.124   4.482  11.451
13716SOL     OW52775   1.518   1.787   3.999
13716SOL    HW152776   1.501   1.835   3.918
13716SOL    HW252777   1.462   1.828   4.064
13717SOL     OW52778   4.346   2.723   5.019
13717SOL    HW152779   4.390   2.748   4.938
13717SOL    HW252780   4.253   2.734   5.000
13718SOL     OW52781   1.444   0.356  23.033
13718SOL    HW152782   1.376   0.380  23.096
13718SOL    HW252783   1.507   0.305  23.084
13719SOL     OW52784   0.846   4.497  27.723
13719SOL    HW152785   0.781   4.510  27.792
13719SOL    HW252786   0.929   4.488  27.770
13720SOL     OW52787   4.227   1.177  25.250
13720SOL    HW152788   4.140   1.207  25.223
13720SOL    HW252789   4.232   1.198  25.343
13721SOL     OW52790   2.447   4.544  10.823
13721SOL    HW152791   2.368   4.552  10.877
13721SOL    HW252792   2.459   4.450  10.810
13722SOL     OW52793   4.267   4.534  27.358
13722SOL    HW152794   4.186   4.517  27.406
13722SOL    HW252795   4.315   4.451  27.363
13723SOL     OW52796   4.014   0.455  24.462
13723SOL    HW152797   3.986   0.364  24.450
13723SOL    HW252798   4.102   0.449  24.498
13724SOL     OW52799   2.073   1.778  23.820
13724SOL    HW152800   2.048   1.862  23.782
13724SOL    HW252801   2.027   1.713  23.767
13725SOL     OW52802   2.774   2.706   7.010
13725SOL    HW152803   2.768   2.675   7.101
13725SOL    HW252804   2.862   2.743   7.003
13726SOL     OW52805   4.750   3.017   8.854
13726SOL    HW152806   4.706   2.932   8.858
13726SOL    HW252807   4.761   3.033   8.760
13727SOL     OW52808   3.587   1.061  24.387
13727SOL    HW152809   3.577   1.032  24.297
13727SOL    HW252810   3.644   0.996  24.428
13728SOL     OW52811   1.525   2.488  21.170
13728SOL    HW152812   1.591   2.437  21.123
13728SOL    HW252813   1.503   2.559  21.110
13729SOL     OW52814   3.318   0.725  22.491
13729SOL    HW152815   3.368   0.764  22.563
13729SOL    HW252816   3.366   0.751  22.412
13730SOL     OW52817   4.738   0.048   4.105
13730SOL    HW152818   0.010   0.053   4.026
13730SOL    HW252819   4.754   4.742   4.138
13731SOL     OW52820   3.612   1.581  22.242
13731SOL    HW152821   3.590   1.606  22.331
13731SOL    HW252822   3.680   1.643  22.216
13732SOL     OW52823   1.264   4.047   8.738
13732SOL    HW152824   1.296   3.975   8.793
13732SOL    HW252825   1.173   4.024   8.721
13733SOL     OW52826   4.705   2.801  20.692
13733SOL    HW152827   4.700   2.733  20.759
13733SOL    HW252828   4.665   2.878  20.732
13734SOL     OW52829   1.643   3.251   8.002
13734SOL    HW152830   1.677   3.337   8.026
13734SOL    HW252831   1.605   3.216   8.082
13735SOL     OW52832   0.359   1.887   5.010
13735SOL    HW152833   0.376   1.937   4.930
13735SOL    HW252834   0.327   1.951   5.073
13736SOL     OW52835   1.698   2.081   8.281
13736SOL    HW152836   1.608   2.110   8.268
13736SOL    HW252837   1.752   2.156   8.257
13737SOL     OW52838   4.088   1.583   4.808
13737SOL    HW152839   4.072   1.628   4.892
13737SOL    HW252840   4.063   1.648   4.742
13738SOL     OW52841   1.992   3.560  23.780
13738SOL    HW152842   2.029   3.632  23.729
13738SOL    HW252843   2.062   3.534  23.839
13739SOL     OW52844   1.666   0.616   8.819
13739SOL    HW152845   1.660   0.694   8.875
13739SOL    HW252846   1.739   0.566   8.856
13740SOL     OW52847   3.054   0.881  10.463
13740SOL    HW152848   3.069   0.871  10.370
13740SOL    HW252849   2.964   0.914  10.470
13741SOL     OW52850   2.705   0.075  25.347
13741SOL    HW152851   2.635   0.055  25.285
13741SOL    HW252852   2.716   4.777  25.398
13742SOL     OW52853   1.302   3.805  22.279
13742SOL    HW152854   1.308   3.879  22.219
13742SOL    HW252855   1.306   3.728  22.222
13743SOL     OW52856   1.952   1.725   6.263
13743SOL    HW152857   1.931   1.814   6.235
13743SOL    HW252858   1.977   1.734   6.355
13744SOL     OW52859   2.691   1.974  21.069
13744SOL    HW152860   2.641   1.996  21.148
13744SOL    HW252861   2.626   1.966  21.000
13745SOL     OW52862   3.619   1.713  19.069
13745SOL    HW152863   3.538   1.695  19.021
13745SOL    HW252864   3.594   1.703  19.161
13746SOL     OW52865   3.223   0.520  27.923
13746SOL    HW152866   3.188   0.561  28.002
13746SOL    HW252867   3.199   0.580  27.852
13747SOL     OW52868   0.679   4.596   2.932
13747SOL    HW152869   0.696   4.665   2.867
13747SOL    HW252870   0.766   4.576   2.967
13748SOL     OW52871   1.154   3.664   0.252
13748SOL    HW152872   1.188   3.656   0.162
13748SOL    HW252873   1.213   3.608   0.304
13749SOL     OW52874   1.240   1.688  18.139
13749SOL    HW152875   1.257   1.775  18.103
13749SOL    HW252876   1.145   1.685  18.153
13750SOL     OW52877   4.323   3.474   3.964
13750SOL    HW152878   4.244   3.426   3.989
13750SOL    HW252879   4.290   3.556   3.926
13751SOL     OW52880   4.377   0.047   0.684
13751SOL    HW152881   4.380   0.142   0.674
13751SOL    HW252882   4.437   0.028   0.756
13752SOL     OW52883   2.079   3.915  10.944
13752SOL    HW152884   2.091   3.853  11.016
13752SOL    HW252885   2.074   4.000  10.987
13753SOL     OW52886   0.643   1.523  12.723
13753SOL    HW152887   0.648   1.428  12.723
13753SOL    HW252888   0.582   1.544  12.793
13754SOL     OW52889   3.413   1.895  20.535
13754SOL    HW152890   3.376   1.864  20.452
13754SOL    HW252891   3.343   1.946  20.575
13755SOL     OW52892   0.035   0.804  11.659
13755SOL    HW152893   0.039   0.846  11.744
13755SOL    HW252894   0.096   0.731  11.665
13756SOL     OW52895   3.341   1.657   8.966
13756SOL    HW152896   3.348   1.564   8.987
13756SOL    HW252897   3.335   1.660   8.871
13757SOL     OW52898   3.825   4.141  24.664
13757SOL    HW152899   3.765   4.143  24.738
13757SOL    HW252900   3.780   4.088  24.598
13758SOL     OW52901   2.172   3.081  24.177
13758SOL    HW152902   2.241   3.114  24.120
13758SOL    HW252903   2.104   3.149  24.174
13759SOL     OW52904   4.532   2.571  16.199
13759SOL    HW152905   4.517   2.578  16.105
13759SOL    HW252906   4.484   2.493  16.226
13760SOL     OW52907   0.107   3.645   6.695
13760SOL    HW152908   0.058   3.648   6.613
13760SOL    HW252909   0.041   3.620   6.760
13761SOL     OW52910   0.889   0.409  10.142
13761SOL    HW152911   0.958   0.458  10.187
13761SOL    HW252912   0.857   0.347  10.208
13762SOL     OW52913   3.807   2.845  19.801
13762SOL    HW152914   3.898   2.835  19.827
13762SOL    HW252915   3.809   2.908  19.729
13763SOL     OW52916   2.373   4.000  19.997
13763SOL    HW152917   2.327   4.063  20.053
13763SOL    HW252918   2.307   3.935  19.973
13764SOL     OW52919   2.764   4.563   7.570
13764SOL    HW152920   2.720   4.643   7.599
13764SOL    HW252921   2.831   4.546   7.636
13765SOL     OW52922   3.855   3.957  19.385
13765SOL    HW152923   3.769   3.921  19.365
13765SOL    HW252924   3.894   3.895  19.446
13766SOL     OW52925   3.430   2.428  21.642
13766SOL    HW152926   3.343   2.407  21.675
13766SOL    HW252927   3.432   2.524  21.638
13767SOL     OW52928   1.956   1.756   8.581
13767SOL    HW152929   1.901   1.765   8.504
13767SOL    HW252930   1.938   1.834   8.633
13768SOL     OW52931   0.466   2.416   9.666
13768SOL    HW152932   0.404   2.488   9.676
13768SOL    HW252933   0.552   2.457   9.682
13769SOL     OW52934   2.104   4.474   4.821
13769SOL    HW152935   2.073   4.403   4.764
13769SOL    HW252936   2.157   4.529   4.764
13770SOL     OW52937   4.444   0.970   4.832
13770SOL    HW152938   4.441   0.877   4.808
13770SOL    HW252939   4.405   0.973   4.919
13771SOL     OW52940   4.779   4.694  19.125
13771SOL    HW152941   4.726   4.633  19.176
13771SOL    HW252942   4.721   4.769  19.110
13772SOL     OW52943   3.586   0.433  25.406
13772SOL    HW152944   3.668   0.454  25.361
13772SOL    HW252945   3.608   0.357  25.461
13773SOL     OW52946   2.076   4.564   7.689
13773SOL    HW152947   2.023   4.537   7.763
13773SOL    HW252948   2.056   4.499   7.621
13774SOL     OW52949   4.184   4.753  25.531
13774SOL    HW152950   4.221   4.694  25.597
13774SOL    HW252951   4.174   0.054  25.577
13775SOL     OW52952   2.295   1.638   4.049
13775SOL    HW152953   2.209   1.611   4.083
13775SOL    HW252954   2.331   1.694   4.118
13776SOL     OW52955   1.037   3.023  21.639
13776SOL    HW152956   0.948   3.042  21.671
13776SOL    HW252957   1.026   3.006  21.546
13777SOL     OW52958   1.351   4.513  26.407
13777SOL    HW152959   1.313   4.566  26.477
13777SOL    HW252960   1.282   4.510  26.340
13778SOL     OW52961   1.703   3.539   5.595
13778SOL    HW152962   1.764   3.529   5.668
13778SOL    HW252963   1.759   3.543   5.518
13779SOL     OW52964   1.674   1.909  26.473
13779SOL    HW152965   1.764   1.937  26.461
13779SOL    HW252966   1.647   1.876  26.387
13780SOL     OW52967   2.397   1.589   1.035
13780SOL    HW152968   2.317   1.594   0.982
13780SOL    HW252969   2.404   1.496   1.059
13781SOL     OW52970   4.476   4.046   5.096
13781SOL    HW152971   4.571   4.043   5.099
13781SOL    HW252972   4.452   4.111   5.162
13782SOL     OW52973   0.315   3.039  27.881
13782SOL    HW152974   0.407   3.064  27.889
13782SOL    HW252975   0.292   3.059  27.790
13783SOL     OW52976   3.247   4.533  19.131
13783SOL    HW152977   3.259   4.552  19.038
13783SOL    HW252978   3.330   4.494  19.158
13784SOL     OW52979   4.372   3.402  10.191
13784SOL    HW152980   4.354   3.487  10.230
13784SOL    HW252981   4.466   3.389  10.204
13785SOL     OW52982   0.801   3.241   2.487
13785SOL    HW152983   0.840   3.184   2.420
13785SOL    HW252984   0.709   3.247   2.461
13786SOL     OW52985   3.028   1.993  18.639
13786SOL    HW152986   2.953   2.051  18.644
13786SOL    HW252987   2.992   1.908  18.615
13787SOL     OW52988   2.584   3.180   9.076
13787SOL    HW152989   2.640   3.153   9.149
13787SOL    HW252990   2.638   3.165   8.998
13788SOL     OW52991   0.364   1.623  20.077
13788SOL    HW152992   0.278   1.628  20.120
13788SOL    HW252993   0.425   1.662  20.139
13789SOL     OW52994   2.614   4.177  17.627
13789SOL    HW152995   2.682   4.113  17.608
13789SOL    HW252996   2.606   4.229  17.547
13790SOL     OW52997   3.811   1.249   1.705
13790SOL    HW152998   3.787   1.333   1.742
13790SOL    HW252999   3.866   1.270   1.629
13791SOL     OW53000   2.380   1.215   0.785
13791SOL    HW153001   2.308   1.263   0.744
13791SOL    HW253002   2.362   1.219   0.879
13792SOL     OW53003   3.882   1.582   9.320
13792SOL    HW153004   3.839   1.498   9.301
13792SOL    HW253005   3.811   1.639   9.348
13793SOL     OW53006   2.816   3.941   1.449
13793SOL    HW153007   2.838   3.865   1.396
13793SOL    HW253008   2.720   3.943   1.448
13794SOL     OW53009   2.007   4.762  24.165
13794SOL    HW153010   2.043   0.024  24.241
13794SOL    HW253011   1.959   4.688  24.201
13795SOL     OW53012   2.541   0.043   0.491
13795SOL    HW153013   2.472   4.781   0.541
13795SOL    HW253014   2.611   0.059   0.556
13796SOL     OW53015   0.388   4.190   2.313
13796SOL    HW153016   0.370   4.108   2.268
13796SOL    HW253017   0.348   4.180   2.399
13797SOL     OW53018   2.247   1.565  22.602
13797SOL    HW153019   2.234   1.528  22.689
13797SOL    HW253020   2.258   1.659  22.617
13798SOL     OW53021   3.179   3.839   0.562
13798SOL    HW153022   3.092   3.876   0.575
13798SOL    HW253023   3.164   3.763   0.505
13799SOL     OW53024   1.554   0.497   6.485
13799SOL    HW153025   1.481   0.556   6.467
13799SOL    HW253026   1.538   0.467   6.575
13800SOL     OW53027   1.366   4.447  21.897
13800SOL    HW153028   1.457   4.475  21.887
13800SOL    HW253029   1.364   4.399  21.979
13801SOL     OW53030   1.575   4.102   5.805
13801SOL    HW153031   1.579   4.007   5.819
13801SOL    HW253032   1.651   4.137   5.852
13802SOL     OW53033   4.654   2.518  22.053
13802SOL    HW153034   4.603   2.485  22.126
13802SOL    HW253035   4.670   2.440  21.998
13803SOL     OW53036   2.980   1.371  27.077
13803SOL    HW153037   2.960   1.283  27.111
13803SOL    HW253038   2.994   1.424  27.156
13804SOL     OW53039   4.171   4.473  10.457
13804SOL    HW153040   4.111   4.402  10.432
13804SOL    HW253041   4.231   4.433  10.520
13805SOL     OW53042   0.737   2.044   3.810
13805SOL    HW153043   0.824   2.021   3.780
13805SOL    HW253044   0.742   2.039   3.906
13806SOL     OW53045   3.397   1.833   7.273
13806SOL    HW153046   3.477   1.864   7.230
13806SOL    HW253047   3.329   1.891   7.241
13807SOL     OW53048   0.090   3.805   7.959
13807SOL    HW153049   0.037   3.754   7.898
13807SOL    HW253050   0.179   3.795   7.926
13808SOL     OW53051   4.322   3.862   7.183
13808SOL    HW153052   4.377   3.829   7.111
13808SOL    HW253053   4.360   3.947   7.204
13809SOL     OW53054   4.645   2.334  23.950
13809SOL    HW153055   4.667   2.331  23.856
13809SOL    HW253056   4.650   2.427  23.972
13810SOL     OW53057   2.556   3.893  24.428
13810SOL    HW153058   2.472   3.880  24.384
13810SOL    HW253059   2.548   3.980  24.467
13811SOL     OW53060   3.799   3.412  24.713
13811SOL    HW153061   3.790   3.492  24.765
13811SOL    HW253062   3.834   3.443  24.629
13812SOL     OW53063   1.385   3.438  26.921
13812SOL    HW153064   1.442   3.484  26.860
13812SOL    HW253065   1.388   3.492  27.000
13813SOL     OW53066   3.787   0.239  20.208
13813SOL    HW153067   3.826   0.292  20.278
13813SOL    HW253068   3.695   0.263  20.208
13814SOL     OW53069   3.402   3.966  25.902
13814SOL    HW153070   3.467   3.943  25.836
13814SOL    HW253071   3.408   4.061  25.910
13815SOL     OW53072   3.046   1.945  25.875
13815SOL    HW153073   3.051   1.979  25.964
13815SOL    HW253074   2.973   1.883  25.877
13816SOL     OW53075   1.271   1.278  16.311
13816SOL    HW153076   1.256   1.264  16.217
13816SOL    HW253077   1.269   1.190  16.348
13817SOL     OW53078   4.399   3.995  27.366
13817SOL    HW153079   4.384   4.071  27.422
13817SOL    HW253080   4.494   3.983  27.366
13818SOL     OW53081   0.047   0.774   3.694
13818SOL    HW153082   0.139   0.771   3.719
13818SOL    HW253083   0.022   0.866   3.701
13819SOL     OW53084   1.006   1.625   1.400
13819SOL    HW153085   0.998   1.534   1.428
13819SOL    HW253086   1.023   1.620   1.306
13820SOL     OW53087   4.742   2.378  28.035
13820SOL    HW153088   0.000   2.464  28.039
13820SOL    HW253089   4.747   2.353  27.943
13821SOL     OW53090   1.180   2.583  19.770
13821SOL    HW153091   1.147   2.671  19.790
13821SOL    HW253092   1.275   2.593  19.767
13822SOL     OW53093   4.314   1.519   9.639
13822SOL    HW153094   4.323   1.608   9.604
13822SOL    HW253095   4.229   1.489   9.608
13823SOL     OW53096   0.142   1.308   6.285
13823SOL    HW153097   0.156   1.221   6.323
13823SOL    HW253098   0.056   1.335   6.317
13824SOL     OW53099   1.227   2.335  25.388
13824SOL    HW153100   1.269   2.375  25.465
13824SOL    HW253101   1.191   2.409  25.339
13825SOL     OW53102   3.614   1.858  23.033
13825SOL    HW153103   3.589   1.855  23.125
13825SOL    HW253104   3.621   1.766  23.007
13826SOL     OW53105   2.062   0.088  26.971
13826SOL    HW153106   2.044   0.135  26.890
13826SOL    HW253107   1.987   0.030  26.983
13827SOL     OW53108   0.429   2.167  24.009
13827SOL    HW153109   0.376   2.092  23.981
13827SOL    HW253110   0.518   2.144  23.983
13828SOL     OW53111   3.766   1.889  25.795
13828SOL    HW153112   3.682   1.846  25.813
13828SOL    HW253113   3.826   1.816  25.777
13829SOL     OW53114   4.753   1.776  26.062
13829SOL    HW153115   0.049   1.768  26.116
13829SOL    HW253116   4.710   1.690  26.070
13830SOL     OW53117   0.343   3.337  23.407
13830SOL    HW153118   0.430   3.321  23.444
13830SOL    HW253119   0.360   3.367  23.318
13831SOL     OW53120   4.274   0.385   9.800
13831SOL    HW153121   4.251   0.301   9.759
13831SOL    HW253122   4.360   0.369   9.840
13832SOL     OW53123   1.187   0.535  12.403
13832SOL    HW153124   1.151   0.448  12.422
13832SOL    HW253125   1.265   0.518  12.350
13833SOL     OW53126   1.019   0.915  21.373
13833SOL    HW153127   0.967   0.978  21.324
13833SOL    HW253128   1.103   0.959  21.387
13834SOL     OW53129   3.840   0.462   4.043
13834SOL    HW153130   3.765   0.413   4.010
13834SOL    HW253131   3.802   0.526   4.103
13835SOL     OW53132   4.486   2.305   1.290
13835SOL    HW153133   4.436   2.363   1.347
13835SOL    HW253134   4.423   2.275   1.225
13836SOL     OW53135   0.722   4.705  27.285
13836SOL    HW153136   0.705   4.633  27.223
13836SOL    HW253137   0.745   4.661  27.366
13837SOL     OW53138   3.577   2.053  26.695
13837SOL    HW153139   3.593   2.141  26.661
13837SOL    HW253140   3.539   2.067  26.782
13838SOL     OW53141   1.102   1.930   9.913
13838SOL    HW153142   1.022   1.982   9.911
13838SOL    HW253143   1.121   1.912   9.820
13839SOL     OW53144   2.111   2.789  24.459
13839SOL    HW153145   2.147   2.850  24.524
13839SOL    HW253146   2.019   2.814  24.452
13840SOL     OW53147   3.673   4.532  27.680
13840SOL    HW153148   3.631   4.522  27.594
13840SOL    HW253149   3.628   4.607  27.720
13841SOL     OW53150   1.382   3.105  10.234
13841SOL    HW153151   1.442   3.172  10.201
13841SOL    HW253152   1.368   3.129  10.325
13842SOL     OW53153   2.938   1.319   6.257
13842SOL    HW153154   2.899   1.315   6.344
13842SOL    HW253155   3.012   1.257   6.260
13843SOL     OW53156   4.388   3.670  24.278
13843SOL    HW153157   4.346   3.610  24.339
13843SOL    HW253158   4.321   3.688  24.212
13844SOL     OW53159   4.548   2.195   4.318
13844SOL    HW153160   4.631   2.242   4.323
13844SOL    HW253161   4.508   2.209   4.404
13845SOL     OW53162   4.235   3.181   1.458
13845SOL    HW153163   4.172   3.250   1.435
13845SOL    HW253164   4.184   3.118   1.509
13846SOL     OW53165   4.781   1.683  23.408
13846SOL    HW153166   0.080   1.708  23.452
13846SOL    HW253167   4.744   1.766  23.379
13847SOL     OW53168   2.706   2.503   7.255
13847SOL    HW153169   2.662   2.571   7.306
13847SOL    HW253170   2.636   2.460   7.206
13848SOL     OW53171   0.401   2.627  26.338
13848SOL    HW153172   0.388   2.697  26.402
13848SOL    HW253173   0.496   2.628  26.321
13849SOL     OW53174   0.493   3.294   7.304
13849SOL    HW153175   0.453   3.256   7.226
13849SOL    HW253176   0.586   3.272   7.296
13850SOL     OW53177   3.543   3.668  20.614
13850SOL    HW153178   3.510   3.582  20.587
13850SOL    HW253179   3.529   3.724  20.537
13851SOL     OW53180   1.528   0.707   0.412
13851SOL    HW153181   1.623   0.707   0.396
13851SOL    HW253182   1.493   0.647   0.345
13852SOL     OW53183   0.537   1.576   2.496
13852SOL    HW153184   0.549   1.559   2.403
13852SOL    HW253185   0.473   1.510   2.525
13853SOL     OW53186   1.702   4.454  19.704
13853SOL    HW153187   1.634   4.387  19.697
13853SOL    HW253188   1.702   4.498  19.619
13854SOL     OW53189   1.423   2.547  20.365
13854SOL    HW153190   1.492   2.514  20.307
13854SOL    HW253191   1.350   2.569  20.307
13855SOL     OW53192   0.929   1.801   8.340
13855SOL    HW153193   0.941   1.706   8.339
13855SOL    HW253194   0.916   1.824   8.249
13856SOL     OW53195   1.759   0.098   7.127
13856SOL    HW153196   1.736   0.032   7.062
13856SOL    HW253197   1.779   0.048   7.206
13857SOL     OW53198   1.175   2.860   2.974
13857SOL    HW153199   1.185   2.871   3.068
13857SOL    HW253200   1.100   2.915   2.951
13858SOL     OW53201   3.160   4.714  26.096
13858SOL    HW153202   3.172   4.653  26.023
13858SOL    HW253203   3.249   4.744  26.116
13859SOL     OW53204   4.693   0.993   3.716
13859SOL    HW153205   4.622   0.993   3.781
13859SOL    HW253206   4.648   0.993   3.632
13860SOL     OW53207   1.443   3.369   3.339
13860SOL    HW153208   1.378   3.391   3.406
13860SOL    HW253209   1.415   3.283   3.306
13861SOL     OW53210   4.148   2.526   2.011
13861SOL    HW153211   4.176   2.439   1.981
13861SOL    HW253212   4.077   2.509   2.073
13862SOL     OW53213   1.907   3.811   7.838
13862SOL    HW153214   1.883   3.852   7.922
13862SOL    HW253215   1.852   3.733   7.833
13863SOL     OW53216   3.042   2.435  19.471
13863SOL    HW153217   3.043   2.357  19.526
13863SOL    HW253218   2.985   2.412  19.398
13864SOL     OW53219   0.160   3.376  26.150
13864SOL    HW153220   0.090   3.326  26.107
13864SOL    HW253221   0.222   3.396  26.080
13865SOL     OW53222   2.514   3.983   3.255
13865SOL    HW153223   2.522   4.072   3.221
13865SOL    HW253224   2.471   3.994   3.340
13866SOL     OW53225   2.909   0.991  26.954
13866SOL    HW153226   2.910   1.012  27.047
13866SOL    HW253227   2.967   1.056  26.914
13867SOL     OW53228   2.737   0.312   5.820
13867SOL    HW153229   2.740   0.376   5.892
13867SOL    HW253230   2.750   0.227   5.864
13868SOL     OW53231   1.399   2.663  24.888
13868SOL    HW153232   1.311   2.637  24.864
13868SOL    HW253233   1.448   2.581  24.890
13869SOL     OW53234   0.462   1.734  15.230
13869SOL    HW153235   0.418   1.777  15.157
13869SOL    HW253236   0.536   1.791  15.250
13870SOL     OW53237   1.178   3.511   6.096
13870SOL    HW153238   1.140   3.537   6.012
13870SOL    HW253239   1.185   3.593   6.145
13871SOL     OW53240   0.866   4.340  20.774
13871SOL    HW153241   0.955   4.373  20.789
13871SOL    HW253242   0.840   4.302  20.858
13872SOL     OW53243   2.569   1.252   4.517
13872SOL    HW153244   2.478   1.247   4.487
13872SOL    HW253245   2.614   1.300   4.448
13873SOL     OW53246   4.409   1.394  23.766
13873SOL    HW153247   4.367   1.326  23.714
13873SOL    HW253248   4.433   1.462  23.703
13874SOL     OW53249   0.370   0.878  18.109
13874SOL    HW153250   0.328   0.956  18.073
13874SOL    HW253251   0.381   0.820  18.034
13875SOL     OW53252   0.740   2.868   5.146
13875SOL    HW153253   0.684   2.940   5.117
13875SOL    HW253254   0.820   2.910   5.175
13876SOL     OW53255   1.408   3.287  23.571
13876SOL    HW153256   1.330   3.238  23.545
13876SOL    HW253257   1.376   3.355  23.629
13877SOL     OW53258   1.390   1.299   9.578
13877SOL    HW153259   1.305   1.295   9.622
13877SOL    HW253260   1.428   1.212   9.592
13878SOL     OW53261   3.026   1.625  25.952
13878SOL    HW153262   3.075   1.701  25.983
13878SOL    HW253263   2.956   1.662  25.897
13879SOL     OW53264   4.067   2.700  23.825
13879SOL    HW153265   4.034   2.612  23.807
13879SOL    HW253266   4.095   2.696  23.917
13880SOL     OW53267   4.258   0.224   5.632
13880SOL    HW153268   4.206   0.289   5.679
13880SOL    HW253269   4.208   0.143   5.639
13881SOL     OW53270   0.777   1.690   1.102
13881SOL    HW153271   0.748   1.610   1.146
13881SOL    HW253272   0.872   1.680   1.095
13882SOL     OW53273   0.348   2.344  18.469
13882SOL    HW153274   0.367   2.400  18.544
13882SOL    HW253275   0.325   2.405  18.398
13883SOL     OW53276   1.173   2.973   3.415
13883SOL    HW153277   1.246   2.915   3.394
13883SOL    HW253278   1.095   2.923   3.393
13884SOL     OW53279   0.030   4.447   2.908
13884SOL    HW153280   4.730   4.402   2.889
13884SOL    HW253281   0.054   4.416   2.996
13885SOL     OW53282   0.346   2.304  26.541
13885SOL    HW153283   0.341   2.249  26.463
13885SOL    HW253284   0.416   2.366  26.522
13886SOL     OW53285   0.195   3.246   5.378
13886SOL    HW153286   0.148   3.181   5.326
13886SOL    HW253287   0.161   3.234   5.467
13887SOL     OW53288   0.477   3.649  26.103
13887SOL    HW153289   0.432   3.599  26.034
13887SOL    HW253290   0.510   3.582  26.163
13888SOL     OW53291   0.682   2.100  21.273
13888SOL    HW153292   0.777   2.114  21.263
13888SOL    HW253293   0.647   2.109  21.185
13889SOL     OW53294   0.212   0.325  19.378
13889SOL    HW153295   0.188   0.418  19.379
13889SOL    HW253296   0.284   0.318  19.440
13890SOL     OW53297   1.808   3.546   0.336
13890SOL    HW153298   1.879   3.492   0.369
13890SOL    HW253299   1.729   3.512   0.379
13891SOL     OW53300   1.524   4.065  27.261
13891SOL    HW153301   1.476   4.137  27.223
13891SOL    HW253302   1.458   4.013  27.307
13892SOL     OW53303   0.532   0.384  16.840
13892SOL    HW153304   0.439   0.405  16.835
13892SOL    HW253305   0.570   0.456  16.890
13893SOL     OW53306   3.156   2.607   6.839
13893SOL    HW153307   3.147   2.547   6.913
13893SOL    HW253308   3.234   2.659   6.860
13894SOL     OW53309   0.708   0.420  21.607
13894SOL    HW153310   0.670   0.507  21.615
13894SOL    HW253311   0.644   0.371  21.556
13895SOL     OW53312   0.569   4.585   9.262
13895SOL    HW153313   0.480   4.589   9.298
13895SOL    HW253314   0.615   4.523   9.317
13896SOL     OW53315   1.158   0.671   2.451
13896SOL    HW153316   1.219   0.598   2.461
13896SOL    HW253317   1.074   0.636   2.481
13897SOL     OW53318   3.642   2.935  22.074
13897SOL    HW153319   3.589   2.979  22.140
13897SOL    HW253320   3.732   2.962  22.092
13898SOL     OW53321   4.218   0.937   1.671
13898SOL    HW153322   4.240   0.978   1.587
13898SOL    HW253323   4.265   0.989   1.736
13899SOL     OW53324   2.676   0.860  20.448
13899SOL    HW153325   2.771   0.852  20.451
13899SOL    HW253326   2.658   0.908  20.367
13900SOL     OW53327   2.350   3.297   0.515
13900SOL    HW153328   2.348   3.363   0.584
13900SOL    HW253329   2.422   3.325   0.458
13901SOL     OW53330   2.833   0.695  23.870
13901SOL    HW153331   2.794   0.781  23.884
13901SOL    HW253332   2.765   0.645  23.823
13902SOL     OW53333   0.578   3.607  28.376
13902SOL    HW153334   0.656   3.661  28.390
13902SOL    HW253335   0.511   3.670  28.349
13903SOL     OW53336   0.893   1.243  21.992
13903SOL    HW153337   0.976   1.196  21.991
13903SOL    HW253338   0.911   1.325  21.946
13904SOL     OW53339   0.513   3.032   5.149
13904SOL    HW153340   0.573   3.096   5.187
13904SOL    HW253341   0.461   3.001   5.223
13905SOL     OW53342   1.684   3.207   9.180
13905SOL    HW153343   1.657   3.179   9.267
13905SOL    HW253344   1.771   3.244   9.193
13906SOL     OW53345   3.378   3.813   4.322
13906SOL    HW153346   3.337   3.738   4.279
13906SOL    HW253347   3.328   3.888   4.291
13907SOL     OW53348   0.006   1.908  17.918
13907SOL    HW153349   0.029   1.963  17.843
13907SOL    HW253350   0.031   1.959  17.995
13908SOL     OW53351   4.744   1.836   6.411
13908SOL    HW153352   0.055   1.856   6.405
13908SOL    HW253353   4.704   1.883   6.338
13909SOL     OW53354   1.851   1.112  21.628
13909SOL    HW153355   1.881   1.025  21.602
13909SOL    HW253356   1.918   1.172  21.593
13910SOL     OW53357   1.323   0.731   1.218
13910SOL    HW153358   1.335   0.813   1.265
13910SOL    HW253359   1.325   0.663   1.285
13911SOL     OW53360   3.558   3.972   4.480
13911SOL    HW153361   3.487   3.951   4.420
13911SOL    HW253362   3.542   4.062   4.506
13912SOL     OW53363   3.583   2.960   5.169
13912SOL    HW153364   3.496   2.988   5.139
13912SOL    HW253365   3.572   2.868   5.193
13913SOL     OW53366   2.510   3.203  28.259
13913SOL    HW153367   2.424   3.245  28.268
13913SOL    HW253368   2.496   3.113  28.286
13914SOL     OW53369   0.984   2.967  28.327
13914SOL    HW153370   1.029   2.907  28.266
13914SOL    HW253371   1.054   2.999  28.384
13915SOL     OW53372   2.938   0.321  20.919
13915SOL    HW153373   2.920   0.372  20.840
13915SOL    HW253374   2.855   0.277  20.938
13916SOL     OW53375   3.301   1.658   8.687
13916SOL    HW153376   3.304   1.575   8.639
13916SOL    HW253377   3.357   1.717   8.636
13917SOL     OW53378   4.083   2.093  24.120
13917SOL    HW153379   4.010   2.053  24.168
13917SOL    HW253380   4.145   2.118  24.188
13918SOL     OW53381   2.225   3.817   6.800
13918SOL    HW153382   2.143   3.804   6.753
13918SOL    HW253383   2.215   3.768   6.881
13919SOL     OW53384   0.087   0.578   1.634
13919SOL    HW153385   4.778   0.566   1.658
13919SOL    HW253386   0.123   0.489   1.633
13920SOL     OW53387   0.418   1.375   7.246
13920SOL    HW153388   0.392   1.439   7.180
13920SOL    HW253389   0.342   1.368   7.304
13921SOL     OW53390   2.682   4.139  24.958
13921SOL    HW153391   2.748   4.205  24.938
13921SOL    HW253392   2.710   4.061  24.910
13922SOL     OW53393   4.165   2.117  26.032
13922SOL    HW153394   4.207   2.108  26.117
13922SOL    HW253395   4.220   2.065  25.973
13923SOL     OW53396   4.233   1.228   6.603
13923SOL    HW153397   4.262   1.273   6.683
13923SOL    HW253398   4.169   1.288   6.564
13924SOL     OW53399   1.609   3.034  11.065
13924SOL    HW153400   1.534   3.034  11.123
13924SOL    HW253401   1.674   2.980  11.110
13925SOL     OW53402   1.960   3.761  27.984
13925SOL    HW153403   2.008   3.799  27.911
13925SOL    HW253404   1.914   3.835  28.024
13926SOL     OW53405   2.829   3.554   4.752
13926SOL    HW153406   2.793   3.467   4.733
13926SOL    HW253407   2.899   3.538   4.815
13927SOL     OW53408   0.144   4.409   0.469
13927SOL    HW153409   0.233   4.404   0.503
13927SOL    HW253410   0.145   4.483   0.408
13928SOL     OW53411   1.932   2.474  23.539
13928SOL    HW153412   1.938   2.486  23.444
13928SOL    HW253413   1.943   2.562  23.575
13929SOL     OW53414   4.332   2.866  20.368
13929SOL    HW153415   4.301   2.776  20.376
13929SOL    HW253416   4.270   2.907  20.306
13930SOL     OW53417   4.768   0.131  27.618
13930SOL    HW153418   4.712   0.058  27.594
13930SOL    HW253419   0.075   0.096  27.612
13931SOL     OW53420   1.891   2.968   2.591
13931SOL    HW153421   1.943   3.004   2.662
13931SOL    HW253422   1.927   2.880   2.577
13932SOL     OW53423   1.149   2.068   7.831
13932SOL    HW153424   1.153   2.140   7.894
13932SOL    HW253425   1.060   2.034   7.840
13933SOL     OW53426   3.762   2.372   5.168
13933SOL    HW153427   3.831   2.409   5.113
13933SOL    HW253428   3.740   2.289   5.127
13934SOL     OW53429   3.445   1.418   1.433
13934SOL    HW153430   3.353   1.443   1.440
13934SOL    HW253431   3.491   1.478   1.493
13935SOL     OW53432   0.044   0.016   3.845
13935SOL    HW153433   0.089   0.042   3.764
13935SOL    HW253434   4.746   4.756   3.814
13936SOL     OW53435   1.615   3.293   5.908
13936SOL    HW153436   1.558   3.332   5.841
13936SOL    HW253437   1.693   3.267   5.860
13937SOL     OW53438   0.796   4.104  20.137
13937SOL    HW153439   0.884   4.099  20.101
13937SOL    HW253440   0.747   4.036  20.091
13938SOL     OW53441   1.417   4.420   4.780
13938SOL    HW153442   1.427   4.330   4.747
13938SOL    HW253443   1.347   4.457   4.727
13939SOL     OW53444   1.525   0.276  28.489
13939SOL    HW153445   1.614   0.275  28.454
13939SOL    HW253446   1.527   0.216   0.032
13940SOL     OW53447   1.602   2.789  19.635
13940SOL    HW153448   1.538   2.721  19.614
13940SOL    HW253449   1.659   2.750  19.700
13941SOL     OW53450   0.725   3.784   0.406
13941SOL    HW153451   0.746   3.711   0.346
13941SOL    HW253452   0.714   3.859   0.348
13942SOL     OW53453   2.792   4.761  25.946
13942SOL    HW153454   2.816   0.032  25.871
13942SOL    HW253455   2.855   4.689  25.946
13943SOL     OW53456   3.176   2.518  23.215
13943SOL    HW153457   3.140   2.544  23.130
13943SOL    HW253458   3.262   2.481  23.194
13944SOL     OW53459   4.036   1.450  23.160
13944SOL    HW153460   4.085   1.430  23.081
13944SOL    HW253461   4.095   1.427  23.232
13945SOL     OW53462   3.704   3.267  26.355
13945SOL    HW153463   3.689   3.348  26.405
13945SOL    HW253464   3.625   3.215  26.369
13946SOL     OW53465   1.599   3.134  22.636
13946SOL    HW153466   1.542   3.187  22.692
13946SOL    HW253467   1.546   3.056  22.617
13947SOL     OW53468   3.930   0.628  17.649
13947SOL    HW153469   3.971   0.542  17.648
13947SOL    HW253470   3.899   0.639  17.739
13948SOL     OW53471   4.617   1.471  24.152
13948SOL    HW153472   4.526   1.478  24.124
13948SOL    HW253473   4.639   1.379  24.141
13949SOL     OW53474   0.823   1.529   6.085
13949SOL    HW153475   0.767   1.455   6.062
13949SOL    HW253476   0.772   1.606   6.062
13950SOL     OW53477   0.637   3.904  28.409
13950SOL    HW153478   0.564   3.924  28.350
13950SOL    HW253479   0.596   3.863  28.484
13951SOL     OW53480   0.980   1.327   7.786
13951SOL    HW153481   0.895   1.362   7.814
13951SOL    HW253482   0.958   1.250   7.734
13952SOL     OW53483   4.611   2.526   4.399
13952SOL    HW153484   4.529   2.527   4.350
13952SOL    HW253485   4.599   2.593   4.467
13953SOL     OW53486   2.951   2.039  28.468
13953SOL    HW153487   3.004   1.984  28.525
13953SOL    HW253488   3.006   2.054  28.391
13954SOL     OW53489   1.883   1.278  23.806
13954SOL    HW153490   1.801   1.249  23.765
13954SOL    HW253491   1.873   1.254  23.898
13955SOL     OW53492   2.273   3.793  28.012
13955SOL    HW153493   2.205   3.784  27.944
13955SOL    HW253494   2.261   3.881  28.046
13956SOL     OW53495   2.146   0.841   8.689
13956SOL    HW153496   2.057   0.836   8.724
13956SOL    HW253497   2.173   0.750   8.678
13957SOL     OW53498   4.171   3.363  21.856
13957SOL    HW153499   4.177   3.457  21.875
13957SOL    HW253500   4.255   3.342  21.814
13958SOL     OW53501   4.023   2.826  28.114
13958SOL    HW153502   4.017   2.782  28.198
13958SOL    HW253503   4.047   2.916  28.136
13959SOL     OW53504   1.712   3.855   2.789
13959SOL    HW153505   1.660   3.775   2.774
13959SOL    HW253506   1.677   3.891   2.870
13960SOL     OW53507   2.039   2.827   8.704
13960SOL    HW153508   1.986   2.798   8.630
13960SOL    HW253509   1.979   2.822   8.779
13961SOL     OW53510   1.129   1.559   8.726
13961SOL    HW153511   1.145   1.465   8.717
13961SOL    HW253512   1.038   1.565   8.754
13962SOL     OW53513   4.423   2.810  16.583
13962SOL    HW153514   4.486   2.738  16.591
13962SOL    HW253515   4.391   2.804  16.493
13963SOL     OW53516   1.091   3.122   6.438
13963SOL    HW153517   1.094   3.050   6.501
13963SOL    HW253518   1.011   3.171   6.461
13964SOL     OW53519   0.229   0.619  14.512
13964SOL    HW153520   0.322   0.598  14.503
13964SOL    HW253521   0.185   0.535  14.514
13965SOL     OW53522   3.561   1.014  28.029
13965SOL    HW153523   3.520   0.944  27.979
13965SOL    HW253524   3.495   1.038  28.094
13966SOL     OW53525   0.291   1.066   7.805
13966SOL    HW153526   0.315   0.987   7.853
13966SOL    HW253527   0.336   1.137   7.850
13967SOL     OW53528   0.561   2.716   6.034
13967SOL    HW153529   0.648   2.736   6.002
13967SOL    HW253530   0.511   2.692   5.956
13968SOL     OW53531   1.307   0.088  21.924
13968SOL    HW153532   1.399   0.099  21.901
13968SOL    HW253533   1.261   0.157  21.876
13969SOL     OW53534   3.690   3.475  25.950
13969SOL    HW153535   3.629   3.518  26.010
13969SOL    HW253536   3.777   3.492  25.987
13970SOL     OW53537   1.903   3.740   7.515
13970SOL    HW153538   1.876   3.818   7.564
13970SOL    HW253539   1.833   3.677   7.530
13971SOL     OW53540   1.581   3.092   8.247
13971SOL    HW153541   1.668   3.053   8.253
13971SOL    HW253542   1.563   3.123   8.336
13972SOL     OW53543   2.690   4.312  10.921
13972SOL    HW153544   2.737   4.238  10.961
13972SOL    HW253545   2.632   4.272  10.857
13973SOL     OW53546   1.122   1.847  22.564
13973SOL    HW153547   1.118   1.830  22.470
13973SOL    HW253548   1.205   1.808  22.592
13974SOL     OW53549   2.382   3.791   7.663
13974SOL    HW153550   2.404   3.847   7.737
13974SOL    HW253551   2.465   3.750   7.638
13975SOL     OW53552   2.214   3.076  26.073
13975SOL    HW153553   2.119   3.065  26.073
13975SOL    HW253554   2.227   3.170  26.066
13976SOL     OW53555   3.777   2.372   1.439
13976SOL    HW153556   3.686   2.378   1.409
13976SOL    HW253557   3.808   2.463   1.439
13977SOL     OW53558   2.837   4.729   2.721
13977SOL    HW153559   2.748   4.764   2.714
13977SOL    HW253560   2.890   0.006   2.668
13978SOL     OW53561   1.995   3.725  25.254
13978SOL    HW153562   1.972   3.633  25.260
13978SOL    HW253563   2.059   3.729  25.183
13979SOL     OW53564   0.928   4.549   8.785
13979SOL    HW153565   0.877   4.503   8.852
13979SOL    HW253566   0.989   4.483   8.751
13980SOL     OW53567   0.479   0.585   1.694
13980SOL    HW153568   0.474   0.489   1.694
13980SOL    HW253569   0.448   0.611   1.607
13981SOL     OW53570   1.515   3.531  10.660
13981SOL    HW153571   1.431   3.529  10.615
13981SOL    HW253572   1.495   3.502  10.749
13982SOL     OW53573   3.197   0.675   4.306
13982SOL    HW153574   3.211   0.755   4.357
13982SOL    HW253575   3.123   0.696   4.249
13983SOL     OW53576   3.495   2.913   0.032
13983SOL    HW153577   3.468   2.987  28.509
13983SOL    HW253578   3.572   2.878  28.520
13984SOL     OW53579   2.530   1.654  23.854
13984SOL    HW153580   2.585   1.665  23.931
13984SOL    HW253581   2.510   1.560  23.851
13985SOL     OW53582   3.410   4.215   2.799
13985SOL    HW153583   3.361   4.237   2.720
13985SOL    HW253584   3.457   4.135   2.777
13986SOL     OW53585   0.894   1.483   2.309
13986SOL    HW153586   0.863   1.485   2.400
13986SOL    HW253587   0.969   1.423   2.311
13987SOL     OW53588   4.046   1.466  11.095
13987SOL    HW153589   4.009   1.524  11.162
13987SOL    HW253590   3.977   1.401  11.079
13988SOL     OW53591   0.697   2.188   2.578
13988SOL    HW153592   0.659   2.115   2.528
13988SOL    HW253593   0.789   2.163   2.590
13989SOL     OW53594   1.783   3.525  10.566
13989SOL    HW153595   1.702   3.519  10.616
13989SOL    HW253596   1.838   3.454  10.600
13990SOL     OW53597   3.921   2.282  24.666
13990SOL    HW153598   3.945   2.195  24.633
13990SOL    HW253599   3.981   2.342  24.622
13991SOL     OW53600   3.236   1.539   3.243
13991SOL    HW153601   3.274   1.463   3.200
13991SOL    HW253602   3.305   1.605   3.242
13992SOL     OW53603   1.016   0.811  22.945
13992SOL    HW153604   0.938   0.856  22.980
13992SOL    HW253605   0.983   0.726  22.916
13993SOL     OW53606   3.004   3.311   0.355
13993SOL    HW153607   2.991   3.309   0.260
13993SOL    HW253608   2.959   3.233   0.387
13994SOL     OW53609   1.359   3.596   0.626
13994SOL    HW153610   1.393   3.584   0.715
13994SOL    HW253611   1.394   3.681   0.598
13995SOL     OW53612   2.844   0.660   9.994
13995SOL    HW153613   2.795   0.625   9.920
13995SOL    HW253614   2.882   0.742   9.961
13996SOL     OW53615   2.707   3.849   7.944
13996SOL    HW153616   2.638   3.880   7.886
13996SOL    HW253617   2.738   3.928   7.989
13997SOL     OW53618   1.779   1.748  25.725
13997SOL    HW153619   1.873   1.745  25.744
13997SOL    HW253620   1.745   1.663  25.754
13998SOL     OW53621   1.648   0.902   7.501
13998SOL    HW153622   1.602   0.983   7.475
13998SOL    HW253623   1.738   0.930   7.517
13999SOL     OW53624   2.823   3.191   6.500
13999SOL    HW153625   2.839   3.285   6.508
13999SOL    HW253626   2.906   3.155   6.469
14000SOL     OW53627   0.082   4.045   7.868
14000SOL    HW153628   0.090   4.005   7.781
14000SOL    HW253629   0.077   3.970   7.928
14001SOL     OW53630   0.424   4.411   8.464
14001SOL    HW153631   0.463   4.478   8.407
14001SOL    HW253632   0.330   4.417   8.447
14002SOL     OW53633   1.582   2.537  20.590
14002SOL    HW153634   1.517   2.548  20.521
14002SOL    HW253635   1.605   2.444  20.586
14003SOL     OW53636   2.950   2.983  25.129
14003SOL    HW153637   2.901   3.058  25.164
14003SOL    HW253638   2.913   2.907  25.173
14004SOL     OW53639   4.647   2.738  21.171
14004SOL    HW153640   4.711   2.692  21.224
14004SOL    HW253641   4.655   2.700  21.084
14005SOL     OW53642   0.509   1.548   6.302
14005SOL    HW153643   0.514   1.454   6.283
14005SOL    HW253644   0.435   1.579   6.250
14006SOL     OW53645   3.848   3.864   3.389
14006SOL    HW153646   3.839   3.905   3.475
14006SOL    HW253647   3.871   3.935   3.330
14007SOL     OW53648   4.140   0.513  21.858
14007SOL    HW153649   4.128   0.510  21.953
14007SOL    HW253650   4.148   0.606  21.838
14008SOL     OW53651   0.825   1.377   6.375
14008SOL    HW153652   0.779   1.423   6.305
14008SOL    HW253653   0.782   1.406   6.455
14009SOL     OW53654   0.227   1.190  25.572
14009SOL    HW153655   0.184   1.159  25.492
14009SOL    HW253656   0.192   1.135  25.642
14010SOL     OW53657   2.649   1.161  20.927
14010SOL    HW153658   2.652   1.117  20.842
14010SOL    HW253659   2.556   1.182  20.939
14011SOL     OW53660   4.553   3.582   4.213
14011SOL    HW153661   4.559   3.668   4.171
14011SOL    HW253662   4.490   3.534   4.161
14012SOL     OW53663   1.249   4.719  19.327
14012SOL    HW153664   1.157   4.747  19.317
14012SOL    HW253665   1.245   4.651  19.394
14013SOL     OW53666   3.120   2.224  25.529
14013SOL    HW153667   3.033   2.244  25.566
14013SOL    HW253668   3.166   2.307  25.530
14014SOL     OW53669   4.435   2.198  20.097
14014SOL    HW153670   4.355   2.252  20.100
14014SOL    HW253671   4.501   2.257  20.060
14015SOL     OW53672   0.275   1.951  23.918
14015SOL    HW153673   0.207   1.976  23.981
14015SOL    HW253674   0.270   1.855  23.916
14016SOL     OW53675   1.563   1.080   8.906
14016SOL    HW153676   1.658   1.079   8.922
14016SOL    HW253677   1.555   1.124   8.821
14017SOL     OW53678   2.883   4.528  24.652
14017SOL    HW153679   2.801   4.485  24.677
14017SOL    HW253680   2.928   4.464  24.597
14018SOL     OW53681   1.120   4.732  27.921
14018SOL    HW153682   1.033   4.770  27.913
14018SOL    HW253683   1.105   4.637  27.922
14019SOL     OW53684   2.281   1.915  26.513
14019SOL    HW153685   2.351   1.954  26.565
14019SOL    HW253686   2.200   1.947  26.554
14020SOL     OW53687   0.722   2.315   7.810
14020SOL    HW153688   0.789   2.318   7.878
14020SOL    HW253689   0.647   2.272   7.851
14021SOL     OW53690   3.638   2.325  17.710
14021SOL    HW153691   3.684   2.361  17.635
14021SOL    HW253692   3.546   2.333  17.689
14022SOL     OW53693   0.952   4.044  27.783
14022SOL    HW153694   0.948   4.128  27.830
14022SOL    HW253695   0.860   4.020  27.768
14023SOL     OW53696   1.566   3.440   2.244
14023SOL    HW153697   1.580   3.507   2.311
14023SOL    HW253698   1.583   3.357   2.290
14024SOL     OW53699   1.441   0.201  24.619
14024SOL    HW153700   1.386   0.276  24.642
14024SOL    HW253701   1.484   0.176  24.701
14025SOL     OW53702   1.168   2.239  27.853
14025SOL    HW153703   1.177   2.252  27.758
14025SOL    HW253704   1.242   2.286  27.890
14026SOL     OW53705   2.576   1.828   6.723
14026SOL    HW153706   2.551   1.797   6.637
14026SOL    HW253707   2.503   1.883   6.751
14027SOL     OW53708   3.628   4.098   3.698
14027SOL    HW153709   3.551   4.103   3.640
14027SOL    HW253710   3.594   4.115   3.785
14028SOL     OW53711   1.781   2.640  18.238
14028SOL    HW153712   1.820   2.687  18.311
14028SOL    HW253713   1.854   2.592  18.198
14029SOL     OW53714   3.989   1.776   4.636
14029SOL    HW153715   3.981   1.784   4.541
14029SOL    HW253716   3.902   1.751   4.665
14030SOL     OW53717   2.097   0.033   3.408
14030SOL    HW153718   2.113   0.125   3.385
14030SOL    HW253719   2.071   0.036   3.500
14031SOL     OW53720   2.745   4.023  21.264
14031SOL    HW153721   2.762   3.930  21.280
14031SOL    HW253722   2.822   4.053  21.216
14032SOL     OW53723   3.257   4.236   9.248
14032SOL    HW153724   3.345   4.233   9.210
14032SOL    HW253725   3.210   4.165   9.204
14033SOL     OW53726   0.752   1.066   5.534
14033SOL    HW153727   0.701   1.010   5.594
14033SOL    HW253728   0.697   1.073   5.456
14034SOL     OW53729   3.938   3.619   0.015
14034SOL    HW153730   3.898   3.705   0.027
14034SOL    HW253731   3.864   3.558   0.015
14035SOL     OW53732   2.133   0.409   4.305
14035SOL    HW153733   2.221   0.371   4.301
14035SOL    HW253734   2.148   0.503   4.311
14036SOL     OW53735   0.584   0.696   2.707
14036SOL    HW153736   0.677   0.697   2.730
14036SOL    HW253737   0.560   0.603   2.713
14037SOL     OW53738   3.167   0.493   5.373
14037SOL    HW153739   3.106   0.493   5.447
14037SOL    HW253740   3.243   0.541   5.405
14038SOL     OW53741   1.803   3.490  28.339
14038SOL    HW153742   1.722   3.514  28.292
14038SOL    HW253743   1.873   3.515  28.278
14039SOL     OW53744   3.084   3.251  26.111
14039SOL    HW153745   3.074   3.229  26.203
14039SOL    HW253746   3.025   3.325  26.097
14040SOL     OW53747   3.083   1.103  25.647
14040SOL    HW153748   2.995   1.095  25.611
14040SOL    HW253749   3.070   1.140  25.734
14041SOL     OW53750   0.019   1.705  21.523
14041SOL    HW153751   0.046   1.632  21.580
14041SOL    HW253752   0.081   1.775  21.544
14042SOL     OW53753   1.444   0.677   2.700
14042SOL    HW153754   1.534   0.666   2.669
14042SOL    HW253755   1.390   0.642   2.629
14043SOL     OW53756   4.640   3.899  22.818
14043SOL    HW153757   4.718   3.906  22.763
14043SOL    HW253758   4.609   3.989  22.826
14044SOL     OW53759   3.039   3.121   3.393
14044SOL    HW153760   2.969   3.182   3.370
14044SOL    HW253761   3.112   3.145   3.336
14045SOL     OW53762   3.355   4.393  21.242
14045SOL    HW153763   3.389   4.312  21.204
14045SOL    HW253764   3.263   4.374  21.260
14046SOL     OW53765   1.147   1.727  24.741
14046SOL    HW153766   1.083   1.718  24.812
14046SOL    HW253767   1.168   1.636  24.716
14047SOL     OW53768   1.697   0.320   0.860
14047SOL    HW153769   1.705   0.325   0.955
14047SOL    HW253770   1.707   0.227   0.839
14048SOL     OW53771   1.129   4.620  22.686
14048SOL    HW153772   1.159   4.531  22.670
14048SOL    HW253773   1.068   4.612  22.759
14049SOL     OW53774   2.244   2.516   4.447
14049SOL    HW153775   2.321   2.462   4.464
14049SOL    HW253776   2.174   2.453   4.429
14050SOL     OW53777   1.994   4.204  23.782
14050SOL    HW153778   1.976   4.256  23.704
14050SOL    HW253779   2.081   4.233  23.810
14051SOL     OW53780   1.419   0.698   0.948
14051SOL    HW153781   1.399   0.713   1.040
14051SOL    HW253782   1.363   0.759   0.900
14052SOL     OW53783   2.713   0.600   7.596
14052SOL    HW153784   2.649   0.641   7.654
14052SOL    HW253785   2.696   0.506   7.604
14053SOL     OW53786   1.106   4.775  18.358
14053SOL    HW153787   1.023   0.040  18.350
14053SOL    HW253788   1.159   0.025  18.285
14054SOL     OW53789   2.867   4.359  27.911
14054SOL    HW153790   2.868   4.267  27.884
14054SOL    HW253791   2.782   4.370  27.954
14055SOL     OW53792   4.395   3.260   0.193
14055SOL    HW153793   4.412   3.199   0.122
14055SOL    HW253794   4.304   3.244   0.217
14056SOL     OW53795   1.719   3.024  21.250
14056SOL    HW153796   1.683   2.989  21.168
14056SOL    HW253797   1.661   2.989  21.318
14057SOL     OW53798   0.034   4.429  20.196
14057SOL    HW153799   0.090   4.454  20.122
14057SOL    HW253800   4.746   4.378  20.157
14058SOL     OW53801   2.452   1.955   2.848
14058SOL    HW153802   2.422   1.946   2.939
14058SOL    HW253803   2.476   1.866   2.822
14059SOL     OW53804   4.241   4.305  26.495
14059SOL    HW153805   4.150   4.313  26.467
14059SOL    HW253806   4.247   4.218  26.536
14060SOL     OW53807   3.085   0.377   2.718
14060SOL    HW153808   3.049   0.448   2.772
14060SOL    HW253809   3.151   0.336   2.774
14061SOL     OW53810   3.828   1.464  11.865
14061SOL    HW153811   3.868   1.543  11.829
14061SOL    HW253812   3.755   1.497  11.919
14062SOL     OW53813   0.382   1.887   4.701
14062SOL    HW153814   0.395   1.969   4.748
14062SOL    HW253815   0.290   1.865   4.717
14063SOL     OW53816   4.680   2.419  27.223
14063SOL    HW153817   4.712   2.462  27.144
14063SOL    HW253818   4.664   2.490  27.285
14064SOL     OW53819   4.107   1.169   2.171
14064SOL    HW153820   4.069   1.094   2.125
14064SOL    HW253821   4.148   1.221   2.102
14065SOL     OW53822   0.763   0.977   5.198
14065SOL    HW153823   0.686   1.028   5.225
14065SOL    HW253824   0.834   1.011   5.251
14066SOL     OW53825   1.533   4.364  28.331
14066SOL    HW153826   1.559   4.329  28.245
14066SOL    HW253827   1.549   4.292  28.392
14067SOL     OW53828   3.781   0.220  21.974
14067SOL    HW153829   3.861   0.261  22.005
14067SOL    HW253830   3.750   0.278  21.903
14068SOL     OW53831   3.913   2.975   6.960
14068SOL    HW153832   3.962   3.005   7.037
14068SOL    HW253833   3.855   3.047   6.938
14069SOL     OW53834   1.895   0.832  27.286
14069SOL    HW153835   1.831   0.761  27.279
14069SOL    HW253836   1.937   0.818  27.371
14070SOL     OW53837   1.405   1.208  25.723
14070SOL    HW153838   1.447   1.292  25.738
14070SOL    HW253839   1.394   1.203  25.628
14071SOL     OW53840   1.679   3.724   0.689
14071SOL    HW153841   1.773   3.724   0.705
14071SOL    HW253842   1.668   3.771   0.606
14072SOL     OW53843   2.448   0.454  11.043
14072SOL    HW153844   2.483   0.530  11.090
14072SOL    HW253845   2.367   0.433  11.088
14073SOL     OW53846   1.551   0.426   3.439
14073SOL    HW153847   1.471   0.379   3.461
14073SOL    HW253848   1.543   0.442   3.345
14074SOL     OW53849   4.449   3.301  20.883
14074SOL    HW153850   4.512   3.359  20.926
14074SOL    HW253851   4.386   3.279  20.952
14075SOL     OW53852   1.167   3.030  21.248
14075SOL    HW153853   1.166   3.126  21.251
14075SOL    HW253854   1.081   3.004  21.278
14076SOL     OW53855   3.505   2.216  24.937
14076SOL    HW153856   3.460   2.286  24.984
14076SOL    HW253857   3.553   2.261  24.868
14077SOL     OW53858   1.676   2.260  21.239
14077SOL    HW153859   1.633   2.179  21.268
14077SOL    HW253860   1.720   2.235  21.157
14078SOL     OW53861   1.576   0.352   2.690
14078SOL    HW153862   1.489   0.325   2.719
14078SOL    HW253863   1.635   0.319   2.759
14079SOL     OW53864   4.253   1.118   0.320
14079SOL    HW153865   4.337   1.120   0.274
14079SOL    HW253866   4.218   1.207   0.311
14080SOL     OW53867   3.869   1.622   9.052
14080SOL    HW153868   3.786   1.670   9.058
14080SOL    HW253869   3.886   1.593   9.142
14081SOL     OW53870   4.564   1.042  20.063
14081SOL    HW153871   4.618   1.060  20.140
14081SOL    HW253872   4.621   1.065  19.989
14082SOL     OW53873   3.219   0.984  22.190
14082SOL    HW153874   3.222   0.963  22.097
14082SOL    HW253875   3.131   0.958  22.218
14083SOL     OW53876   2.095   4.438   4.509
14083SOL    HW153877   2.128   4.420   4.421
14083SOL    HW253878   2.130   4.524   4.531
14084SOL     OW53879   0.664   2.934   3.398
14084SOL    HW153880   0.747   2.980   3.385
14084SOL    HW253881   0.689   2.842   3.409
14085SOL     OW53882   4.407   4.029  21.888
14085SOL    HW153883   4.492   4.028  21.931
14085SOL    HW253884   4.427   4.017  21.795
14086SOL     OW53885   0.468   0.046   9.603
14086SOL    HW153886   0.436   0.071   9.689
14086SOL    HW253887   0.417   0.098   9.542
14087SOL     OW53888   2.855   4.312  21.098
14087SOL    HW153889   2.950   4.314  21.090
14087SOL    HW253890   2.839   4.303  21.192
14088SOL     OW53891   0.154   4.182  23.588
14088SOL    HW153892   0.164   4.193  23.683
14088SOL    HW253893   0.171   4.089  23.573
14089SOL     OW53894   0.609   0.593  26.761
14089SOL    HW153895   0.580   0.672  26.806
14089SOL    HW253896   0.697   0.615  26.729
14090SOL     OW53897   1.021   2.594   3.763
14090SOL    HW153898   0.977   2.524   3.811
14090SOL    HW253899   1.055   2.652   3.831
14091SOL     OW53900   0.199   1.572   5.516
14091SOL    HW153901   0.192   1.506   5.447
14091SOL    HW253902   0.111   1.610   5.521
14092SOL     OW53903   1.002   4.460   8.073
14092SOL    HW153904   1.080   4.513   8.085
14092SOL    HW253905   0.932   4.509   8.115
14093SOL     OW53906   1.546   2.164  20.340
14093SOL    HW153907   1.464   2.140  20.299
14093SOL    HW253908   1.593   2.214  20.273
14094SOL     OW53909   0.054   0.922  21.161
14094SOL    HW153910   0.046   1.016  21.176
14094SOL    HW253911   0.137   0.912  21.115
14095SOL     OW53912   2.671   3.191  27.762
14095SOL    HW153913   2.746   3.146  27.801
14095SOL    HW253914   2.601   3.180  27.826
14096SOL     OW53915   4.083   2.482   0.401
14096SOL    HW153916   4.045   2.556   0.449
14096SOL    HW253917   4.153   2.521   0.349
14097SOL     OW53918   3.046   0.528  23.674
14097SOL    HW153919   3.057   0.528  23.579
14097SOL    HW253920   3.089   0.607  23.705
14098SOL     OW53921   1.431   2.485  11.695
14098SOL    HW153922   1.456   2.471  11.786
14098SOL    HW253923   1.346   2.442  11.686
14099SOL     OW53924   3.549   4.056  26.418
14099SOL    HW153925   3.492   4.066  26.494
14099SOL    HW253926   3.490   4.036  26.345
14100SOL     OW53927   0.812   0.326  22.346
14100SOL    HW153928   0.902   0.327  22.380
14100SOL    HW253929   0.813   0.259  22.278
14101SOL     OW53930   1.499   2.947  25.873
14101SOL    HW153931   1.501   2.951  25.778
14101SOL    HW253932   1.573   2.890  25.896
14102SOL     OW53933   3.467   3.344   6.399
14102SOL    HW153934   3.413   3.362   6.322
14102SOL    HW253935   3.404   3.343   6.472
14103SOL     OW53936   4.352   1.668   3.173
14103SOL    HW153937   4.397   1.600   3.122
14103SOL    HW253938   4.314   1.726   3.106
14104SOL     OW53939   3.471   2.389  20.967
14104SOL    HW153940   3.525   2.461  20.999
14104SOL    HW253941   3.524   2.311  20.984
14105SOL     OW53942   1.666   2.946   9.672
14105SOL    HW153943   1.635   2.926   9.760
14105SOL    HW253944   1.625   2.880   9.616
14106SOL     OW53945   1.014   3.435   9.493
14106SOL    HW153946   1.096   3.386   9.490
14106SOL    HW253947   0.992   3.439   9.586
14107SOL     OW53948   1.427   3.503  27.950
14107SOL    HW153949   1.450   3.564  27.880
14107SOL    HW253950   1.436   3.416  27.911
14108SOL     OW53951   3.562   4.711   1.579
14108SOL    HW153952   3.479   4.665   1.569
14108SOL    HW253953   3.571   4.761   1.498
14109SOL     OW53954   3.233   3.113   7.180
14109SOL    HW153955   3.307   3.117   7.119
14109SOL    HW253956   3.211   3.204   7.197
14110SOL     OW53957   1.276   2.825  27.144
14110SOL    HW153958   1.343   2.860  27.202
14110SOL    HW253959   1.256   2.896  27.083
14111SOL     OW53960   3.426   3.122   4.724
14111SOL    HW153961   3.389   3.209   4.741
14111SOL    HW253962   3.364   3.062   4.764
14112SOL     OW53963   4.250   3.184   5.400
14112SOL    HW153964   4.165   3.185   5.356
14112SOL    HW253965   4.304   3.243   5.348
14113SOL     OW53966   4.509   1.906   3.108
14113SOL    HW153967   4.526   1.818   3.075
14113SOL    HW253968   4.552   1.909   3.193
14114SOL     OW53969   3.081   2.227   5.275
14114SOL    HW153970   3.134   2.194   5.203
14114SOL    HW253971   2.991   2.225   5.243
14115SOL     OW53972   0.909   4.488  26.736
14115SOL    HW153973   0.816   4.490  26.757
14115SOL    HW253974   0.913   4.513  26.643
14116SOL     OW53975   2.901   4.350  22.800
14116SOL    HW153976   2.994   4.333  22.784
14116SOL    HW253977   2.882   4.429  22.748
14117SOL     OW53978   3.137   4.372   9.706
14117SOL    HW153979   3.153   4.324   9.625
14117SOL    HW253980   3.083   4.314   9.759
14118SOL     OW53981   0.554   3.014  23.419
14118SOL    HW153982   0.586   2.947  23.359
14118SOL    HW253983   0.491   3.064  23.367
14119SOL     OW53984   4.779   4.606   3.540
14119SOL    HW153985   4.760   4.524   3.495
14119SOL    HW253986   4.708   4.615   3.604
14120SOL     OW53987   3.981   3.774   8.173
14120SOL    HW153988   4.006   3.860   8.137
14120SOL    HW253989   3.932   3.795   8.252
14121SOL     OW53990   3.560   4.141  28.324
14121SOL    HW153991   3.487   4.111  28.270
14121SOL    HW253992   3.561   4.082  28.399
14122SOL     OW53993   2.959   1.133   7.430
14122SOL    HW153994   2.930   1.214   7.472
14122SOL    HW253995   2.972   1.072   7.502
14123SOL     OW53996   3.827   1.808  22.597
14123SOL    HW153997   3.827   1.891  22.645
14123SOL    HW253998   3.761   1.754  22.642
14124SOL     OW53999   4.230   0.282  27.209
14124SOL    HW154000   4.224   0.189  27.230
14124SOL    HW254001   4.300   0.315  27.265
14125SOL     OW54002   3.610   4.326  26.208
14125SOL    HW154003   3.562   4.387  26.263
14125SOL    HW254004   3.563   4.243  26.217
14126SOL     OW54005   4.609   1.122  20.497
14126SOL    HW154006   4.541   1.184  20.471
14126SOL    HW254007   4.623   1.139  20.590
14127SOL     OW54008   4.670   3.750  22.140
14127SOL    HW154009   4.744   3.745  22.200
14127SOL    HW254010   4.595   3.770  22.196
14128SOL     OW54011   1.313   3.073  26.349
14128SOL    HW154012   1.390   3.112  26.390
14128SOL    HW254013   1.343   2.987  26.318
14129SOL     OW54014   3.845   0.310  26.159
14129SOL    HW154015   3.867   0.226  26.200
14129SOL    HW254016   3.928   0.358  26.155
14130SOL     OW54017   1.819   3.043   5.271
14130SOL    HW154018   1.745   3.092   5.307
14130SOL    HW254019   1.894   3.101   5.282
14131SOL     OW54020   1.362   2.437   1.748
14131SOL    HW154021   1.443   2.413   1.794
14131SOL    HW254022   1.323   2.506   1.802
14132SOL     OW54023   1.044   0.075   7.831
14132SOL    HW154024   0.975   0.014   7.804
14132SOL    HW254025   1.002   0.129   7.898
14133SOL     OW54026   2.053   2.966   6.550
14133SOL    HW154027   2.117   3.026   6.512
14133SOL    HW254028   2.085   2.879   6.528
14134SOL     OW54029   2.585   1.024  22.362
14134SOL    HW154030   2.567   1.109  22.322
14134SOL    HW254031   2.520   0.965  22.324
14135SOL     OW54032   4.599   1.548  19.157
14135SOL    HW154033   4.680   1.501  19.174
14135SOL    HW254034   4.532   1.499  19.205
14136SOL     OW54035   0.538   2.315  21.351
14136SOL    HW154036   0.501   2.334  21.265
14136SOL    HW254037   0.591   2.236  21.338
14137SOL     OW54038   4.450   0.361  21.338
14137SOL    HW154039   4.516   0.303  21.375
14137SOL    HW254040   4.405   0.308  21.273
14138SOL     OW54041   2.672   1.931  27.038
14138SOL    HW154042   2.697   2.023  27.046
14138SOL    HW254043   2.726   1.885  27.102
14139SOL     OW54044   1.801   4.651  23.559
14139SOL    HW154045   1.797   4.741  23.528
14139SOL    HW254046   1.850   4.604  23.492
14140SOL     OW54047   2.736   0.698   3.097
14140SOL    HW154048   2.748   0.693   3.002
14140SOL    HW254049   2.771   0.783   3.122
14141SOL     OW54050   0.030   0.896  26.105
14141SOL    HW154051   0.085   0.972  26.084
14141SOL    HW254052   0.052   0.831  26.039
14142SOL     OW54053   1.129   4.596  18.149
14142SOL    HW154054   1.097   4.646  18.224
14142SOL    HW254055   1.201   4.543  18.184
14143SOL     OW54056   2.342   0.441   9.034
14143SOL    HW154057   2.255   0.480   9.027
14143SOL    HW254058   2.326   0.346   9.029
14144SOL     OW54059   3.516   1.644  27.696
14144SOL    HW154060   3.511   1.721  27.640
14144SOL    HW254061   3.468   1.669  27.775
14145SOL     OW54062   1.540   3.591   1.107
14145SOL    HW154063   1.607   3.578   1.174
14145SOL    HW254064   1.516   3.684   1.114
14146SOL     OW54065   2.928   2.053  21.212
14146SOL    HW154066   2.848   2.030  21.165
14146SOL    HW254067   2.992   1.988  21.185
14147SOL     OW54068   3.143   0.804   2.260
14147SOL    HW154069   3.092   0.727   2.233
14147SOL    HW254070   3.094   0.840   2.334
14148SOL     OW54071   3.228   4.119   6.677
14148SOL    HW154072   3.214   4.097   6.769
14148SOL    HW254073   3.199   4.042   6.629
14149SOL     OW54074   4.177   2.473  27.706
14149SOL    HW154075   4.259   2.518  27.689
14149SOL    HW254076   4.170   2.407  27.637
14150SOL     OW54077   4.298   2.004  25.211
14150SOL    HW154078   4.334   1.915  25.205
14150SOL    HW254079   4.329   2.037  25.295
14151SOL     OW54080   3.239   3.516   9.277
14151SOL    HW154081   3.266   3.485   9.363
14151SOL    HW254082   3.216   3.608   9.290
14152SOL     OW54083   0.456   3.610  20.600
14152SOL    HW154084   0.381   3.550  20.600
14152SOL    HW254085   0.493   3.602  20.512
14153SOL     OW54086   0.665   2.168   2.253
14153SOL    HW154087   0.627   2.083   2.229
14153SOL    HW254088   0.704   2.153   2.339
14154SOL     OW54089   2.163   4.468   1.460
14154SOL    HW154090   2.154   4.404   1.530
14154SOL    HW254091   2.169   4.415   1.380
14155SOL     OW54092   0.927   0.266   4.112
14155SOL    HW154093   0.892   0.225   4.191
14155SOL    HW254094   0.939   0.193   4.051
14156SOL     OW54095   3.746   1.012   7.723
14156SOL    HW154096   3.768   1.103   7.740
14156SOL    HW254097   3.678   1.015   7.655
14157SOL     OW54098   3.613   0.926  26.971
14157SOL    HW154099   3.619   1.018  26.945
14157SOL    HW254100   3.704   0.897  26.978
14158SOL     OW54101   1.077   3.415  23.736
14158SOL    HW154102   1.010   3.476  23.767
14158SOL    HW254103   1.142   3.470  23.694
14159SOL     OW54104   4.382   0.869   2.230
14159SOL    HW154105   4.364   0.823   2.312
14159SOL    HW254106   4.332   0.820   2.165
14160SOL     OW54107   3.167   2.009   0.456
14160SOL    HW154108   3.160   2.103   0.442
14160SOL    HW254109   3.249   1.998   0.505
14161SOL     OW54110   1.862   0.997   0.464
14161SOL    HW154111   1.786   1.029   0.513
14161SOL    HW254112   1.909   0.941   0.526
14162SOL     OW54113   3.387   1.583   0.645
14162SOL    HW154114   3.407   1.652   0.708
14162SOL    HW254115   3.354   1.511   0.699
14163SOL     OW54116   2.421   2.491  27.019
14163SOL    HW154117   2.435   2.498  27.113
14163SOL    HW254118   2.453   2.574  26.983
14164SOL     OW54119   3.168   1.138   2.655
14164SOL    HW154120   3.103   1.200   2.691
14164SOL    HW254121   3.215   1.189   2.589
14165SOL     OW54122   1.756   0.409   0.350
14165SOL    HW154123   1.804   0.379   0.428
14165SOL    HW254124   1.742   0.502   0.365
14166SOL     OW54125   4.291   2.048  17.520
14166SOL    HW154126   4.205   2.017  17.548
14166SOL    HW254127   4.348   1.972  17.529
14167SOL     OW54128   1.587   4.492  23.625
14167SOL    HW154129   1.523   4.501  23.555
14167SOL    HW254130   1.666   4.535  23.592
14168SOL     OW54131   0.988   1.375   2.039
14168SOL    HW154132   1.068   1.380   2.091
14168SOL    HW254133   0.993   1.289   1.996
14169SOL     OW54134   3.415   3.983   0.912
14169SOL    HW154135   3.375   3.899   0.893
14169SOL    HW254136   3.508   3.970   0.893
14170SOL     OW54137   3.037   0.114   6.481
14170SOL    HW154138   3.065   0.202   6.506
14170SOL    HW254139   3.016   0.071   6.564
14171SOL     OW54140   2.742   3.326   1.809
14171SOL    HW154141   2.740   3.352   1.901
14171SOL    HW254142   2.821   3.368   1.774
14172SOL     OW54143   4.715   1.467   1.116
14172SOL    HW154144   4.738   1.426   1.199
14172SOL    HW254145   0.014   1.470   1.067
14173SOL     OW54146   2.231   3.770   6.361
14173SOL    HW154147   2.226   3.866   6.369
14173SOL    HW254148   2.257   3.755   6.270
14174SOL     OW54149   1.292   0.058   3.818
14174SOL    HW154150   1.327   0.136   3.862
14174SOL    HW254151   1.354   4.771   3.839
14175SOL     OW54152   3.587   0.775  25.067
14175SOL    HW154153   3.617   0.688  25.042
14175SOL    HW254154   3.552   0.764  25.156
14176SOL     OW54155   3.640   1.013  22.281
14176SOL    HW154156   3.697   1.062  22.341
14176SOL    HW254157   3.697   0.992  22.207
14177SOL     OW54158   4.350   4.283  27.370
14177SOL    HW154159   4.282   4.247  27.428
14177SOL    HW254160   4.335   4.240  27.286
14178SOL     OW54161   2.503   0.359  24.371
14178SOL    HW154162   2.504   0.334  24.279
14178SOL    HW254163   2.578   0.313  24.410
14179SOL     OW54164   2.156   3.106   0.468
14179SOL    HW154165   2.149   3.051   0.546
14179SOL    HW254166   2.206   3.182   0.496
14180SOL     OW54167   0.327   0.926  21.010
14180SOL    HW154168   0.387   1.000  21.014
14180SOL    HW254169   0.366   0.859  21.066
14181SOL     OW54170   0.915   1.300  28.103
14181SOL    HW154171   0.960   1.217  28.117
14181SOL    HW254172   0.944   1.329  28.016
14182SOL     OW54173   1.230   0.231   4.833
14182SOL    HW154174   1.189   0.148   4.856
14182SOL    HW254175   1.310   0.234   4.886
14183SOL     OW54176   1.496   3.057  28.247
14183SOL    HW154177   1.428   3.082  28.184
14183SOL    HW254178   1.577   3.094  28.211
14184SOL     OW54179   3.659   4.172  23.528
14184SOL    HW154180   3.718   4.148  23.457
14184SOL    HW254181   3.717   4.198  23.600
14185SOL     OW54182   3.075   0.451  19.685
14185SOL    HW154183   3.102   0.470  19.595
14185SOL    HW254184   3.150   0.477  19.738
14186SOL     OW54185   2.392   1.794  10.310
14186SOL    HW154186   2.336   1.811  10.235
14186SOL    HW254187   2.331   1.781  10.383
14187SOL     OW54188   3.394   4.642  21.154
14187SOL    HW154189   3.369   4.554  21.180
14187SOL    HW254190   3.316   4.695  21.169
14188SOL     OW54191   0.707   1.537  26.606
14188SOL    HW154192   0.797   1.506  26.598
14188SOL    HW254193   0.704   1.616  26.552
14189SOL     OW54194   4.411   1.556  24.440
14189SOL    HW154195   4.484   1.495  24.446
14189SOL    HW254196   4.445   1.638  24.476
14190SOL     OW54197   4.181   3.521   8.990
14190SOL    HW154198   4.130   3.575   9.051
14190SOL    HW254199   4.126   3.513   8.913
14191SOL     OW54200   1.745   0.993   0.219
14191SOL    HW154201   1.652   0.997   0.244
14191SOL    HW254202   1.792   0.988   0.302
14192SOL     OW54203   0.383   4.592   7.755
14192SOL    HW154204   0.402   4.539   7.832
14192SOL    HW254205   0.453   4.570   7.693
14193SOL     OW54206   3.732   0.636   8.154
14193SOL    HW154207   3.776   0.720   8.140
14193SOL    HW254208   3.794   0.571   8.122
14194SOL     OW54209   2.820   2.014   3.863
14194SOL    HW154210   2.874   1.937   3.883
14194SOL    HW254211   2.826   2.068   3.942
14195SOL     OW54212   0.218   1.379  17.627
14195SOL    HW154213   0.216   1.297  17.577
14195SOL    HW254214   0.134   1.421  17.607
14196SOL     OW54215   0.083   1.860  28.237
14196SOL    HW154216   0.089   1.864  28.332
14196SOL    HW254217   4.773   1.849  28.218
14197SOL     OW54218   4.498   3.404   6.536
14197SOL    HW154219   4.461   3.407   6.447
14197SOL    HW254220   4.590   3.383   6.522
14198SOL     OW54221   3.581   2.878  26.057
14198SOL    HW154222   3.636   2.956  26.049
14198SOL    HW254223   3.601   2.826  25.980
14199SOL     OW54224   1.494   3.956   6.575
14199SOL    HW154225   1.537   3.909   6.646
14199SOL    HW254226   1.402   3.961   6.601
14200SOL     OW54227   1.672   4.682   4.414
14200SOL    HW154228   1.638   4.605   4.459
14200SOL    HW254229   1.596   4.718   4.368
14201SOL     OW54230   4.416   1.402   4.848
14201SOL    HW154231   4.425   1.480   4.794
14201SOL    HW254232   4.469   1.336   4.804
14202SOL     OW54233   3.255   1.396   2.685
14202SOL    HW154234   3.193   1.365   2.751
14202SOL    HW254235   3.341   1.376   2.722
14203SOL     OW54236   4.189   3.116   6.662
14203SOL    HW154237   4.207   3.209   6.674
14203SOL    HW254238   4.244   3.090   6.589
14204SOL     OW54239   1.756   0.261   0.119
14204SOL    HW154240   1.746   0.327   0.188
14204SOL    HW254241   1.819   0.299   0.058
14205SOL     OW54242   2.408   2.758   6.289
14205SOL    HW154243   2.383   2.796   6.205
14205SOL    HW254244   2.472   2.690   6.267
14206SOL     OW54245   2.924   4.062   7.718
14206SOL    HW154246   2.920   4.065   7.813
14206SOL    HW254247   2.961   4.147   7.693
14207SOL     OW54248   4.728   0.249   8.472
14207SOL    HW154249   0.035   0.217   8.463
14207SOL    HW254250   4.673   0.175   8.447
14208SOL     OW54251   2.512   3.372  23.398
14208SOL    HW154252   2.512   3.276  23.400
14208SOL    HW254253   2.602   3.395  23.374
14209SOL     OW54254   2.271   2.351  23.720
14209SOL    HW154255   2.225   2.434  23.713
14209SOL    HW254256   2.233   2.308  23.796
14210SOL     OW54257   1.782   3.835  10.388
14210SOL    HW154258   1.801   3.868  10.300
14210SOL    HW254259   1.837   3.758  10.398
14211SOL     OW54260   2.474   4.432  16.639
14211SOL    HW154261   2.509   4.439  16.727
14211SOL    HW254262   2.530   4.367  16.596
14212SOL     OW54263   2.738   3.631   7.672
14212SOL    HW154264   2.805   3.657   7.736
14212SOL    HW254265   2.703   3.549   7.706
14213SOL     OW54266   3.126   2.641  27.788
14213SOL    HW154267   3.101   2.689  27.709
14213SOL    HW254268   3.077   2.559  27.783
14214SOL     OW54269   0.032   3.896  23.909
14214SOL    HW154270   0.106   3.854  23.866
14214SOL    HW254271   0.048   3.883  24.002
14215SOL     OW54272   4.547   4.732  22.249
14215SOL    HW154273   4.533   4.690  22.334
14215SOL    HW254274   4.556   4.660  22.188
14216SOL     OW54275   0.408   3.669  24.042
14216SOL    HW154276   0.358   3.720  23.979
14216SOL    HW254277   0.411   3.580  24.005
14217SOL     OW54278   1.415   3.323   7.234
14217SOL    HW154279   1.454   3.296   7.317
14217SOL    HW254280   1.341   3.264   7.222
14218SOL     OW54281   0.317   1.261   8.228
14218SOL    HW154282   0.321   1.209   8.149
14218SOL    HW254283   0.252   1.218   8.283
14219SOL     OW54284   3.884   3.545  23.287
14219SOL    HW154285   3.925   3.620  23.245
14219SOL    HW254286   3.805   3.580  23.327
14220SOL     OW54287   0.565   1.903  23.672
14220SOL    HW154288   0.476   1.938  23.673
14220SOL    HW254289   0.604   1.938  23.592
14221SOL     OW54290   3.189   2.092  22.807
14221SOL    HW154291   3.182   2.051  22.893
14221SOL    HW254292   3.100   2.118  22.785
14222SOL     OW54293   0.687   4.170   0.004
14222SOL    HW154294   0.634   4.222  28.475
14222SOL    HW254295   0.710   4.091  28.485
14223SOL     OW54296   3.999   2.435   5.031
14223SOL    HW154297   4.012   2.509   5.090
14223SOL    HW254298   4.023   2.358   5.083
14224SOL     OW54299   4.064   4.642   6.713
14224SOL    HW154300   4.054   4.711   6.779
14224SOL    HW254301   4.157   4.622   6.712
14225SOL     OW54302   1.918   0.751   9.344
14225SOL    HW154303   1.832   0.788   9.364
14225SOL    HW254304   1.922   0.672   9.398
14226SOL     OW54305   2.204   2.409  27.691
14226SOL    HW154306   2.225   2.499  27.716
14226SOL    HW254307   2.193   2.412  27.596
14227SOL     OW54308   0.332   4.321   6.707
14227SOL    HW154309   0.325   4.263   6.631
14227SOL    HW254310   0.251   4.373   6.705
14228SOL     OW54311   1.438   4.728  10.076
14228SOL    HW154312   1.410   0.033  10.049
14228SOL    HW254313   1.471   4.688   9.995
14229SOL     OW54314   0.661   4.428  10.153
14229SOL    HW154315   0.665   4.447  10.059
14229SOL    HW254316   0.568   4.435  10.174
14230SOL     OW54317   4.118   2.013  10.160
14230SOL    HW154318   4.099   2.007  10.253
14230SOL    HW254319   4.100   1.925  10.126
14231SOL     OW54320   1.774   2.011   4.830
14231SOL    HW154321   1.843   2.004   4.896
14231SOL    HW254322   1.790   2.096   4.788
14232SOL     OW54323   1.536   1.539   0.601
14232SOL    HW154324   1.607   1.575   0.655
14232SOL    HW254325   1.478   1.496   0.664
14233SOL     OW54326   4.033   0.423  20.942
14233SOL    HW154327   3.976   0.350  20.967
14233SOL    HW254328   3.973   0.493  20.918
14234SOL     OW54329   2.713   1.275   8.164
14234SOL    HW154330   2.792   1.329   8.158
14234SOL    HW254331   2.739   1.202   8.221
14235SOL     OW54332   2.634   3.979  25.649
14235SOL    HW154333   2.555   3.930  25.628
14235SOL    HW254334   2.701   3.942  25.591
14236SOL     OW54335   4.205   1.452  27.785
14236SOL    HW154336   4.126   1.491  27.748
14236SOL    HW254337   4.264   1.527  27.798
14237SOL     OW54338   0.423   2.909  24.420
14237SOL    HW154339   0.444   2.943  24.507
14237SOL    HW254340   0.448   2.979  24.360
14238SOL     OW54341   1.009   1.620  23.412
14238SOL    HW154342   0.965   1.699  23.381
14238SOL    HW254343   0.941   1.553  23.409
14239SOL     OW54344   1.641   0.242   6.732
14239SOL    HW154345   1.710   0.303   6.705
14239SOL    HW254346   1.664   0.159   6.691
14240SOL     OW54347   0.828   2.318   8.354
14240SOL    HW154348   0.742   2.296   8.390
14240SOL    HW254349   0.857   2.237   8.311
14241SOL     OW54350   3.859   3.202   7.901
14241SOL    HW154351   3.947   3.237   7.888
14241SOL    HW254352   3.817   3.207   7.815
14242SOL     OW54353   0.006   1.169   7.469
14242SOL    HW154354   4.771   1.079   7.496
14242SOL    HW254355   4.717   1.220   7.505
14243SOL     OW54356   4.043   2.979  20.860
14243SOL    HW154357   3.999   2.898  20.833
14243SOL    HW254358   4.042   3.035  20.782
14244SOL     OW54359   0.523   1.019  27.851
14244SOL    HW154360   0.468   1.049  27.778
14244SOL    HW254361   0.465   1.024  27.928
14245SOL     OW54362   2.087   2.848  25.102
14245SOL    HW154363   2.009   2.845  25.046
14245SOL    HW254364   2.152   2.796  25.054
14246SOL     OW54365   2.730   1.424   0.938
14246SOL    HW154366   2.656   1.453   0.885
14246SOL    HW254367   2.755   1.340   0.901
14247SOL     OW54368   2.269   1.018   2.076
14247SOL    HW154369   2.218   0.981   2.004
14247SOL    HW254370   2.355   0.977   2.069
14248SOL     OW54371   4.549   4.468   5.939
14248SOL    HW154372   4.508   4.436   6.019
14248SOL    HW254373   4.475   4.490   5.882
14249SOL     OW54374   4.275   1.342   2.972
14249SOL    HW154375   4.275   1.246   2.971
14249SOL    HW254376   4.200   1.366   2.918
14250SOL     OW54377   3.936   2.746  20.769
14250SOL    HW154378   3.955   2.685  20.840
14250SOL    HW254379   3.989   2.716  20.695
14251SOL     OW54380   3.239   1.359   6.493
14251SOL    HW154381   3.210   1.450   6.497
14251SOL    HW254382   3.301   1.357   6.421
14252SOL     OW54383   3.666   1.817   0.531
14252SOL    HW154384   3.700   1.882   0.470
14252SOL    HW254385   3.583   1.788   0.492
14253SOL     OW54386   4.427   4.164  23.544
14253SOL    HW154387   4.459   4.161  23.453
14253SOL    HW254388   4.506   4.173  23.597
14254SOL     OW54389   3.774   2.059   6.310
14254SOL    HW154390   3.801   2.151   6.309
14254SOL    HW254391   3.738   2.044   6.223
14255SOL     OW54392   4.754   2.680   7.342
14255SOL    HW154393   4.729   2.616   7.408
14255SOL    HW254394   4.777   2.758   7.393
14256SOL     OW54395   1.367   2.117  27.180
14256SOL    HW154396   1.419   2.197  27.167
14256SOL    HW254397   1.283   2.148  27.215
14257SOL     OW54398   3.205   2.687   1.877
14257SOL    HW154399   3.213   2.593   1.893
14257SOL    HW254400   3.119   2.710   1.912
14258SOL     OW54401   3.449   3.410  20.555
14258SOL    HW154402   3.542   3.390  20.554
14258SOL    HW254403   3.412   3.357  20.484
14259SOL     OW54404   0.175   2.514  23.954
14259SOL    HW154405   0.177   2.604  23.922
14259SOL    HW254406   0.095   2.508  24.006
14260SOL     OW54407   2.821   4.005  22.506
14260SOL    HW154408   2.772   4.069  22.558
14260SOL    HW254409   2.911   4.037  22.506
14261SOL     OW54410   1.041   3.905   1.339
14261SOL    HW154411   1.060   3.988   1.384
14261SOL    HW254412   1.128   3.872   1.314
14262SOL     OW54413   0.810   4.495   2.548
14262SOL    HW154414   0.901   4.511   2.524
14262SOL    HW254415   0.786   4.415   2.501
14263SOL     OW54416   2.528   2.521  23.468
14263SOL    HW154417   2.614   2.547  23.499
14263SOL    HW254418   2.468   2.586  23.506
14264SOL     OW54419   0.652   3.942  19.383
14264SOL    HW154420   0.596   3.896  19.445
14264SOL    HW254421   0.615   4.030  19.377
14265SOL     OW54422   2.490   4.086   2.194
14265SOL    HW154423   2.409   4.091   2.245
14265SOL    HW254424   2.470   4.134   2.113
14266SOL     OW54425   2.742   4.759   9.528
14266SOL    HW154426   2.663   0.020   9.562
14266SOL    HW254427   2.812   0.040   9.542
14267SOL     OW54428   0.138   0.145  26.762
14267SOL    HW154429   0.056   0.192  26.749
14267SOL    HW254430   0.116   0.053  26.747
14268SOL     OW54431   0.602   0.498  13.524
14268SOL    HW154432   0.536   0.501  13.593
14268SOL    HW254433   0.682   0.530  13.565
14269SOL     OW54434   0.676   1.371   0.026
14269SOL    HW154435   0.706   1.460   0.004
14269SOL    HW254436   0.678   1.325  28.473
14270SOL     OW54437   1.918   2.051  11.832
14270SOL    HW154438   1.829   2.063  11.800
14270SOL    HW254439   1.951   1.975  11.783
14271SOL     OW54440   0.150   0.596  23.210
14271SOL    HW154441   0.153   0.508  23.171
14271SOL    HW254442   0.226   0.599  23.267
14272SOL     OW54443   0.154   2.607  20.783
14272SOL    HW154444   0.107   2.526  20.765
14272SOL    HW254445   0.189   2.635  20.699
14273SOL     OW54446   1.298   3.940   5.047
14273SOL    HW154447   1.340   3.909   4.967
14273SOL    HW254448   1.359   3.916   5.117
14274SOL     OW54449   3.657   2.678  22.153
14274SOL    HW154450   3.584   2.688  22.215
14274SOL    HW254451   3.652   2.756  22.098
14275SOL     OW54452   2.601   3.662   2.119
14275SOL    HW154453   2.628   3.747   2.084
14275SOL    HW254454   2.506   3.661   2.110
14276SOL     OW54455   0.638   1.550  10.271
14276SOL    HW154456   0.685   1.609  10.331
14276SOL    HW254457   0.697   1.476  10.258
14277SOL     OW54458   2.306   2.498  21.819
14277SOL    HW154459   2.304   2.585  21.780
14277SOL    HW254460   2.339   2.511  21.907
14278SOL     OW54461   1.106   2.521   2.642
14278SOL    HW154462   1.056   2.500   2.562
14278SOL    HW254463   1.090   2.614   2.655
14279SOL     OW54464   2.376   4.191  20.755
14279SOL    HW154465   2.356   4.170  20.664
14279SOL    HW254466   2.357   4.285  20.763
14280SOL     OW54467   0.400   3.455  23.177
14280SOL    HW154468   0.416   3.370  23.137
14280SOL    HW254469   0.385   3.514  23.103
14281SOL     OW54470   3.752   2.692   4.999
14281SOL    HW154471   3.712   2.759   4.944
14281SOL    HW254472   3.806   2.640   4.938
14282SOL     OW54473   2.621   1.956  24.264
14282SOL    HW154474   2.570   1.986  24.189
14282SOL    HW254475   2.708   1.940  24.228
14283SOL     OW54476   2.714   2.360  28.355
14283SOL    HW154477   2.686   2.434  28.301
14283SOL    HW254478   2.716   2.285  28.295
14284SOL     OW54479   1.891   3.957  20.289
14284SOL    HW154480   1.945   3.878  20.281
14284SOL    HW254481   1.936   4.010  20.354
14285SOL     OW54482   1.116   1.731  26.337
14285SOL    HW154483   1.027   1.697  26.345
14285SOL    HW254484   1.136   1.766  26.424
14286SOL     OW54485   0.075   0.106  28.064
14286SOL    HW154486   0.002   0.125  28.005
14286SOL    HW254487   0.033   0.089  28.148
14287SOL     OW54488   0.539   0.027   8.639
14287SOL    HW154489   0.445   0.011   8.629
14287SOL    HW254490   0.547   0.123   8.634
14288SOL     OW54491   1.834   4.374   6.441
14288SOL    HW154492   1.794   4.333   6.517
14288SOL    HW254493   1.845   4.302   6.378
14289SOL     OW54494   2.634   3.026  10.482
14289SOL    HW154495   2.703   3.067  10.534
14289SOL    HW254496   2.679   2.957  10.432
14290SOL     OW54497   4.732   4.346  22.969
14290SOL    HW154498   4.663   4.398  22.927
14290SOL    HW254499   4.731   4.263  22.921
14291SOL     OW54500   1.059   2.461  10.564
14291SOL    HW154501   1.154   2.459  10.554
14291SOL    HW254502   1.038   2.382  10.613
14292SOL     OW54503   4.274   0.829   3.066
14292SOL    HW154504   4.272   0.862   3.156
14292SOL    HW254505   4.203   0.764   3.063
14293SOL     OW54506   2.894   0.079  13.311
14293SOL    HW154507   2.831   0.151  13.302
14293SOL    HW254508   2.966   0.117  13.362
14294SOL     OW54509   0.255   3.273  26.372
14294SOL    HW154510   0.202   3.315  26.304
14294SOL    HW254511   0.341   3.261  26.331
14295SOL     OW54512   3.072   2.818  21.351
14295SOL    HW154513   3.050   2.906  21.319
14295SOL    HW254514   3.156   2.798  21.309
14296SOL     OW54515   4.716   1.708   2.562
14296SOL    HW154516   4.696   1.752   2.479
14296SOL    HW254517   4.702   1.776   2.629
14297SOL     OW54518   3.804   0.026   5.716
14297SOL    HW154519   3.785   4.714   5.716
14297SOL    HW254520   3.767   0.058   5.634
14298SOL     OW54521   2.373   0.975  21.585
14298SOL    HW154522   2.416   0.990  21.669
14298SOL    HW254523   2.358   1.063  21.550
14299SOL     OW54524   0.896   1.733  10.859
14299SOL    HW154525   0.955   1.807  10.862
14299SOL    HW254526   0.893   1.708  10.767
14300SOL     OW54527   3.893   1.277  28.123
14300SOL    HW154528   3.884   1.349  28.186
14300SOL    HW254529   3.965   1.224  28.157
14301SOL     OW54530   0.145   3.191   5.917
14301SOL    HW154531   0.112   3.222   6.001
14301SOL    HW254532   0.235   3.164   5.934
14302SOL     OW54533   4.345   0.310   0.433
14302SOL    HW154534   4.267   0.361   0.452
14302SOL    HW254535   4.319   0.253   0.361
14303SOL     OW54536   2.195   2.462   3.954
14303SOL    HW154537   2.156   2.538   3.998
14303SOL    HW254538   2.161   2.467   3.865
14304SOL     OW54539   2.582   3.416   5.298
14304SOL    HW154540   2.635   3.490   5.327
14304SOL    HW254541   2.585   3.354   5.371
14305SOL     OW54542   4.432   4.575  24.522
14305SOL    HW154543   4.397   4.595  24.435
14305SOL    HW254544   4.355   4.578  24.579
14306SOL     OW54545   4.460   4.410   8.618
14306SOL    HW154546   4.441   4.501   8.599
14306SOL    HW254547   4.533   4.388   8.560
14307SOL     OW54548   0.194   4.101   2.859
14307SOL    HW154549   0.249   4.168   2.820
14307SOL    HW254550   0.198   4.118   2.953
14308SOL     OW54551   2.445   3.448  21.113
14308SOL    HW154552   2.393   3.527  21.102
14308SOL    HW254553   2.533   3.479  21.133
14309SOL     OW54554   3.080   1.909  18.006
14309SOL    HW154555   2.995   1.930  17.967
14309SOL    HW254556   3.105   1.987  18.054
14310SOL     OW54557   1.523   1.233   3.089
14310SOL    HW154558   1.580   1.300   3.051
14310SOL    HW254559   1.444   1.280   3.116
14311SOL     OW54560   3.398   4.462   5.774
14311SOL    HW154561   3.418   4.370   5.791
14311SOL    HW254562   3.302   4.464   5.764
14312SOL     OW54563   2.088   1.034  26.221
14312SOL    HW154564   2.127   1.091  26.156
14312SOL    HW254565   2.151   0.963  26.232
14313SOL     OW54566   1.554   3.328   8.737
14313SOL    HW154567   1.565   3.341   8.643
14313SOL    HW254568   1.488   3.259   8.744
14314SOL     OW54569   2.867   0.277   9.368
14314SOL    HW154570   2.936   0.228   9.323
14314SOL    HW254571   2.911   0.351   9.408
14315SOL     OW54572   2.571   4.500   6.287
14315SOL    HW154573   2.495   4.443   6.281
14315SOL    HW254574   2.557   4.552   6.366
14316SOL     OW54575   4.258   3.406   0.898
14316SOL    HW154576   4.210   3.488   0.909
14316SOL    HW254577   4.306   3.394   0.980
14317SOL     OW54578   1.904   4.442  22.974
14317SOL    HW154579   1.853   4.453  23.054
14317SOL    HW254580   1.989   4.481  22.995
14318SOL     OW54581   1.609   3.450   0.516
14318SOL    HW154582   1.570   3.429   0.601
14318SOL    HW254583   1.573   3.386   0.456
14319SOL     OW54584   2.205   2.486  26.827
14319SOL    HW154585   2.274   2.479  26.893
14319SOL    HW254586   2.131   2.439  26.864
14320SOL     OW54587   3.073   1.415  26.799
14320SOL    HW154588   3.060   1.406  26.894
14320SOL    HW254589   3.130   1.491  26.790
14321SOL     OW54590   0.711   0.058   4.926
14321SOL    HW154591   0.630   0.102   4.952
14321SOL    HW254592   0.687   0.009   4.847
14322SOL     OW54593   1.541   1.392   2.744
14322SOL    HW154594   1.485   1.316   2.724
14322SOL    HW254595   1.483   1.454   2.788
14323SOL     OW54596   3.370   1.754  12.044
14323SOL    HW154597   3.334   1.703  12.116
14323SOL    HW254598   3.462   1.766  12.067
14324SOL     OW54599   0.520   0.102   1.880
14324SOL    HW154600   0.446   0.047   1.905
14324SOL    HW254601   0.561   0.125   1.963
14325SOL     OW54602   1.887   3.349   5.107
14325SOL    HW154603   1.929   3.356   5.021
14325SOL    HW254604   1.959   3.329   5.166
14326SOL     OW54605   1.176   0.096   2.844
14326SOL    HW154606   1.098   0.095   2.789
14326SOL    HW254607   1.218   0.011   2.829
14327SOL     OW54608   2.369   2.396   5.822
14327SOL    HW154609   2.405   2.474   5.864
14327SOL    HW254610   2.362   2.332   5.893
14328SOL     OW54611   3.236   0.911  21.909
14328SOL    HW154612   3.218   0.968  21.834
14328SOL    HW254613   3.159   0.854  21.915
14329SOL     OW54614   0.010   1.580  23.947
14329SOL    HW154615   4.739   1.553  24.021
14329SOL    HW254616   0.098   1.590  23.983
14330SOL     OW54617   0.067   0.960  23.224
14330SOL    HW154618   0.123   0.981  23.150
14330SOL    HW254619   4.776   1.022  23.218
14331SOL     OW54620   3.293   0.280  23.682
14331SOL    HW154621   3.287   0.376  23.683
14331SOL    HW254622   3.235   0.251  23.752
14332SOL     OW54623   4.338   0.536  26.450
14332SOL    HW154624   4.320   0.568  26.539
14332SOL    HW254625   4.351   0.616  26.398
14333SOL     OW54626   2.879   3.574  22.744
14333SOL    HW154627   2.945   3.511  22.717
14333SOL    HW254628   2.878   3.640  22.675
14334SOL     OW54629   3.808   1.877  25.297
14334SOL    HW154630   3.765   1.883  25.382
14334SOL    HW254631   3.753   1.929  25.239
14335SOL     OW54632   4.368   0.398  18.570
14335SOL    HW154633   4.415   0.340  18.509
14335SOL    HW254634   4.437   0.449  18.613
14336SOL     OW54635   0.086   3.298  17.901
14336SOL    HW154636   0.181   3.309  17.900
14336SOL    HW254637   0.071   3.224  17.958
14337SOL     OW54638   3.879   1.584   8.570
14337SOL    HW154639   3.915   1.545   8.650
14337SOL    HW254640   3.915   1.531   8.499
14338SOL     OW54641   2.969   2.320  10.136
14338SOL    HW154642   3.057   2.316  10.173
14338SOL    HW254643   2.912   2.286  10.205
14339SOL     OW54644   1.840   4.372   4.621
14339SOL    HW154645   1.838   4.279   4.641
14339SOL    HW254646   1.924   4.385   4.577
14340SOL     OW54647   1.647   0.776   1.180
14340SOL    HW154648   1.595   0.848   1.142
14340SOL    HW254649   1.583   0.722   1.226
14341SOL     OW54650   1.279   1.726  19.020
14341SOL    HW154651   1.207   1.781  18.989
14341SOL    HW254652   1.242   1.675  19.092
14342SOL     OW54653   2.543   1.299  20.640
14342SOL    HW154654   2.551   1.382  20.688
14342SOL    HW254655   2.624   1.253  20.658
14343SOL     OW54656   3.800   2.974  26.883
14343SOL    HW154657   3.881   2.994  26.930
14343SOL    HW254658   3.750   3.056  26.884
14344SOL     OW54659   2.075   4.625   1.825
14344SOL    HW154660   2.099   4.553   1.767
14344SOL    HW254661   1.981   4.636   1.811
14345SOL     OW54662   1.412   2.362  27.741
14345SOL    HW154663   1.368   2.324  27.666
14345SOL    HW254664   1.468   2.292  27.774
14346SOL     OW54665   0.085   3.458  20.995
14346SOL    HW154666   0.055   3.516  20.925
14346SOL    HW254667   0.047   3.496  21.074
14347SOL     OW54668   3.250   3.815   8.449
14347SOL    HW154669   3.310   3.741   8.457
14347SOL    HW254670   3.170   3.786   8.494
14348SOL     OW54671   3.167   1.810  26.149
14348SOL    HW154672   3.244   1.777  26.103
14348SOL    HW254673   3.173   1.771  26.236
14349SOL     OW54674   3.092   4.564  24.137
14349SOL    HW154675   3.126   4.517  24.061
14349SOL    HW254676   3.031   4.629  24.100
14350SOL     OW54677   3.510   2.425   1.375
14350SOL    HW154678   3.525   2.480   1.298
14350SOL    HW254679   3.488   2.339   1.339
14351SOL     OW54680   0.980   3.230  10.412
14351SOL    HW154681   0.925   3.304  10.439
14351SOL    HW254682   1.009   3.253  10.324
14352SOL     OW54683   3.315   1.893  12.385
14352SOL    HW154684   3.295   1.804  12.356
14352SOL    HW254685   3.293   1.894  12.478
14353SOL     OW54686   4.655   0.286  20.647
14353SOL    HW154687   4.742   0.318  20.669
14353SOL    HW254688   4.632   0.334  20.567
14354SOL     OW54689   1.406   4.603   3.858
14354SOL    HW154690   1.430   4.570   3.772
14354SOL    HW254691   1.326   4.556   3.881
14355SOL     OW54692   3.639   3.588   8.000
14355SOL    HW154693   3.706   3.526   8.030
14355SOL    HW254694   3.643   3.584   7.905
14356SOL     OW54695   4.633   2.404  21.361
14356SOL    HW154696   4.603   2.322  21.401
14356SOL    HW254697   4.689   2.444  21.427
14357SOL     OW54698   2.656   0.623   3.907
14357SOL    HW154699   2.730   0.650   3.962
14357SOL    HW254700   2.579   0.638   3.962
14358SOL     OW54701   4.618   3.544   8.919
14358SOL    HW154702   4.700   3.540   8.968
14358SOL    HW254703   4.558   3.489   8.969
14359SOL     OW54704   0.681   1.411  18.478
14359SOL    HW154705   0.767   1.398  18.439
14359SOL    HW254706   0.694   1.479  18.544
14360SOL     OW54707   4.765   4.265   5.393
14360SOL    HW154708   0.063   4.244   5.345
14360SOL    HW254709   0.012   4.319   5.466
14361SOL     OW54710   1.269   1.009   3.035
14361SOL    HW154711   1.361   1.006   3.008
14361SOL    HW254712   1.272   1.007   3.131
14362SOL     OW54713   0.947   3.593   7.190
14362SOL    HW154714   0.893   3.669   7.167
14362SOL    HW254715   1.034   3.616   7.157
14363SOL     OW54716   4.371   1.301  17.222
14363SOL    HW154717   4.383   1.374  17.162
14363SOL    HW254718   4.310   1.243  17.177
14364SOL     OW54719   1.844   0.736   0.110
14364SOL    HW154720   1.761   0.709   0.072
14364SOL    HW254721   1.820   0.799   0.178
14365SOL     OW54722   0.659   3.905   2.269
14365SOL    HW154723   0.724   3.953   2.218
14365SOL    HW254724   0.578   3.913   2.220
14366SOL     OW54725   2.053   0.280  28.215
14366SOL    HW154726   2.023   0.311  28.130
14366SOL    HW254727   2.026   0.188  28.219
14367SOL     OW54728   2.323   4.211  10.549
14367SOL    HW154729   2.229   4.200  10.559
14367SOL    HW254730   2.339   4.303  10.570
14368SOL     OW54731   2.438   2.858   2.677
14368SOL    HW154732   2.524   2.896   2.693
14368SOL    HW254733   2.402   2.842   2.765
14369SOL     OW54734   1.691   2.551  23.775
14369SOL    HW154735   1.654   2.632  23.810
14369SOL    HW254736   1.644   2.535  23.694
14370SOL     OW54737   0.006   0.448   0.718
14370SOL    HW154738   0.084   0.461   0.772
14370SOL    HW254739   4.759   0.537   0.697
14371SOL     OW54740   2.749   4.101   6.935
14371SOL    HW154741   2.674   4.043   6.946
14371SOL    HW254742   2.817   4.064   6.990
14372SOL     OW54743   4.325   2.249   2.304
14372SOL    HW154744   4.295   2.262   2.214
14372SOL    HW254745   4.345   2.155   2.308
14373SOL     OW54746   3.071   2.780   5.096
14373SOL    HW154747   3.139   2.845   5.080
14373SOL    HW254748   3.111   2.696   5.075
14374SOL     OW54749   2.120   4.431   5.941
14374SOL    HW154750   2.149   4.341   5.959
14374SOL    HW254751   2.171   4.485   6.001
14375SOL     OW54752   2.991   2.301  23.054
14375SOL    HW154753   2.898   2.287  23.039
14375SOL    HW254754   2.996   2.338  23.142
14376SOL     OW54755   2.047   1.751  26.359
14376SOL    HW154756   2.037   1.718  26.448
14376SOL    HW254757   2.022   1.843  26.364
14377SOL     OW54758   0.819   1.808  22.092
14377SOL    HW154759   0.850   1.890  22.053
14377SOL    HW254760   0.758   1.773  22.028
14378SOL     OW54761   1.388   3.276  20.430
14378SOL    HW154762   1.477   3.242  20.433
14378SOL    HW254763   1.398   3.370  20.415
14379SOL     OW54764   0.799   3.494   1.633
14379SOL    HW154765   0.823   3.523   1.721
14379SOL    HW254766   0.705   3.512   1.627
14380SOL     OW54767   1.312   0.189   3.535
14380SOL    HW154768   1.310   0.124   3.606
14380SOL    HW254769   1.321   0.273   3.580
14381SOL     OW54770   0.319   4.235   5.972
14381SOL    HW154771   0.367   4.187   6.040
14381SOL    HW254772   0.235   4.256   6.011
14382SOL     OW54773   4.263   1.960  22.017
14382SOL    HW154774   4.307   1.914  22.089
14382SOL    HW254775   4.255   1.894  21.948
14383SOL     OW54776   1.146   4.106   1.524
14383SOL    HW154777   1.164   4.200   1.525
14383SOL    HW254778   1.098   4.090   1.605
14384SOL     OW54779   0.828   0.237   3.194
14384SOL    HW154780   0.843   0.312   3.135
14384SOL    HW254781   0.837   0.160   3.138
14385SOL     OW54782   2.637   2.573  24.716
14385SOL    HW154783   2.623   2.479  24.732
14385SOL    HW254784   2.562   2.599  24.663
14386SOL     OW54785   0.298   1.986   3.497
14386SOL    HW154786   0.229   2.047   3.523
14386SOL    HW254787   0.320   2.010   3.407
14387SOL     OW54788   1.511   3.157   1.018
14387SOL    HW154789   1.518   3.099   1.093
14387SOL    HW254790   1.450   3.226   1.046
14388SOL     OW54791   3.457   2.216  22.885
14388SOL    HW154792   3.457   2.310  22.869
14388SOL    HW254793   3.370   2.187  22.856
14389SOL     OW54794   3.265   3.227  25.712
14389SOL    HW154795   3.198   3.197  25.773
14389SOL    HW254796   3.307   3.147  25.680
14390SOL     OW54797   3.560   4.704   1.106
14390SOL    HW154798   3.605   4.653   1.173
14390SOL    HW254799   3.583   0.012   1.125
14391SOL     OW54800   2.938   1.228   8.661
14391SOL    HW154801   2.950   1.310   8.709
14391SOL    HW254802   2.948   1.159   8.727
14392SOL     OW54803   4.402   2.441  27.027
14392SOL    HW154804   4.416   2.494  26.948
14392SOL    HW254805   4.482   2.388  27.034
14393SOL     OW54806   4.115   0.364  25.934
14393SOL    HW154807   4.144   0.411  25.856
14393SOL    HW254808   4.019   0.370  25.931
14394SOL     OW54809   1.793   4.487  18.659
14394SOL    HW154810   1.868   4.536  18.694
14394SOL    HW254811   1.793   4.507  18.565
14395SOL     OW54812   3.122   1.995  19.455
14395SOL    HW154813   3.215   1.983  19.433
14395SOL    HW254814   3.095   2.070  19.402
14396SOL     OW54815   0.721   3.727  10.854
14396SOL    HW154816   0.663   3.735  10.779
14396SOL    HW254817   0.776   3.651  10.833
14397SOL     OW54818   0.421   4.255   3.507
14397SOL    HW154819   0.381   4.318   3.567
14397SOL    HW254820   0.507   4.291   3.487
14398SOL     OW54821   1.935   4.550  26.495
14398SOL    HW154822   1.976   4.523  26.577
14398SOL    HW254823   1.948   4.477  26.435
14399SOL     OW54824   1.389   4.176  22.739
14399SOL    HW154825   1.371   4.134  22.823
14399SOL    HW254826   1.381   4.105  22.674
14400SOL     OW54827   0.011   0.883   6.124
14400SOL    HW154828   0.009   0.789   6.111
14400SOL    HW254829   0.023   0.895   6.218
14401SOL     OW54830   1.829   3.162   3.019
14401SOL    HW154831   1.881   3.081   3.020
14401SOL    HW254832   1.790   3.164   2.932
14402SOL     OW54833   3.517   2.729  20.138
14402SOL    HW154834   3.582   2.746  20.069
14402SOL    HW254835   3.495   2.637  20.127
14403SOL     OW54836   1.742   4.343   3.552
14403SOL    HW154837   1.794   4.406   3.601
14403SOL    HW254838   1.756   4.367   3.460
14404SOL     OW54839   3.462   4.728  23.263
14404SOL    HW154840   3.546   4.770  23.284
14404SOL    HW254841   3.396   0.004  23.301
14405SOL     OW54842   1.474   2.579  22.559
14405SOL    HW154843   1.394   2.632  22.560
14405SOL    HW254844   1.529   2.620  22.493
14406SOL     OW54845   1.746   0.240  28.310
14406SOL    HW154846   1.811   0.310  28.322
14406SOL    HW254847   1.701   0.262  28.229
14407SOL     OW54848   2.310   3.797   4.459
14407SOL    HW154849   2.308   3.752   4.375
14407SOL    HW254850   2.303   3.728   4.524
14408SOL     OW54851   2.173   2.592  24.691
14408SOL    HW154852   2.223   2.616  24.614
14408SOL    HW254853   2.081   2.606  24.666
14409SOL     OW54854   2.633   0.830   3.662
14409SOL    HW154855   2.665   0.785   3.741
14409SOL    HW254856   2.554   0.875   3.690
14410SOL     OW54857   2.127   3.698   7.998
14410SOL    HW154858   2.074   3.705   7.918
14410SOL    HW254859   2.212   3.733   7.973
14411SOL     OW54860   0.844   1.610  25.851
14411SOL    HW154861   0.806   1.662  25.780
14411SOL    HW254862   0.926   1.577  25.814
14412SOL     OW54863   1.058   1.635   7.345
14412SOL    HW154864   1.131   1.582   7.312
14412SOL    HW254865   1.068   1.633   7.440
14413SOL     OW54866   3.216   2.303  21.782
14413SOL    HW154867   3.124   2.286  21.760
14413SOL    HW254868   3.232   2.253  21.861
14414SOL     OW54869   1.598   1.846   0.117
14414SOL    HW154870   1.588   1.774   0.179
14414SOL    HW254871   1.690   1.869   0.121
14415SOL     OW54872   1.762   2.269   2.132
14415SOL    HW154873   1.854   2.282   2.156
14415SOL    HW254874   1.763   2.202   2.063
14416SOL     OW54875   3.427   2.542  21.362
14416SOL    HW154876   3.373   2.609  21.321
14416SOL    HW254877   3.370   2.466  21.368
14417SOL     OW54878   1.508   2.853   9.870
14417SOL    HW154879   1.447   2.879   9.939
14417SOL    HW254880   1.483   2.762   9.850
14418SOL     OW54881   2.779   3.494  19.774
14418SOL    HW154882   2.784   3.508  19.679
14418SOL    HW254883   2.847   3.429  19.791
14419SOL     OW54884   1.950   3.467   7.062
14419SOL    HW154885   1.992   3.479   7.147
14419SOL    HW254886   1.996   3.529   7.004
14420SOL     OW54887   1.787   4.208  22.089
14420SOL    HW154888   1.763   4.295  22.057
14420SOL    HW254889   1.878   4.197  22.063
14421SOL     OW54890   2.827   2.681   3.801
14421SOL    HW154891   2.903   2.725   3.841
14421SOL    HW254892   2.775   2.651   3.875
14422SOL     OW54893   2.654   4.645   1.943
14422SOL    HW154894   2.658   4.622   2.035
14422SOL    HW254895   2.604   4.727   1.940
14423SOL     OW54896   0.986   3.724   9.884
14423SOL    HW154897   1.059   3.785   9.896
14423SOL    HW254898   0.909   3.779   9.873
14424SOL     OW54899   1.243   0.030   0.273
14424SOL    HW154900   1.309   0.099   0.264
14424SOL    HW254901   1.278   4.755   0.341
14425SOL     OW54902   2.440   4.386  10.271
14425SOL    HW154903   2.414   4.404  10.361
14425SOL    HW254904   2.512   4.446  10.253
14426SOL     OW54905   1.297   3.992   4.500
14426SOL    HW154906   1.255   3.989   4.414
14426SOL    HW254907   1.343   3.909   4.508
14427SOL     OW54908   3.160   3.681  26.610
14427SOL    HW154909   3.153   3.615  26.540
14427SOL    HW254910   3.155   3.765  26.564
14428SOL     OW54911   2.772   2.629  27.551
14428SOL    HW154912   2.818   2.567  27.493
14428SOL    HW254913   2.833   2.702  27.560
14429SOL     OW54914   1.444   4.057   2.489
14429SOL    HW154915   1.416   3.984   2.434
14429SOL    HW254916   1.535   4.038   2.511
14430SOL     OW54917   0.153   0.283  23.681
14430SOL    HW154918   0.110   0.335  23.613
14430SOL    HW254919   0.114   0.196  23.673
14431SOL     OW54920   0.458   3.396   7.685
14431SOL    HW154921   0.485   3.458   7.752
14431SOL    HW254922   0.474   3.442   7.602
14432SOL     OW54923   0.146   2.999   7.182
14432SOL    HW154924   0.134   2.946   7.261
14432SOL    HW254925   0.172   2.936   7.115
14433SOL     OW54926   4.481   3.881  20.987
14433SOL    HW154927   4.483   3.791  21.019
14433SOL    HW254928   4.392   3.911  21.006
14434SOL     OW54929   1.606   0.113  20.796
14434SOL    HW154930   1.637   0.049  20.860
14434SOL    HW254931   1.674   0.113  20.728
14435SOL     OW54932   0.841   0.578   9.158
14435SOL    HW154933   0.849   0.518   9.232
14435SOL    HW254934   0.752   0.612   9.164
14436SOL     OW54935   4.383   0.662  12.659
14436SOL    HW154936   4.446   0.593  12.681
14436SOL    HW254937   4.311   0.650  12.721
14437SOL     OW54938   4.103   2.509   3.903
14437SOL    HW154939   4.127   2.426   3.944
14437SOL    HW254940   4.167   2.572   3.938
14438SOL     OW54941   2.847   1.482   1.998
14438SOL    HW154942   2.773   1.516   1.947
14438SOL    HW254943   2.810   1.466   2.085
14439SOL     OW54944   3.149   4.398  23.024
14439SOL    HW154945   3.194   4.359  23.099
14439SOL    HW254946   3.186   4.352  22.948
14440SOL     OW54947   3.488   2.461   3.245
14440SOL    HW154948   3.512   2.499   3.329
14440SOL    HW254949   3.545   2.504   3.182
14441SOL     OW54950   2.263   1.614  12.136
14441SOL    HW154951   2.199   1.636  12.204
14441SOL    HW254952   2.273   1.695  12.086
14442SOL     OW54953   0.666   1.150   1.841
14442SOL    HW154954   0.594   1.128   1.781
14442SOL    HW254955   0.733   1.085   1.822
14443SOL     OW54956   0.618   4.631  11.831
14443SOL    HW154957   0.637   4.550  11.783
14443SOL    HW254958   0.580   4.689  11.766
14444SOL     OW54959   2.839   3.363   7.935
14444SOL    HW154960   2.878   3.405   8.012
14444SOL    HW254961   2.761   3.414   7.916
14445SOL     OW54962   2.869   4.164   9.120
14445SOL    HW154963   2.951   4.145   9.074
14445SOL    HW254964   2.871   4.259   9.134
14446SOL     OW54965   2.549   3.597  24.900
14446SOL    HW154966   2.570   3.561  24.986
14446SOL    HW254967   2.534   3.690  24.916
14447SOL     OW54968   3.067   3.985  13.899
14447SOL    HW154969   3.076   3.954  13.989
14447SOL    HW254970   3.048   4.078  13.907
14448SOL     OW54971   2.603   2.720  12.002
14448SOL    HW154972   2.612   2.654  12.071
14448SOL    HW254973   2.575   2.799  12.048
14449SOL     OW54974   0.855   0.853  12.185
14449SOL    HW154975   0.914   0.779  12.174
14449SOL    HW254976   0.796   0.826  12.255
14450SOL     OW54977   1.286   3.260   2.285
14450SOL    HW154978   1.234   3.186   2.317
14450SOL    HW254979   1.226   3.334   2.285
14451SOL     OW54980   1.813   0.399   6.586
14451SOL    HW154981   1.766   0.476   6.552
14451SOL    HW254982   1.828   0.344   6.509
14452SOL     OW54983   3.181   2.744  26.689
14452SOL    HW154984   3.177   2.740  26.594
14452SOL    HW254985   3.092   2.769  26.716
14453SOL     OW54986   2.802   4.414  12.822
14453SOL    HW154987   2.883   4.408  12.873
14453SOL    HW254988   2.791   4.508  12.805
14454SOL     OW54989   0.100   0.423   3.863
14454SOL    HW154990   0.067   0.397   3.949
14454SOL    HW254991   0.195   0.431   3.876
14455SOL     OW54992   4.335   3.917  19.273
14455SOL    HW154993   4.416   3.866  19.273
14455SOL    HW254994   4.303   3.910  19.183
14456SOL     OW54995   3.515   3.154   9.482
14456SOL    HW154996   3.544   3.244   9.500
14456SOL    HW254997   3.586   3.099   9.514
14457SOL     OW54998   3.312   2.528  28.327
14457SOL    HW154999   3.278   2.492  28.409
14457SOL    HW255000   3.237   2.526  28.268
14458SOL     OW55001   1.071   4.764  12.802
14458SOL    HW155002   1.005   4.697  12.786
14458SOL    HW255003   1.077   4.770  12.897
14459SOL     OW55004   2.301   0.812   7.177
14459SOL    HW155005   2.206   0.817   7.190
14459SOL    HW255006   2.328   0.903   7.163
14460SOL     OW55007   1.395   0.614  24.105
14460SOL    HW155008   1.480   0.571  24.095
14460SOL    HW255009   1.380   0.615  24.200
14461SOL     OW55010   3.640   3.246  22.192
14461SOL    HW155011   3.604   3.259  22.104
14461SOL    HW255012   3.712   3.184  22.180
14462SOL     OW55013   2.101   1.786   4.661
14462SOL    HW155014   2.009   1.812   4.653
14462SOL    HW255015   2.147   1.868   4.679
14463SOL     OW55016   2.015   0.413  13.626
14463SOL    HW155017   1.949   0.470  13.666
14463SOL    HW255018   2.031   0.346  13.693
14464SOL     OW55019   2.878   4.235   2.829
14464SOL    HW155020   2.847   4.156   2.873
14464SOL    HW255021   2.913   4.204   2.745
14465SOL     OW55022   0.859   4.199  21.246
14465SOL    HW155023   0.954   4.192  21.253
14465SOL    HW255024   0.826   4.158  21.327
14466SOL     OW55025   2.530   0.201  14.072
14466SOL    HW155026   2.540   0.259  13.996
14466SOL    HW255027   2.440   0.169  14.066
14467SOL     OW55028   1.609   1.909  27.608
14467SOL    HW155029   1.573   1.841  27.664
14467SOL    HW255030   1.703   1.903  27.620
14468SOL     OW55031   0.691   1.108  12.355
14468SOL    HW155032   0.648   1.172  12.411
14468SOL    HW255033   0.779   1.099  12.392
14469SOL     OW55034   1.495   1.210   4.575
14469SOL    HW155035   1.589   1.193   4.583
14469SOL    HW255036   1.485   1.301   4.604
14470SOL     OW55037   0.805   0.470   3.995
14470SOL    HW155038   0.868   0.410   4.035
14470SOL    HW255039   0.763   0.418   3.926
14471SOL     OW55040   3.333   2.741   8.573
14471SOL    HW155041   3.322   2.750   8.478
14471SOL    HW255042   3.408   2.683   8.584
14472SOL     OW55043   1.896   1.235  26.228
14472SOL    HW155044   1.954   1.159  26.230
14472SOL    HW255045   1.852   1.235  26.313
14473SOL     OW55046   1.617   3.147   9.426
14473SOL    HW155047   1.679   3.100   9.482
14473SOL    HW255048   1.533   3.104   9.442
14474SOL     OW55049   1.200   0.700  10.573
14474SOL    HW155050   1.208   0.697  10.477
14474SOL    HW255051   1.116   0.659  10.591
14475SOL     OW55052   4.351   1.591  27.134
14475SOL    HW155053   4.445   1.573  27.133
14475SOL    HW255054   4.340   1.654  27.205
14476SOL     OW55055   4.041   1.005   3.537
14476SOL    HW155056   4.121   0.952   3.540
14476SOL    HW255057   3.982   0.955   3.480
14477SOL     OW55058   1.657   3.937  22.163
14477SOL    HW155059   1.590   3.915  22.098
14477SOL    HW255060   1.708   4.007  22.122
14478SOL     OW55061   1.187   3.312  22.909
14478SOL    HW155062   1.198   3.231  22.859
14478SOL    HW255063   1.122   3.291  22.975
14479SOL     OW55064   3.586   3.065  25.582
14479SOL    HW155065   3.534   3.090  25.658
14479SOL    HW255066   3.540   3.105  25.508
14480SOL     OW55067   2.688   0.993   4.479
14480SOL    HW155068   2.613   0.954   4.435
14480SOL    HW255069   2.661   1.082   4.499
14481SOL     OW55070   0.824   3.717  12.328
14481SOL    HW155071   0.763   3.754  12.393
14481SOL    HW255072   0.906   3.706  12.375
14482SOL     OW55073   1.966   2.054   1.023
14482SOL    HW155074   1.911   1.993   0.973
14482SOL    HW255075   2.048   2.006   1.038
14483SOL     OW55076   1.732   1.484   9.515
14483SOL    HW155077   1.805   1.426   9.493
14483SOL    HW255078   1.749   1.564   9.465
14484SOL     OW55079   1.841   2.510  27.183
14484SOL    HW155080   1.777   2.562  27.231
14484SOL    HW255081   1.916   2.569  27.172
14485SOL     OW55082   4.218   2.628   3.533
14485SOL    HW155083   4.170   2.705   3.503
14485SOL    HW255084   4.305   2.661   3.556
14486SOL     OW55085   3.345   4.571  12.823
14486SOL    HW155086   3.438   4.581  12.844
14486SOL    HW255087   3.302   4.641  12.873
14487SOL     OW55088   0.825   1.766  23.279
14487SOL    HW155089   0.741   1.765  23.232
14487SOL    HW255090   0.833   1.856  23.311
14488SOL     OW55091   4.163   3.258  26.162
14488SOL    HW155092   4.077   3.293  26.184
14488SOL    HW255093   4.162   3.247  26.067
14489SOL     OW55094   1.930   2.683   3.140
14489SOL    HW155095   1.990   2.662   3.211
14489SOL    HW255096   1.942   2.611   3.077
14490SOL     OW55097   4.151   1.059   7.324
14490SOL    HW155098   4.128   1.128   7.386
14490SOL    HW255099   4.244   1.073   7.306
14491SOL     OW55100   4.188   4.149  27.575
14491SOL    HW155101   4.135   4.135  27.496
14491SOL    HW255102   4.128   4.193  27.636
14492SOL     OW55103   3.722   2.070   8.157
14492SOL    HW155104   3.673   1.994   8.189
14492SOL    HW255105   3.791   2.033   8.103
14493SOL     OW55106   0.302   3.039  27.602
14493SOL    HW155107   0.225   3.034  27.545
14493SOL    HW255108   0.347   2.955  27.589
14494SOL     OW55109   2.956   1.634   7.202
14494SOL    HW155110   2.892   1.694   7.165
14494SOL    HW255111   3.024   1.627   7.135
14495SOL     OW55112   2.080   0.569   0.131
14495SOL    HW155113   2.009   0.633   0.134
14495SOL    HW255114   2.043   0.496   0.080
14496SOL     OW55115   3.265   1.759  11.305
14496SOL    HW155116   3.316   1.765  11.385
14496SOL    HW255117   3.199   1.828  11.312
14497SOL     OW55118   1.137   2.121   5.882
14497SOL    HW155119   1.073   2.192   5.884
14497SOL    HW255120   1.087   2.044   5.854
14498SOL     OW55121   2.343   4.717  20.118
14498SOL    HW155122   2.376   4.648  20.061
14498SOL    HW255123   2.289   4.772  20.061
14499SOL     OW55124   3.081   0.492  25.739
14499SOL    HW155125   3.097   0.586  25.735
14499SOL    HW255126   3.117   0.458  25.658
14500SOL     OW55127   3.742   2.167  24.263
14500SOL    HW155128   3.744   2.262  24.273
14500SOL    HW255129   3.755   2.133  24.351
14501SOL     OW55130   2.952   2.481  23.333
14501SOL    HW155131   3.044   2.494  23.309
14501SOL    HW255132   2.952   2.398  23.381
14502SOL     OW55133   3.707   2.030  10.800
14502SOL    HW155134   3.637   1.998  10.744
14502SOL    HW255135   3.785   2.028  10.745
14503SOL     OW55136   3.761   2.602   3.177
14503SOL    HW155137   3.838   2.655   3.197
14503SOL    HW255138   3.797   2.519   3.144
14504SOL     OW55139   1.106   0.762   0.019
14504SOL    HW155140   1.030   0.786   0.072
14504SOL    HW255141   1.148   0.846  28.529
14505SOL     OW55142   0.225   0.793  16.598
14505SOL    HW155143   0.146   0.753  16.633
14505SOL    HW255144   0.204   0.886  16.590
14506SOL     OW55145   1.707   4.313   9.348
14506SOL    HW155146   1.776   4.300   9.282
14506SOL    HW255147   1.755   4.330   9.429
14507SOL     OW55148   3.176   4.240   1.231
14507SOL    HW155149   3.256   4.189   1.247
14507SOL    HW255150   3.105   4.177   1.242
14508SOL     OW55151   0.572   4.738  28.348
14508SOL    HW155152   0.619   4.711  28.269
14508SOL    HW255153   0.487   4.694  28.342
14509SOL     OW55154   2.844   0.988   6.888
14509SOL    HW155155   2.884   1.069   6.920
14509SOL    HW255156   2.782   0.964   6.957
14510SOL     OW55157   2.159   1.452   5.252
14510SOL    HW155158   2.253   1.468   5.250
14510SOL    HW255159   2.132   1.475   5.342
14511SOL     OW55160   2.870   2.983   0.001
14511SOL    HW155161   2.930   2.912  28.509
14511SOL    HW255162   2.817   2.996  28.454
14512SOL     OW55163   3.422   1.097  19.473
14512SOL    HW155164   3.516   1.082  19.478
14512SOL    HW255165   3.407   1.123  19.382
14513SOL     OW55166   4.605   0.935   7.936
14513SOL    HW155167   4.600   0.840   7.926
14513SOL    HW255168   4.679   0.962   7.883
14514SOL     OW55169   3.560   0.745  11.730
14514SOL    HW155170   3.567   0.823  11.675
14514SOL    HW255171   3.631   0.754  11.794
14515SOL     OW55172   0.136   1.722  11.453
14515SOL    HW155173   0.055   1.698  11.407
14515SOL    HW255174   0.139   1.817  11.449
14516SOL     OW55175   1.631   2.132   1.364
14516SOL    HW155176   1.685   2.209   1.348
14516SOL    HW255177   1.548   2.167   1.397
14517SOL     OW55178   2.436   2.590  27.280
14517SOL    HW155179   2.399   2.678  27.285
14517SOL    HW255180   2.431   2.556  27.370
14518SOL     OW55181   1.407   2.988  11.752
14518SOL    HW155182   1.499   2.974  11.772
14518SOL    HW255183   1.373   2.901  11.731
14519SOL     OW55184   1.026   3.994   8.657
14519SOL    HW155185   0.947   4.029   8.615
14519SOL    HW255186   0.992   3.936   8.726
14520SOL     OW55187   2.783   1.670  25.111
14520SOL    HW155188   2.781   1.598  25.175
14520SOL    HW255189   2.836   1.737  25.153
14521SOL     OW55190   1.190   4.085   5.381
14521SOL    HW155191   1.131   4.015   5.412
14521SOL    HW255192   1.145   4.123   5.306
14522SOL     OW55193   3.558   3.638  27.772
14522SOL    HW155194   3.563   3.684  27.855
14522SOL    HW255195   3.643   3.653  27.731
14523SOL     OW55196   2.722   4.560  12.286
14523SOL    HW155197   2.688   4.471  12.278
14523SOL    HW255198   2.711   4.582  12.379
14524SOL     OW55199   3.597   3.657   6.636
14524SOL    HW155200   3.603   3.570   6.677
14524SOL    HW255201   3.684   3.671   6.597
14525SOL     OW55202   0.827   1.952  13.229
14525SOL    HW155203   0.908   1.904  13.243
14525SOL    HW255204   0.758   1.887  13.242
14526SOL     OW55205   0.501   0.879   6.964
14526SOL    HW155206   0.537   0.885   7.053
14526SOL    HW255207   0.556   0.937   6.912
14527SOL     OW55208   1.854   0.385  23.830
14527SOL    HW155209   1.834   0.327  23.904
14527SOL    HW255210   1.925   0.341  23.784
14528SOL     OW55211   1.757   4.602  12.107
14528SOL    HW155212   1.678   4.569  12.150
14528SOL    HW255213   1.791   4.669  12.166
14529SOL     OW55214   3.676   2.025  25.093
14529SOL    HW155215   3.717   1.961  25.035
14529SOL    HW255216   3.631   2.085  25.034
14530SOL     OW55217   1.873   4.067   0.164
14530SOL    HW155218   1.813   3.999   0.194
14530SOL    HW255219   1.827   4.111   0.094
14531SOL     OW55220   3.417   1.983  24.432
14531SOL    HW155221   3.362   2.021  24.363
14531SOL    HW255222   3.429   1.892  24.405
14532SOL     OW55223   0.913   2.557   2.410
14532SOL    HW155224   0.827   2.593   2.432
14532SOL    HW255225   0.895   2.480   2.356
14533SOL     OW55226   2.340   4.007  11.314
14533SOL    HW155227   2.373   4.094  11.290
14533SOL    HW255228   2.419   3.952  11.317
14534SOL     OW55229   1.438   3.755  12.766
14534SOL    HW155230   1.456   3.731  12.675
14534SOL    HW255231   1.366   3.698  12.793
14535SOL     OW55232   2.149   0.985  13.162
14535SOL    HW155233   2.175   1.047  13.230
14535SOL    HW255234   2.163   0.899  13.201
14536SOL     OW55235   1.826   4.704  14.214
14536SOL    HW155236   1.898   4.681  14.272
14536SOL    HW255237   1.747   4.695  14.268
14537SOL     OW55238   2.508   2.520  11.825
14537SOL    HW155239   2.479   2.512  11.734
14537SOL    HW255240   2.466   2.447  11.870
14538SOL     OW55241   4.343   4.424  11.327
14538SOL    HW155242   4.316   4.457  11.412
14538SOL    HW255243   4.318   4.493  11.265
14539SOL     OW55244   1.871   3.549  12.155
14539SOL    HW155245   1.923   3.509  12.224
14539SOL    HW255246   1.854   3.638  12.187
14540SOL     OW55247   1.660   4.691  14.409
14540SOL    HW155248   1.572   4.701  14.446
14540SOL    HW255249   1.693   4.610  14.447
14541SOL     OW55250   3.082   3.607   5.498
14541SOL    HW155251   3.112   3.594   5.588
14541SOL    HW255252   3.147   3.561   5.444
14542SOL     OW55253   1.138   1.951  13.034
14542SOL    HW155254   1.183   1.869  13.014
14542SOL    HW255255   1.123   1.948  13.129
14543SOL     OW55256   1.953   1.043  12.987
14543SOL    HW155257   1.913   0.957  12.972
14543SOL    HW255258   2.006   1.031  13.066
14544SOL     OW55259   3.312   0.693  28.179
14544SOL    HW155260   3.254   0.642  28.236
14544SOL    HW255261   3.290   0.784  28.198
14545SOL     OW55262   2.111   3.300  12.638
14545SOL    HW155263   2.145   3.388  12.655
14545SOL    HW255264   2.062   3.278  12.718
14546SOL     OW55265   3.493   1.518  12.246
14546SOL    HW155266   3.513   1.494  12.336
14546SOL    HW255267   3.418   1.577  12.252
14547SOL     OW55268   0.278   4.418   6.297
14547SOL    HW155269   0.235   4.346   6.250
14547SOL    HW255270   0.365   4.385   6.317
14548SOL     OW55271   4.293   3.623  11.114
14548SOL    HW155272   4.284   3.546  11.171
14548SOL    HW255273   4.208   3.666  11.118
14549SOL     OW55274   2.805   2.123  11.311
14549SOL    HW155275   2.845   2.038  11.292
14549SOL    HW255276   2.877   2.175  11.348
14550SOL     OW55277   4.333   1.681  12.464
14550SOL    HW155278   4.272   1.685  12.538
14550SOL    HW255279   4.420   1.691  12.504
14551SOL     OW55280   0.690   3.746  12.584
14551SOL    HW155281   0.678   3.817  12.647
14551SOL    HW255282   0.704   3.668  12.637
14552SOL     OW55283   1.089   2.566  13.038
14552SOL    HW155284   1.092   2.660  13.021
14552SOL    HW255285   1.081   2.559  13.133
14553SOL     OW55286   2.498   0.738  12.594
14553SOL    HW155287   2.530   0.666  12.648
14553SOL    HW255288   2.403   0.729  12.597
14554SOL     OW55289   1.022   3.613  12.485
14554SOL    HW155290   0.996   3.550  12.552
14554SOL    HW255291   1.089   3.567  12.434
14555SOL     OW55292   0.244   0.639  11.664
14555SOL    HW155293   0.284   0.680  11.741
14555SOL    HW255294   0.269   0.547  11.671
14556SOL     OW55295   2.971   4.408  13.183
14556SOL    HW155296   2.933   4.322  13.199
14556SOL    HW255297   2.898   4.469  13.190
14557SOL     OW55298   0.060   4.501  11.639
14557SOL    HW155299   0.045   4.593  11.662
14557SOL    HW255300   0.155   4.491  11.641
14558SOL     OW55301   4.781   1.502   8.919
14558SOL    HW155302   4.738   1.419   8.895
14558SOL    HW255303   0.031   1.487   9.008
14559SOL     OW55304   3.888   3.740   4.034
14559SOL    HW155305   3.870   3.727   3.941
14559SOL    HW255306   3.861   3.658   4.076
14560SOL     OW55307   2.036   1.026  11.735
14560SOL    HW155308   1.986   1.085  11.678
14560SOL    HW255309   1.978   0.952  11.750
14561SOL     OW55310   0.206   4.543  11.381
14561SOL    HW155311   0.157   4.461  11.391
14561SOL    HW255312   0.140   4.608  11.357
14562SOL     OW55313   1.542   0.523  13.694
14562SOL    HW155314   1.574   0.526  13.784
14562SOL    HW255315   1.450   0.545  13.700
14563SOL     OW55316   2.224   0.579  13.128
14563SOL    HW155317   2.235   0.652  13.189
14563SOL    HW255318   2.300   0.523  13.146
14564SOL     OW55319   1.280   2.544  18.891
14564SOL    HW155320   1.267   2.633  18.860
14564SOL    HW255321   1.325   2.500  18.819
14565SOL     OW55322   1.494   3.351  15.587
14565SOL    HW155323   1.407   3.338  15.551
14565SOL    HW255324   1.538   3.267  15.574
14566SOL     OW55325   1.767   3.827  14.801
14566SOL    HW155326   1.774   3.796  14.711
14566SOL    HW255327   1.858   3.845  14.827
14567SOL     OW55328   1.507   3.206  14.712
14567SOL    HW155329   1.465   3.282  14.752
14567SOL    HW255330   1.448   3.181  14.640
14568SOL     OW55331   3.577   4.084  12.475
14568SOL    HW155332   3.648   4.059  12.534
14568SOL    HW255333   3.565   4.178  12.490
14569SOL     OW55334   1.289   0.198  14.521
14569SOL    HW155335   1.208   0.242  14.546
14569SOL    HW255336   1.358   0.258  14.551
14570SOL     OW55337   0.969   3.563  13.370
14570SOL    HW155338   0.987   3.494  13.306
14570SOL    HW255339   1.054   3.602  13.388
14571SOL     OW55340   0.836   3.728  13.745
14571SOL    HW155341   0.777   3.749  13.673
14571SOL    HW255342   0.873   3.812  13.772
14572SOL     OW55343   1.483   3.134  13.521
14572SOL    HW155344   1.484   3.205  13.586
14572SOL    HW255345   1.562   3.083  13.540
14573SOL     OW55346   0.851   3.472  13.596
14573SOL    HW155347   0.889   3.503  13.514
14573SOL    HW255348   0.842   3.550  13.650
14574SOL     OW55349   0.839   3.966  13.887
14574SOL    HW155350   0.812   4.048  13.929
14574SOL    HW255351   0.772   3.903  13.912
14575SOL     OW55352   1.414   4.729  14.560
14575SOL    HW155353   1.386   0.038  14.558
14575SOL    HW255354   1.385   4.696  14.645
14576SOL     OW55355   0.686   0.318  13.793
14576SOL    HW155356   0.593   0.338  13.792
14576SOL    HW255357   0.718   0.344  13.706
14577SOL     OW55358   1.504   3.753  13.604
14577SOL    HW155359   1.511   3.750  13.700
14577SOL    HW255360   1.410   3.763  13.587
14578SOL     OW55361   0.575   0.262  13.384
14578SOL    HW155362   0.658   0.227  13.417
14578SOL    HW255363   0.563   0.344  13.432
14579SOL     OW55364   1.753   3.146  14.801
14579SOL    HW155365   1.667   3.166  14.765
14579SOL    HW255366   1.792   3.231  14.819
14580SOL     OW55367   2.527   4.782  13.769
14580SOL    HW155368   2.487   4.736  13.843
14580SOL    HW255369   2.462   0.066  13.745
14581SOL     OW55370   3.529   2.499  13.041
14581SOL    HW155371   3.466   2.565  13.012
14581SOL    HW255372   3.520   2.498  13.136
14582SOL     OW55373   0.973   4.485  13.841
14582SOL    HW155374   1.004   4.570  13.811
14582SOL    HW255375   0.902   4.505  13.901
14583SOL     OW55376   1.319   2.920  13.461
14583SOL    HW155377   1.288   2.933  13.551
14583SOL    HW255378   1.393   2.979  13.452
14584SOL     OW55379   0.622   3.591  13.170
14584SOL    HW155380   0.529   3.613  13.163
14584SOL    HW255381   0.668   3.675  13.159
14585SOL     OW55382   0.285   3.188  12.842
14585SOL    HW155383   0.228   3.134  12.897
14585SOL    HW255384   0.226   3.230  12.779
14586SOL     OW55385   0.861   3.804  13.304
14586SOL    HW155386   0.814   3.801  13.220
14586SOL    HW255387   0.872   3.712  13.329
14587SOL     OW55388   1.263   3.904  13.543
14587SOL    HW155389   1.327   3.974  13.555
14587SOL    HW255390   1.186   3.933  13.591
14588SOL     OW55391   1.040   2.656  14.727
14588SOL    HW155392   0.976   2.693  14.788
14588SOL    HW255393   1.096   2.601  14.782
14589SOL     OW55394   2.185   4.051  14.455
14589SOL    HW155395   2.246   4.024  14.523
14589SOL    HW255396   2.178   3.975  14.397
14590SOL     OW55397   0.803   3.504  12.992
14590SOL    HW155398   0.729   3.514  13.051
14590SOL    HW255399   0.764   3.501  12.905
14591SOL     OW55400   2.745   0.147  13.848
14591SOL    HW155401   2.740   0.240  13.826
14591SOL    HW255402   2.657   0.114  13.832
14592SOL     OW55403   2.449   3.882  13.409
14592SOL    HW155404   2.366   3.918  13.440
14592SOL    HW255405   2.424   3.803  13.362
14593SOL     OW55406   1.093   3.965  13.306
14593SOL    HW155407   1.167   3.939  13.360
14593SOL    HW255408   1.023   3.903  13.329
14594SOL     OW55409   0.434   3.112  14.043
14594SOL    HW155410   0.370   3.041  14.047
14594SOL    HW255411   0.493   3.094  14.116
14595SOL     OW55412   1.006   4.032  14.489
14595SOL    HW155413   0.977   3.947  14.457
14595SOL    HW255414   0.936   4.061  14.548
14596SOL     OW55415   0.734   3.789  14.201
14596SOL    HW155416   0.681   3.808  14.123
14596SOL    HW255417   0.692   3.838  14.271
14597SOL     OW55418   1.143   4.301  13.707
14597SOL    HW155419   1.078   4.353  13.754
14597SOL    HW255420   1.223   4.307  13.760
14598SOL     OW55421   1.909   2.979  13.828
14598SOL    HW155422   1.985   3.031  13.803
14598SOL    HW255423   1.900   2.914  13.758
14599SOL     OW55424   1.203   4.014  13.061
14599SOL    HW155425   1.170   4.010  13.151
14599SOL    HW255426   1.243   3.928  13.047
14600SOL     OW55427   0.705   0.547  14.001
14600SOL    HW155428   0.781   0.501  14.037
14600SOL    HW255429   0.677   0.492  13.928
14601SOL     OW55430   3.417   3.282  13.907
14601SOL    HW155431   3.468   3.348  13.955
14601SOL    HW255432   3.385   3.223  13.975
14602SOL     OW55433   0.629   3.733  13.511
14602SOL    HW155434   0.672   3.772  13.435
14602SOL    HW255435   0.594   3.650  13.478
14603SOL     OW55436   0.145   3.288  12.644
14603SOL    HW155437   0.097   3.326  12.570
14603SOL    HW255438   0.211   3.232  12.603
14604SOL     OW55439   1.280   3.498  16.695
14604SOL    HW155440   1.355   3.439  16.688
14604SOL    HW255441   1.261   3.523  16.605
14605SOL     OW55442   1.032   0.914  15.216
14605SOL    HW155443   1.072   0.887  15.133
14605SOL    HW255444   0.973   0.842  15.239
14606SOL     OW55445   0.654   4.428  15.661
14606SOL    HW155446   0.644   4.365  15.589
14606SOL    HW255447   0.682   4.509  15.618
14607SOL     OW55448   0.703   3.729  15.475
14607SOL    HW155449   0.620   3.722  15.522
14607SOL    HW255450   0.678   3.748  15.385
14608SOL     OW55451   1.230   1.451  16.597
14608SOL    HW155452   1.177   1.376  16.624
14608SOL    HW255453   1.196   1.474  16.511
14609SOL     OW55454   1.473   3.063  16.271
14609SOL    HW155455   1.468   3.022  16.357
14609SOL    HW255456   1.424   3.145  16.281
14610SOL     OW55457   1.712   3.559  16.032
14610SOL    HW155458   1.731   3.549  15.938
14610SOL    HW255459   1.624   3.523  16.043
14611SOL     OW55460   0.550   4.576  15.884
14611SOL    HW155461   0.581   4.527  15.808
14611SOL    HW255462   0.532   4.664  15.851
14612SOL     OW55463   2.405   4.649  15.586
14612SOL    HW155464   2.413   4.719  15.650
14612SOL    HW255465   2.332   4.676  15.529
14613SOL     OW55466   1.061   4.102  15.098
14613SOL    HW155467   1.101   4.170  15.153
14613SOL    HW255468   1.125   4.030  15.099
14614SOL     OW55469   0.918   4.063  16.024
14614SOL    HW155470   0.853   4.118  16.067
14614SOL    HW255471   0.914   4.089  15.932
14615SOL     OW55472   2.242   3.337  15.454
14615SOL    HW155473   2.229   3.410  15.393
14615SOL    HW255474   2.186   3.358  15.529
14616SOL     OW55475   2.137   3.388  15.698
14616SOL    HW155476   2.210   3.424  15.748
14616SOL    HW255477   2.075   3.358  15.764
14617SOL     OW55478   1.814   3.079  15.187
14617SOL    HW155479   1.768   3.157  15.156
14617SOL    HW255480   1.852   3.106  15.271
14618SOL     OW55481   0.728   3.823  16.005
14618SOL    HW155482   0.781   3.862  16.075
14618SOL    HW255483   0.792   3.800  15.937
14619SOL     OW55484   0.573   0.037  15.768
14619SOL    HW155485   0.668   0.038  15.763
14619SOL    HW255486   0.544   0.047  15.677
14620SOL     OW55487   2.375   3.107  15.855
14620SOL    HW155488   2.280   3.103  15.846
14620SOL    HW255489   2.406   3.144  15.772
14621SOL     OW55490   2.193   4.427  15.409
14621SOL    HW155491   2.186   4.522  15.401
14621SOL    HW255492   2.260   4.402  15.345
14622SOL     OW55493   0.973   0.036  16.043
14622SOL    HW155494   0.967   4.723  16.053
14622SOL    HW255495   1.024   0.064  16.119
14623SOL     OW55496   1.825   3.588  15.767
14623SOL    HW155497   1.850   3.538  15.689
14623SOL    HW255498   1.908   3.608  15.810
14624SOL     OW55499   1.661   3.214  16.047
14624SOL    HW155500   1.608   3.286  16.081
14624SOL    HW255501   1.679   3.239  15.956
14625SOL     OW55502   1.887   3.386  15.587
14625SOL    HW155503   1.907   3.310  15.533
14625SOL    HW255504   1.972   3.418  15.616
14626SOL     OW55505   2.167   4.212  14.256
14626SOL    HW155506   2.162   4.153  14.332
14626SOL    HW255507   2.075   4.231  14.235
14627SOL     OW55508   1.302   3.223  14.505
14627SOL    HW155509   1.389   3.217  14.466
14627SOL    HW255510   1.248   3.163  14.454
14628SOL     OW55511   1.634   1.474  17.381
14628SOL    HW155512   1.661   1.551  17.331
14628SOL    HW255513   1.691   1.404  17.349
14629SOL     OW55514   0.698   4.227  16.152
14629SOL    HW155515   0.698   4.171  16.229
14629SOL    HW255516   0.615   4.206  16.107
14630SOL     OW55517   1.441   4.497  15.633
14630SOL    HW155518   1.487   4.437  15.691
14630SOL    HW255519   1.348   4.485  15.654
14631SOL     OW55520   1.185   4.294  15.268
14631SOL    HW155521   1.219   4.251  15.346
14631SOL    HW255522   1.144   4.374  15.301
14632SOL     OW55523   1.515   3.427  16.166
14632SOL    HW155524   1.427   3.388  16.168
14632SOL    HW255525   1.552   3.409  16.252
14633SOL     OW55526   0.816   3.959  17.610
14633SOL    HW155527   0.744   3.942  17.670
14633SOL    HW255528   0.894   3.933  17.659
14634SOL     OW55529   0.660   3.794  16.761
14634SOL    HW155530   0.624   3.706  16.764
14634SOL    HW255531   0.681   3.814  16.853
14635SOL     OW55532   1.140   4.668  16.270
14635SOL    HW155533   1.121   4.761  16.284
14635SOL    HW255534   1.056   4.624  16.287
14636SOL     OW55535   2.137   2.302  15.147
14636SOL    HW155536   2.213   2.303  15.089
14636SOL    HW255537   2.065   2.333  15.093
14637SOL     OW55538   1.259   3.514  15.258
14637SOL    HW155539   1.302   3.492  15.175
14637SOL    HW255540   1.171   3.541  15.232
14638SOL     OW55541   0.936   3.480  15.849
14638SOL    HW155542   1.022   3.499  15.813
14638SOL    HW255543   0.876   3.538  15.801
14639SOL     OW55544   0.626   3.588  16.118
14639SOL    HW155545   0.636   3.673  16.075
14639SOL    HW255546   0.566   3.604  16.190
14640SOL     OW55547   0.358   4.457  16.048
14640SOL    HW155548   0.418   4.520  16.008
14640SOL    HW255549   0.410   4.377  16.058
14641SOL     OW55550   0.990   3.511  14.460
14641SOL    HW155551   1.040   3.512  14.378
14641SOL    HW255552   1.012   3.427  14.500
14642SOL     OW55553   0.212   3.514  18.389
14642SOL    HW155554   0.195   3.427  18.425
14642SOL    HW255555   0.304   3.531  18.410
14643SOL     OW55556   2.976   0.060  19.818
14643SOL    HW155557   3.054   0.047  19.764
14643SOL    HW255558   3.004   0.122  19.886
14644SOL     OW55559   1.020   0.607  25.475
14644SOL    HW155560   1.066   0.659  25.409
14644SOL    HW255561   0.947   0.663  25.503
14645SOL     OW55562   1.554   0.647   5.065
14645SOL    HW155563   1.491   0.625   4.996
14645SOL    HW255564   1.509   0.712   5.119
14646SOL     OW55565   0.057   1.049  16.637
14646SOL    HW155566   4.754   1.017  16.665
14646SOL    HW255567   0.037   1.129  16.587
14647SOL     OW55568   4.304   3.482  17.228
14647SOL    HW155569   4.263   3.514  17.148
14647SOL    HW255570   4.398   3.500  17.215
14648SOL     OW55571   0.802   3.997  18.864
14648SOL    HW155572   0.791   4.002  18.959
14648SOL    HW255573   0.896   4.007  18.851
14649SOL     OW55574   1.925   4.467  17.025
14649SOL    HW155575   1.878   4.515  16.958
14649SOL    HW255576   1.872   4.477  17.104
14650SOL     OW55577   1.946   0.635  15.645
14650SOL    HW155578   1.900   0.568  15.595
14650SOL    HW255579   2.023   0.656  15.592
14651SOL     OW55580   1.400   3.723  16.229
14651SOL    HW155581   1.343   3.798  16.211
14651SOL    HW255582   1.462   3.722  16.156
14652SOL     OW55583   4.134   3.208  17.565
14652SOL    HW155584   4.143   3.189  17.658
14652SOL    HW255585   4.155   3.301  17.557
14653SOL     OW55586   4.530   0.998  16.225
14653SOL    HW155587   4.584   1.044  16.161
14653SOL    HW255588   4.493   1.067  16.279
14654SOL     OW55589   1.461   3.315  16.604
14654SOL    HW155590   1.516   3.333  16.528
14654SOL    HW255591   1.440   3.222  16.597
14655SOL     OW55592   4.694   0.351  16.671
14655SOL    HW155593   0.001   0.352  16.705
14655SOL    HW255594   4.653   0.276  16.715
14656SOL     OW55595   4.730   1.392  10.529
14656SOL    HW155596   0.023   1.449  10.541
14656SOL    HW255597   4.754   1.334  10.457
14657SOL     OW55598   1.544   3.725  18.687
14657SOL    HW155599   1.571   3.680  18.767
14657SOL    HW255600   1.580   3.814  18.697
14658SOL     OW55601   3.259   0.020   3.842
14658SOL    HW155602   3.279   4.714   3.872
14658SOL    HW255603   3.340   0.069   3.856
14659SOL     OW55604   3.901   2.635   9.262
14659SOL    HW155605   3.810   2.619   9.289
14659SOL    HW255606   3.954   2.597   9.332
14660SOL     OW55607   0.245   1.078  16.832
14660SOL    HW155608   0.186   1.062  16.759
14660SOL    HW255609   0.188   1.083  16.909
14661SOL     OW55610   3.300   0.156  17.518
14661SOL    HW155611   3.378   0.202  17.488
14661SOL    HW255612   3.230   0.222  17.517
14662SOL     OW55613   3.763   0.705  24.703
14662SOL    HW155614   3.669   0.724  24.694
14662SOL    HW255615   3.768   0.609  24.701
14663SOL     OW55616   3.078   1.512  18.184
14663SOL    HW155617   3.128   1.593  18.179
14663SOL    HW255618   3.141   1.444  18.161
14664SOL     OW55619   3.812   1.816  26.294
14664SOL    HW155620   3.877   1.874  26.253
14664SOL    HW255621   3.728   1.848  26.260
14665SOL     OW55622   3.143   4.466   9.166
14665SOL    HW155623   3.194   4.540   9.198
14665SOL    HW255624   3.191   4.389   9.197
14666SOL     OW55625   4.422   0.302  17.008
14666SOL    HW155626   4.348   0.347  17.049
14666SOL    HW255627   4.467   0.259  17.080
14667SOL     OW55628   2.658   2.905  18.770
14667SOL    HW155629   2.642   2.977  18.709
14667SOL    HW255630   2.747   2.876  18.750
14668SOL     OW55631   1.454   3.824  18.003
14668SOL    HW155632   1.442   3.909  17.961
14668SOL    HW255633   1.460   3.762  17.930
14669SOL     OW55634   0.162   4.124   0.183
14669SOL    HW155635   0.139   4.059   0.249
14669SOL    HW255636   0.078   4.163   0.157
14670SOL     OW55637   2.981   3.323  18.430
14670SOL    HW155638   2.953   3.308  18.339
14670SOL    HW255639   2.931   3.399  18.459
14671SOL     OW55640   0.935   0.042  27.178
14671SOL    HW155641   0.915   0.063  27.087
14671SOL    HW255642   0.850   0.024  27.218
14672SOL     OW55643   0.282   0.079  21.004
14672SOL    HW155644   0.203   0.066  20.951
14672SOL    HW255645   0.319   4.773  21.013
14673SOL     OW55646   1.514   3.673  18.211
14673SOL    HW155647   1.482   3.729  18.140
14673SOL    HW255648   1.603   3.704  18.227
14674SOL     OW55649   1.918   4.182  16.975
14674SOL    HW155650   1.914   4.191  16.880
14674SOL    HW255651   1.933   4.271  17.007
14675SOL     OW55652   1.481   3.817  16.519
14675SOL    HW155653   1.472   3.762  16.441
14675SOL    HW255654   1.530   3.893  16.489
14676SOL     OW55655   0.370   4.017  17.635
14676SOL    HW155656   0.437   4.082  17.657
14676SOL    HW255657   0.405   3.971  17.559
14677SOL     OW55658   4.249   3.474  17.881
14677SOL    HW155659   4.330   3.517  17.853
14677SOL    HW255660   4.183   3.544  17.880
14678SOL     OW55661   0.788   3.586  17.412
14678SOL    HW155662   0.881   3.611  17.406
14678SOL    HW255663   0.741   3.664  17.382
14679SOL     OW55664   4.209   0.536  16.297
14679SOL    HW155665   4.114   0.534  16.295
14679SOL    HW255666   4.233   0.607  16.238
14680SOL     OW55667   0.577   3.823  11.736
14680SOL    HW155668   0.521   3.892  11.701
14680SOL    HW255669   0.517   3.757  11.768
14681SOL     OW55670   0.133   3.842  18.959
14681SOL    HW155671   0.110   3.891  19.038
14681SOL    HW255672   0.181   3.766  18.991
14682SOL     OW55673   0.352   1.115  22.182
14682SOL    HW155674   0.392   1.055  22.119
14682SOL    HW255675   0.423   1.135  22.244
14683SOL     OW55676   0.626   1.842  14.014
14683SOL    HW155677   0.709   1.841  13.967
14683SOL    HW255678   0.562   1.870  13.949
14684SOL     OW55679   2.209   4.271  26.800
14684SOL    HW155680   2.185   4.280  26.893
14684SOL    HW255681   2.179   4.183  26.777
14685SOL     OW55682   0.898   0.339  16.997
14685SOL    HW155683   0.908   0.304  17.086
14685SOL    HW255684   0.849   0.271  16.950
14686SOL     OW55685   0.338   4.041  19.307
14686SOL    HW155686   0.304   4.000  19.387
14686SOL    HW255687   0.404   4.103  19.338
14687SOL     OW55688   0.650   4.448   6.123
14687SOL    HW155689   0.703   4.377   6.160
14687SOL    HW255690   0.564   4.436   6.162
14688SOL     OW55691   4.169   1.532  21.256
14688SOL    HW155692   4.129   1.446  21.238
14688SOL    HW255693   4.253   1.511  21.297
14689SOL     OW55694   1.420   1.235  21.027
14689SOL    HW155695   1.445   1.327  21.033
14689SOL    HW255696   1.468   1.202  20.951
14690SOL     OW55697   1.243   0.357   5.397
14690SOL    HW155698   1.333   0.378   5.423
14690SOL    HW255699   1.227   0.414   5.321
14691SOL     OW55700   4.723   0.680   3.928
14691SOL    HW155701   4.720   0.732   3.847
14691SOL    HW255702   4.770   0.601   3.903
14692SOL     OW55703   4.077   1.817   6.559
14692SOL    HW155704   3.984   1.838   6.568
14692SOL    HW255705   4.121   1.872   6.624
14693SOL     OW55706   3.245   4.500   8.192
14693SOL    HW155707   3.271   4.466   8.277
14693SOL    HW255708   3.258   4.595   8.199
14694SOL     OW55709   3.498   0.592   7.569
14694SOL    HW155710   3.495   0.595   7.664
14694SOL    HW255711   3.428   0.532   7.544
14695SOL     OW55712   3.306   1.712   8.324
14695SOL    HW155713   3.337   1.642   8.381
14695SOL    HW255714   3.210   1.705   8.328
14696SOL     OW55715   2.133   4.513   0.081
14696SOL    HW155716   2.166   4.580   0.142
14696SOL    HW255717   2.064   4.469   0.130
14697SOL     OW55718   3.891   0.143  21.681
14697SOL    HW155719   3.863   0.222  21.726
14697SOL    HW255720   3.895   0.077  21.750
14698SOL     OW55721   0.957   2.503  18.936
14698SOL    HW155722   0.867   2.510  18.904
14698SOL    HW255723   0.954   2.431  18.999
14699SOL     OW55724   1.974   2.638  20.140
14699SOL    HW155725   1.974   2.623  20.045
14699SOL    HW255726   1.953   2.731  20.149
14700SOL     OW55727   2.690   1.749  19.628
14700SOL    HW155728   2.772   1.700  19.626
14700SOL    HW255729   2.678   1.773  19.720
14701SOL     OW55730   1.007   2.641  23.907
14701SOL    HW155731   0.987   2.549  23.924
14701SOL    HW255732   1.081   2.661  23.964
14702SOL     OW55733   0.921   3.517   1.892
14702SOL    HW155734   0.880   3.533   1.977
14702SOL    HW255735   0.993   3.457   1.911
14703SOL     OW55736   2.567   1.093   3.802
14703SOL    HW155737   2.574   1.188   3.798
14703SOL    HW255738   2.485   1.073   3.757
14704SOL     OW55739   2.521   4.547  19.178
14704SOL    HW155740   2.608   4.508  19.177
14704SOL    HW255741   2.500   4.555  19.271
14705SOL     OW55742   2.217   2.069  11.176
14705SOL    HW155743   2.150   2.138  11.180
14705SOL    HW255744   2.229   2.054  11.083
14706SOL     OW55745   2.339   0.368   5.007
14706SOL    HW155746   2.347   0.273   5.016
14706SOL    HW255747   2.394   0.403   5.077
14707SOL     OW55748   2.140   0.467   1.787
14707SOL    HW155749   2.076   0.505   1.848
14707SOL    HW255750   2.179   0.543   1.743
14708SOL     OW55751   3.042   1.931   9.684
14708SOL    HW155752   3.109   1.913   9.750
14708SOL    HW255753   2.967   1.963   9.734
14709SOL     OW55754   1.023   2.358  20.087
14709SOL    HW155755   0.971   2.394  20.016
14709SOL    HW255756   0.959   2.315  20.144
14710SOL     OW55757   1.766   3.134  23.429
14710SOL    HW155758   1.812   3.150  23.512
14710SOL    HW255759   1.716   3.054  23.444
14711SOL     OW55760   0.047   1.125  10.824
14711SOL    HW155761   4.741   1.150  10.796
14711SOL    HW255762   0.102   1.199  10.796
14712SOL     OW55763   1.502   4.357   6.048
14712SOL    HW155764   1.425   4.330   5.998
14712SOL    HW255765   1.574   4.306   6.009
14713SOL     OW55766   1.875   4.548  11.204
14713SOL    HW155767   1.865   4.508  11.117
14713SOL    HW255768   1.869   4.475  11.265
14714SOL     OW55769   3.217   2.156   7.591
14714SOL    HW155770   3.245   2.071   7.557
14714SOL    HW255771   3.194   2.139   7.682
14715SOL     OW55772   0.412   2.524   4.381
14715SOL    HW155773   0.406   2.431   4.403
14715SOL    HW255774   0.504   2.547   4.398
14716SOL     OW55775   1.817   4.709   9.288
14716SOL    HW155776   1.886   4.688   9.226
14716SOL    HW255777   1.737   4.711   9.234
14717SOL     OW55778   3.744   2.339   2.048
14717SOL    HW155779   3.658   2.352   2.089
14717SOL    HW255780   3.788   2.276   2.105
14718SOL     OW55781   0.321   2.622  25.998
14718SOL    HW155782   0.324   2.529  26.022
14718SOL    HW255783   0.344   2.623  25.905
14719SOL     OW55784   0.759   3.132  28.366
14719SOL    HW155785   0.824   3.071  28.332
14719SOL    HW255786   0.680   3.113  28.315
14720SOL     OW55787   3.975   1.027  27.014
14720SOL    HW155788   4.038   1.100  27.010
14720SOL    HW255789   3.910   1.048  26.947
14721SOL     OW55790   1.981   3.322  26.494
14721SOL    HW155791   1.964   3.397  26.550
14721SOL    HW255792   1.977   3.357  26.405
14722SOL     OW55793   4.700   1.893  20.892
14722SOL    HW155794   4.707   1.987  20.878
14722SOL    HW255795   4.685   1.856  20.805
14723SOL     OW55796   1.975   2.273   7.697
14723SOL    HW155797   2.048   2.265   7.635
14723SOL    HW255798   1.982   2.363   7.730
14724SOL     OW55799   1.052   1.272   8.435
14724SOL    HW155800   1.103   1.192   8.418
14724SOL    HW255801   1.054   1.283   8.530
14725SOL     OW55802   0.749   3.970  25.150
14725SOL    HW155803   0.673   3.978  25.207
14725SOL    HW255804   0.733   4.033  25.080
14726SOL     OW55805   1.429   0.680   1.899
14726SOL    HW155806   1.352   0.639   1.859
14726SOL    HW255807   1.403   0.698   1.989
14727SOL     OW55808   1.401   2.484   8.987
14727SOL    HW155809   1.349   2.403   8.991
14727SOL    HW255810   1.460   2.470   8.913
14728SOL     OW55811   2.305   4.347  26.510
14728SOL    HW155812   2.328   4.281  26.444
14728SOL    HW255813   2.368   4.332  26.581
14729SOL     OW55814   4.460   4.729  18.982
14729SOL    HW155815   4.404   0.014  18.943
14729SOL    HW255816   4.412   4.700  19.060
14730SOL     OW55817   3.579   2.561   0.070
14730SOL    HW155818   3.506   2.591   0.124
14730SOL    HW255819   3.560   2.596  28.514
14731SOL     OW55820   4.191   3.542  16.988
14731SOL    HW155821   4.204   3.491  16.908
14731SOL    HW255822   4.099   3.529  17.011
14732SOL     OW55823   0.400   1.601  24.968
14732SOL    HW155824   0.421   1.693  24.985
14732SOL    HW255825   0.343   1.576  25.042
14733SOL     OW55826   0.268   4.714  22.560
14733SOL    HW155827   0.191   4.698  22.614
14733SOL    HW255828   0.342   4.695  22.618
14734SOL     OW55829   3.586   0.340  17.089
14734SOL    HW155830   3.657   0.301  17.038
14734SOL    HW255831   3.557   0.270  17.147
14735SOL     OW55832   1.017   0.205  18.748
14735SOL    HW155833   0.949   0.271  18.731
14735SOL    HW255834   0.982   0.124  18.711
14736SOL     OW55835   1.148   0.752   4.893
14736SOL    HW155836   1.069   0.707   4.921
14736SOL    HW255837   1.126   0.845   4.897
14737SOL     OW55838   2.625   1.914   2.432
14737SOL    HW155839   2.544   1.864   2.427
14737SOL    HW255840   2.601   1.993   2.481
14738SOL     OW55841   4.558   3.211   7.731
14738SOL    HW155842   4.629   3.276   7.728
14738SOL    HW255843   4.602   3.128   7.748
14739SOL     OW55844   1.606   2.446  18.027
14739SOL    HW155845   1.557   2.383  18.081
14739SOL    HW255846   1.688   2.402  18.008
14740SOL     OW55847   4.731   4.288   7.009
14740SOL    HW155848   4.702   4.344   6.938
14740SOL    HW255849   0.036   4.320   7.031
14741SOL     OW55850   1.670   3.960  28.457
14741SOL    HW155851   1.694   3.946  28.365
14741SOL    HW255852   1.626   3.879  28.483
14742SOL     OW55853   3.680   0.381   8.884
14742SOL    HW155854   3.600   0.329   8.890
14742SOL    HW255855   3.697   0.389   8.790
14743SOL     OW55856   1.430   0.414  27.428
14743SOL    HW155857   1.420   0.328  27.386
14743SOL    HW255858   1.445   0.394  27.521
14744SOL     OW55859   1.447   0.991  28.455
14744SOL    HW155860   1.416   0.980  28.365
14744SOL    HW255861   1.509   0.920  28.468
14745SOL     OW55862   4.417   3.222   6.871
14745SOL    HW155863   4.460   3.305   6.848
14745SOL    HW255864   4.353   3.246   6.937
14746SOL     OW55865   0.291   4.697  24.980
14746SOL    HW155866   0.273   4.762  24.912
14746SOL    HW255867   0.366   4.732  25.028
14747SOL     OW55868   2.342   0.754  21.416
14747SOL    HW155869   2.348   0.835  21.466
14747SOL    HW255870   2.431   0.738  21.385
14748SOL     OW55871   2.849   4.573  23.087
14748SOL    HW155872   2.772   4.598  23.035
14748SOL    HW255873   2.854   4.478  23.078
14749SOL     OW55874   2.541   3.100  22.065
14749SOL    HW155875   2.456   3.059  22.051
14749SOL    HW255876   2.597   3.062  21.997
14750SOL     OW55877   0.701   2.974   4.672
14750SOL    HW155878   0.659   2.888   4.683
14750SOL    HW255879   0.628   3.036   4.673
14751SOL     OW55880   2.602   4.585  28.320
14751SOL    HW155881   2.679   4.643  28.322
14751SOL    HW255882   2.599   4.547  28.408
14752SOL     OW55883   1.094   0.690  23.958
14752SOL    HW155884   1.047   0.667  23.878
14752SOL    HW255885   1.104   0.785  23.953
14753SOL     OW55886   1.846   2.319   2.983
14753SOL    HW155887   1.788   2.249   2.950
14753SOL    HW255888   1.806   2.346   3.066
14754SOL     OW55889   3.713   4.310  26.552
14754SOL    HW155890   3.686   4.236  26.497
14754SOL    HW255891   3.632   4.342  26.592
14755SOL     OW55892   1.142   3.356  24.002
14755SOL    HW155893   1.133   3.261  24.006
14755SOL    HW255894   1.121   3.378  23.911
14756SOL     OW55895   3.807   3.465   4.190
14756SOL    HW155896   3.739   3.484   4.255
14756SOL    HW255897   3.874   3.416   4.238
14757SOL     OW55898   2.830   3.347  25.024
14757SOL    HW155899   2.871   3.346  24.937
14757SOL    HW255900   2.800   3.257  25.038
14758SOL     OW55901   3.708   1.931  21.823
14758SOL    HW155902   3.709   2.021  21.789
14758SOL    HW255903   3.794   1.896  21.800
14759SOL     OW55904   0.273   1.970   1.150
14759SOL    HW155905   0.332   1.942   1.079
14759SOL    HW255906   0.240   1.888   1.186
14760SOL     OW55907   4.391   1.844  24.929
14760SOL    HW155908   4.353   1.782  24.991
14760SOL    HW255909   4.437   1.790  24.864
14761SOL     OW55910   4.238   1.992   6.710
14761SOL    HW155911   4.298   2.060   6.741
14761SOL    HW255912   4.286   1.911   6.720
14762SOL     OW55913   2.945   0.056   2.985
14762SOL    HW155914   2.978   4.766   3.039
14762SOL    HW255915   2.930   0.017   2.899
14763SOL     OW55916   3.448   1.709  26.950
14763SOL    HW155917   3.526   1.743  26.906
14763SOL    HW255918   3.399   1.788  26.975
14764SOL     OW55919   3.585   0.814   0.828
14764SOL    HW155920   3.625   0.783   0.747
14764SOL    HW255921   3.536   0.739   0.861
14765SOL     OW55922   1.305   2.854  20.273
14765SOL    HW155923   1.399   2.873  20.268
14765SOL    HW255924   1.274   2.907  20.348
14766SOL     OW55925   4.087   3.791  23.305
14766SOL    HW155926   4.141   3.813  23.381
14766SOL    HW255927   4.089   3.870  23.251
14767SOL     OW55928   4.747   2.977   5.074
14767SOL    HW155929   4.730   3.028   5.153
14767SOL    HW255930   4.689   2.902   5.082
14768SOL     OW55931   3.456   3.120  11.147
14768SOL    HW155932   3.503   3.052  11.100
14768SOL    HW255933   3.505   3.131  11.229
14769SOL     OW55934   3.153   3.050   2.321
14769SOL    HW155935   3.226   2.987   2.317
14769SOL    HW255936   3.108   3.038   2.237
14770SOL     OW55937   1.730   2.077   2.895
14770SOL    HW155938   1.736   2.038   2.982
14770SOL    HW255939   1.732   2.003   2.835
14771SOL     OW55940   3.223   3.898  17.703
14771SOL    HW155941   3.173   3.845  17.642
14771SOL    HW255942   3.263   3.835  17.763
14772SOL     OW55943   2.434   3.326   8.634
14772SOL    HW155944   2.349   3.301   8.671
14772SOL    HW255945   2.417   3.408   8.588
14773SOL     OW55946   4.352   2.637  19.163
14773SOL    HW155947   4.282   2.610  19.104
14773SOL    HW255948   4.360   2.565  19.225
14774SOL     OW55949   0.281   0.342  20.367
14774SOL    HW155950   0.313   0.429  20.390
14774SOL    HW255951   0.266   0.299  20.451
14775SOL     OW55952   4.069   1.160  23.722
14775SOL    HW155953   4.046   1.247  23.687
14775SOL    HW255954   4.107   1.113  23.648
14776SOL     OW55955   4.480   2.587   1.390
14776SOL    HW155956   4.461   2.590   1.296
14776SOL    HW255957   4.552   2.525   1.398
14777SOL     OW55958   3.014   1.282  18.915
14777SOL    HW155959   3.030   1.276  19.009
14777SOL    HW255960   2.918   1.281  18.907
14778SOL     OW55961   3.990   4.451  26.962
14778SOL    HW155962   4.066   4.498  26.996
14778SOL    HW255963   3.960   4.504  26.888
14779SOL     OW55964   4.228   2.703   6.910
14779SOL    HW155965   4.153   2.743   6.865
14779SOL    HW255966   4.237   2.617   6.870
14780SOL     OW55967   2.203   2.588  28.377
14780SOL    HW155968   2.147   2.587  28.454
14780SOL    HW255969   2.268   2.519  28.393
14781SOL     OW55970   4.082   0.292  26.328
14781SOL    HW155971   4.053   0.298  26.419
14781SOL    HW255972   4.177   0.308  26.332
14782SOL     OW55973   2.123   2.172  27.006
14782SOL    HW155974   2.219   2.164  27.010
14782SOL    HW255975   2.103   2.244  27.065
14783SOL     OW55976   3.600   1.362  10.595
14783SOL    HW155977   3.612   1.433  10.658
14783SOL    HW255978   3.588   1.284  10.650
14784SOL     OW55979   0.293   0.439   2.455
14784SOL    HW155980   0.332   0.525   2.442
14784SOL    HW255981   0.287   0.430   2.550
14785SOL     OW55982   0.383   1.252  23.167
14785SOL    HW155983   0.335   1.173  23.193
14785SOL    HW255984   0.315   1.320  23.163
14786SOL     OW55985   3.257   0.610  23.883
14786SOL    HW155986   3.191   0.542  23.879
14786SOL    HW255987   3.210   0.691  23.860
14787SOL     OW55988   3.545   2.557  24.163
14787SOL    HW155989   3.610   2.593  24.223
14787SOL    HW255990   3.496   2.494  24.216
14788SOL     OW55991   1.959   1.486   2.953
14788SOL    HW155992   2.015   1.489   2.876
14788SOL    HW255993   2.013   1.523   3.023
14789SOL     OW55994   4.172   1.808  19.745
14789SOL    HW155995   4.218   1.767  19.671
14789SOL    HW255996   4.215   1.773  19.823
14790SOL     OW55997   1.704   3.451   9.666
14790SOL    HW155998   1.742   3.476   9.582
14790SOL    HW255999   1.739   3.363   9.683
14791SOL     OW56000   3.576   2.182   2.604
14791SOL    HW156001   3.670   2.169   2.618
14791SOL    HW256002   3.561   2.152   2.515
14792SOL     OW56003   4.064   0.758  26.872
14792SOL    HW156004   4.125   0.703  26.920
14792SOL    HW256005   4.091   0.848  26.893
14793SOL     OW56006   1.280   3.081  21.604
14793SOL    HW156007   1.186   3.067  21.597
14793SOL    HW256008   1.303   3.049  21.691
14794SOL     OW56009   4.087   2.920  23.163
14794SOL    HW156010   3.998   2.892  23.180
14794SOL    HW256011   4.102   2.992  23.223
14795SOL     OW56012   4.268   4.388   5.595
14795SOL    HW156013   4.247   4.294   5.596
14795SOL    HW256014   4.287   4.408   5.504
14796SOL     OW56015   0.811   0.200   0.100
14796SOL    HW156016   0.832   0.287   0.066
14796SOL    HW256017   0.852   0.140   0.038
14797SOL     OW56018   0.730   4.254   9.202
14797SOL    HW156019   0.644   4.213   9.200
14797SOL    HW256020   0.792   4.181   9.196
14798SOL     OW56021   0.802   3.898   4.160
14798SOL    HW156022   0.769   3.908   4.249
14798SOL    HW256023   0.783   3.807   4.137
14799SOL     OW56024   1.455   3.635   7.814
14799SOL    HW156025   1.449   3.543   7.839
14799SOL    HW256026   1.438   3.683   7.896
14800SOL     OW56027   4.496   1.936  18.025
14800SOL    HW156028   4.523   1.883  17.950
14800SOL    HW256029   4.524   2.025  18.002
14801SOL     OW56030   2.830   0.637  27.154
14801SOL    HW156031   2.910   0.690  27.155
14801SOL    HW256032   2.793   0.652  27.067
14802SOL     OW56033   2.920   1.444  23.057
14802SOL    HW156034   2.930   1.410  23.145
14802SOL    HW256035   2.968   1.527  23.057
14803SOL     OW56036   2.104   1.866  24.331
14803SOL    HW156037   2.067   1.950  24.359
14803SOL    HW256038   2.143   1.885  24.245
14804SOL     OW56039   4.518   1.724  20.219
14804SOL    HW156040   4.560   1.643  20.190
14804SOL    HW256041   4.544   1.789  20.154
14805SOL     OW56042   0.946   3.811  10.612
14805SOL    HW156043   1.026   3.813  10.558
14805SOL    HW256044   0.967   3.867  10.687
14806SOL     OW56045   0.390   4.128  20.753
14806SOL    HW156046   0.315   4.069  20.739
14806SOL    HW256047   0.383   4.154  20.845
14807SOL     OW56048   0.905   2.286  27.038
14807SOL    HW156049   0.846   2.362  27.039
14807SOL    HW256050   0.874   2.231  27.110
14808SOL     OW56051   2.332   4.208  18.580
14808SOL    HW156052   2.415   4.174  18.547
14808SOL    HW256053   2.266   4.150  18.543
14809SOL     OW56054   1.650   0.273  19.617
14809SOL    HW156055   1.724   0.267  19.557
14809SOL    HW256056   1.678   0.336  19.683
14810SOL     OW56057   4.348   3.322  23.236
14810SOL    HW156058   4.282   3.392  23.242
14810SOL    HW256059   4.323   3.260  23.306
14811SOL     OW56060   3.296   1.602   6.012
14811SOL    HW156061   3.232   1.566   6.073
14811SOL    HW256062   3.249   1.607   5.928
14812SOL     OW56063   1.025   3.791  27.656
14812SOL    HW156064   0.948   3.819  27.704
14812SOL    HW256065   1.017   3.833  27.571
14813SOL     OW56066   2.716   4.491   1.687
14813SOL    HW156067   2.629   4.523   1.708
14813SOL    HW256068   2.746   4.548   1.616
14814SOL     OW56069   1.859   2.465   5.925
14814SOL    HW156070   1.852   2.467   6.021
14814SOL    HW256071   1.917   2.539   5.905
14815SOL     OW56072   1.898   2.214   8.594
14815SOL    HW156073   1.907   2.150   8.664
14815SOL    HW256074   1.987   2.245   8.579
14816SOL     OW56075   3.003   3.028  27.514
14816SOL    HW156076   3.013   2.989  27.427
14816SOL    HW256077   2.909   3.020  27.534
14817SOL     OW56078   0.934   4.321  26.123
14817SOL    HW156079   0.997   4.265  26.079
14817SOL    HW256080   0.921   4.395  26.063
14818SOL     OW56081   2.865   0.269   6.989
14818SOL    HW156082   2.814   0.322   6.928
14818SOL    HW256083   2.953   0.307   6.987
14819SOL     OW56084   4.299   2.080   5.507
14819SOL    HW156085   4.370   2.100   5.446
14819SOL    HW256086   4.319   1.991   5.538
14820SOL     OW56087   1.925   2.679  22.704
14820SOL    HW156088   1.919   2.661  22.610
14820SOL    HW256089   1.864   2.751  22.719
14821SOL     OW56090   4.116   0.241   1.714
14821SOL    HW156091   4.081   0.173   1.772
14821SOL    HW256092   4.187   0.281   1.764
14822SOL     OW56093   2.218   4.433  11.107
14822SOL    HW156094   2.310   4.409  11.101
14822SOL    HW256095   2.208   4.471  11.195
14823SOL     OW56096   2.937   0.530   2.871
14823SOL    HW156097   2.883   0.509   2.947
14823SOL    HW256098   2.878   0.577   2.812
14824SOL     OW56099   0.722   0.617  26.029
14824SOL    HW156100   0.711   0.609  26.124
14824SOL    HW256101   0.777   0.543  26.005
14825SOL     OW56102   0.419   4.069   0.734
14825SOL    HW156103   0.423   4.161   0.707
14825SOL    HW256104   0.371   4.070   0.816
14826SOL     OW56105   3.133   4.293  21.719
14826SOL    HW156106   3.213   4.343  21.706
14826SOL    HW256107   3.136   4.267  21.812
14827SOL     OW56108   0.542   0.688  10.527
14827SOL    HW156109   0.553   0.704  10.621
14827SOL    HW256110   0.563   0.772  10.486
14828SOL     OW56111   4.201   2.236  19.838
14828SOL    HW156112   4.205   2.169  19.769
14828SOL    HW256113   4.287   2.278  19.835
14829SOL     OW56114   3.184   2.614  18.513
14829SOL    HW156115   3.237   2.600  18.435
14829SOL    HW256116   3.151   2.704  18.504
14830SOL     OW56117   0.394   1.773   7.413
14830SOL    HW156118   0.455   1.845   7.398
14830SOL    HW256119   0.340   1.770   7.334
14831SOL     OW56120   2.705   1.916  11.499
14831SOL    HW156121   2.759   1.942  11.573
14831SOL    HW256122   2.767   1.896  11.428
14832SOL     OW56123   3.330   0.121  20.137
14832SOL    HW156124   3.419   0.087  20.146
14832SOL    HW256125   3.312   0.160  20.223
14833SOL     OW56126   3.181   2.315   0.523
14833SOL    HW156127   3.104   2.306   0.468
14833SOL    HW256128   3.193   2.410   0.534
14834SOL     OW56129   3.291   3.793   0.027
14834SOL    HW156130   3.258   3.711   0.064
14834SOL    HW256131   3.366   3.766  28.504
14835SOL     OW56132   4.678   1.193   8.296
14835SOL    HW156133   4.755   1.154   8.336
14835SOL    HW256134   4.651   1.261   8.359
14836SOL     OW56135   0.793   2.122  26.749
14836SOL    HW156136   0.736   2.181  26.798
14836SOL    HW256137   0.844   2.077  26.816
14837SOL     OW56138   1.547   2.794   2.045
14837SOL    HW156139   1.642   2.794   2.033
14837SOL    HW256140   1.520   2.704   2.030
14838SOL     OW56141   0.946   0.705  23.317
14838SOL    HW156142   0.894   0.648  23.373
14838SOL    HW256143   0.924   0.677  23.228
14839SOL     OW56144   1.412   4.651  18.209
14839SOL    HW156145   1.371   4.737  18.201
14839SOL    HW256146   1.432   4.643  18.302
14840SOL     OW56147   4.569   2.947   7.822
14840SOL    HW156148   4.526   2.914   7.901
14840SOL    HW256149   4.498   2.965   7.761
14841SOL     OW56150   3.082   4.427  19.659
14841SOL    HW156151   3.141   4.487  19.705
14841SOL    HW256152   2.995   4.464  19.672
14842SOL     OW56153   1.528   3.947  21.050
14842SOL    HW156154   1.595   3.879  21.046
14842SOL    HW256155   1.564   4.020  20.999
14843SOL     OW56156   1.223   3.541   5.272
14843SOL    HW156157   1.304   3.517   5.228
14843SOL    HW256158   1.179   3.600   5.210
14844SOL     OW56159   3.155   2.177   9.269
14844SOL    HW156160   3.098   2.231   9.213
14844SOL    HW256161   3.095   2.121   9.318
14845SOL     OW56162   4.360   3.206   7.898
14845SOL    HW156163   4.354   3.287   7.948
14845SOL    HW256164   4.445   3.212   7.854
14846SOL     OW56165   0.580   0.791  26.922
14846SOL    HW156166   0.637   0.862  26.952
14846SOL    HW256167   0.564   0.738  27.000
14847SOL     OW56168   1.781   4.649   2.091
14847SOL    HW156169   1.806   4.573   2.142
14847SOL    HW256170   1.694   4.627   2.056
14848SOL     OW56171   3.475   1.651  24.547
14848SOL    HW156172   3.444   1.585  24.609
14848SOL    HW256173   3.424   1.634  24.468
14849SOL     OW56174   2.572   2.169   8.093
14849SOL    HW156175   2.516   2.169   8.170
14849SOL    HW256176   2.605   2.079   8.087
14850SOL     OW56177   3.065   3.927  22.085
14850SOL    HW156178   3.053   3.881  22.002
14850SOL    HW256179   3.128   3.996  22.066
14851SOL     OW56180   4.642   0.029  11.899
14851SOL    HW156181   4.602   4.747  11.958
14851SOL    HW256182   4.571   0.089  11.878
14852SOL     OW56183   1.619   2.778   7.286
14852SOL    HW156184   1.556   2.707   7.296
14852SOL    HW256185   1.679   2.748   7.218
14853SOL     OW56186   1.783   4.121   3.706
14853SOL    HW156187   1.762   4.178   3.632
14853SOL    HW256188   1.699   4.107   3.749
14854SOL     OW56189   3.709   1.987  27.821
14854SOL    HW156190   3.677   2.074  27.847
14854SOL    HW256191   3.791   1.976  27.868
14855SOL     OW56192   1.122   2.203   6.547
14855SOL    HW156193   1.207   2.248   6.541
14855SOL    HW256194   1.140   2.115   6.515
14856SOL     OW56195   2.468   4.541  19.450
14856SOL    HW156196   2.527   4.496  19.509
14856SOL    HW256197   2.388   4.488  19.450
14857SOL     OW56198   0.910   2.741   4.301
14857SOL    HW156199   0.905   2.759   4.207
14857SOL    HW256200   0.847   2.802   4.341
14858SOL     OW56201   1.179   4.125  27.601
14858SOL    HW156202   1.135   4.095  27.680
14858SOL    HW256203   1.130   4.086  27.529
14859SOL     OW56204   1.981   3.362   2.888
14859SOL    HW156205   2.016   3.445   2.921
14859SOL    HW256206   1.931   3.326   2.961
14860SOL     OW56207   4.204   3.620   2.180
14860SOL    HW156208   4.170   3.538   2.145
14860SOL    HW256209   4.140   3.647   2.246
14861SOL     OW56210   1.695   1.610   6.485
14861SOL    HW156211   1.757   1.674   6.520
14861SOL    HW256212   1.702   1.535   6.544
14862SOL     OW56213   2.886   4.734   4.330
14862SOL    HW156214   2.857   0.015   4.264
14862SOL    HW256215   2.899   4.653   4.281
14863SOL     OW56216   3.475   3.750  27.159
14863SOL    HW156217   3.545   3.815  27.154
14863SOL    HW256218   3.485   3.698  27.079
14864SOL     OW56219   2.242   2.515   2.929
14864SOL    HW156220   2.261   2.474   3.013
14864SOL    HW256221   2.150   2.495   2.913
14865SOL     OW56222   1.068   4.595   5.619
14865SOL    HW156223   1.014   4.675   5.612
14865SOL    HW256224   1.004   4.524   5.624
14866SOL     OW56225   2.632   0.381  22.502
14866SOL    HW156226   2.544   0.412  22.479
14866SOL    HW256227   2.659   0.327  22.427
14867SOL     OW56228   3.581   1.128   6.547
14867SOL    HW156229   3.514   1.191   6.524
14867SOL    HW256230   3.655   1.181   6.578
14868SOL     OW56231   2.167   0.075   4.282
14868SOL    HW156232   2.175   0.101   4.374
14868SOL    HW256233   2.240   0.120   4.238
14869SOL     OW56234   4.031   1.860  27.178
14869SOL    HW156235   3.961   1.886  27.118
14869SOL    HW256236   4.106   1.844  27.121
14870SOL     OW56237   3.260   3.817  24.465
14870SOL    HW156238   3.292   3.734  24.431
14870SOL    HW256239   3.340   3.867  24.484
14871SOL     OW56240   0.985   1.152   0.269
14871SOL    HW156241   1.025   1.100   0.199
14871SOL    HW256242   0.968   1.089   0.339
14872SOL     OW56243   0.227   0.506   6.486
14872SOL    HW156244   0.142   0.533   6.451
14872SOL    HW256245   0.248   0.571   6.552
14873SOL     OW56246   4.107   1.178   0.727
14873SOL    HW156247   4.097   1.105   0.667
14873SOL    HW256248   4.085   1.255   0.675
14874SOL     OW56249   2.859   1.064  25.485
14874SOL    HW156250   2.847   0.970  25.496
14874SOL    HW256251   2.770   1.100  25.486
14875SOL     OW56252   0.309   0.161   0.544
14875SOL    HW156253   0.214   0.156   0.532
14875SOL    HW256254   0.344   0.168   0.455
14876SOL     OW56255   1.178   1.447   7.169
14876SOL    HW156256   1.120   1.453   7.092
14876SOL    HW256257   1.264   1.474   7.137
14877SOL     OW56258   1.746   3.486   9.394
14877SOL    HW156259   1.754   3.574   9.359
14877SOL    HW256260   1.782   3.429   9.326
14878SOL     OW56261   2.332   4.464  25.285
14878SOL    HW156262   2.398   4.495  25.224
14878SOL    HW256263   2.249   4.469  25.236
14879SOL     OW56264   2.668   3.268   5.688
14879SOL    HW156265   2.751   3.251   5.642
14879SOL    HW256266   2.680   3.355   5.727
14880SOL     OW56267   3.745   1.136  24.811
14880SOL    HW156268   3.737   1.221  24.766
14880SOL    HW256269   3.783   1.078  24.745
14881SOL     OW56270   3.363   3.006   4.311
14881SOL    HW156271   3.277   2.984   4.274
14881SOL    HW256272   3.366   2.959   4.394
14882SOL     OW56273   3.055   2.137  18.161
14882SOL    HW156274   3.115   2.193  18.210
14882SOL    HW256275   3.002   2.094  18.228
14883SOL     OW56276   3.093   2.070  27.581
14883SOL    HW156277   3.120   2.118  27.659
14883SOL    HW256278   3.157   1.999  27.573
14884SOL     OW56279   3.078   4.217  24.686
14884SOL    HW156280   3.054   4.183  24.600
14884SOL    HW256281   3.159   4.171  24.708
14885SOL     OW56282   0.005   2.022  26.175
14885SOL    HW156283   4.769   1.965  26.100
14885SOL    HW256284   0.095   2.000  26.200
14886SOL     OW56285   0.650   4.245   5.527
14886SOL    HW156286   0.688   4.308   5.466
14886SOL    HW256287   0.604   4.298   5.592
14887SOL     OW56288   3.992   2.256  26.264
14887SOL    HW156289   3.926   2.271  26.332
14887SOL    HW256290   4.055   2.196  26.304
14888SOL     OW56291   2.592   2.217  11.439
14888SOL    HW156292   2.592   2.184  11.529
14888SOL    HW256293   2.671   2.180  11.400
14889SOL     OW56294   2.039   2.318   6.705
14889SOL    HW156295   2.002   2.383   6.765
14889SOL    HW256296   2.013   2.348   6.618
14890SOL     OW56297   1.117   2.354  17.495
14890SOL    HW156298   1.142   2.311  17.413
14890SOL    HW256299   1.161   2.304  17.563
14891SOL     OW56300   4.645   2.408  27.730
14891SOL    HW156301   4.669   2.372  27.644
14891SOL    HW256302   4.554   2.434  27.720
14892SOL     OW56303   4.384   3.598  28.005
14892SOL    HW156304   4.385   3.674  27.946
14892SOL    HW256305   4.468   3.602  28.050
14893SOL     OW56306   0.408   4.252  25.214
14893SOL    HW156307   0.368   4.336  25.191
14893SOL    HW256308   0.441   4.264  25.303
14894SOL     OW56309   3.493   2.096   6.657
14894SOL    HW156310   3.435   2.076   6.584
14894SOL    HW256311   3.554   2.160   6.623
14895SOL     OW56312   2.863   4.587  19.820
14895SOL    HW156313   2.888   4.679  19.807
14895SOL    HW256314   2.822   4.586  19.906
14896SOL     OW56315   4.191   2.664   2.255
14896SOL    HW156316   4.182   2.664   2.160
14896SOL    HW256317   4.150   2.746   2.283
14897SOL     OW56318   4.226   0.558   6.277
14897SOL    HW156319   4.134   0.532   6.269
14897SOL    HW256320   4.274   0.475   6.280
14898SOL     OW56321   0.732   3.849  27.670
14898SOL    HW156322   0.658   3.800  27.706
14898SOL    HW256323   0.702   3.880  27.585
14899SOL     OW56324   2.297   0.195  23.611
14899SOL    HW156325   2.332   0.263  23.553
14899SOL    HW256326   2.219   0.162  23.566
14900SOL     OW56327   0.729   1.512   0.682
14900SOL    HW156328   0.651   1.462   0.658
14900SOL    HW256329   0.730   1.587   0.623
14901SOL     OW56330   2.045   3.747  24.150
14901SOL    HW156331   2.042   3.787  24.063
14901SOL    HW256332   2.058   3.654  24.133
14902SOL     OW56333   1.507   2.352  21.721
14902SOL    HW156334   1.413   2.369  21.734
14902SOL    HW256335   1.512   2.312  21.635
14903SOL     OW56336   4.690   1.875   4.069
14903SOL    HW156337   4.742   1.826   4.004
14903SOL    HW256338   4.648   1.808   4.122
14904SOL     OW56339   3.500   1.871  25.802
14904SOL    HW156340   3.497   1.952  25.853
14904SOL    HW256341   3.443   1.889  25.727
14905SOL     OW56342   3.697   4.160  20.991
14905SOL    HW156343   3.625   4.181  21.052
14905SOL    HW256344   3.658   4.099  20.928
14906SOL     OW56345   1.634   0.280   9.829
14906SOL    HW156346   1.668   0.211   9.886
14906SOL    HW256347   1.628   0.238   9.743
14907SOL     OW56348   3.661   1.209   7.140
14907SOL    HW156349   3.635   1.241   7.226
14907SOL    HW256350   3.640   1.281   7.080
14908SOL     OW56351   0.503   3.396   2.774
14908SOL    HW156352   0.551   3.416   2.854
14908SOL    HW256353   0.525   3.305   2.754
14909SOL     OW56354   1.127   2.135  21.665
14909SOL    HW156355   1.145   2.126  21.759
14909SOL    HW256356   1.048   2.083  21.651
14910SOL     OW56357   0.121   0.449   2.227
14910SOL    HW156358   0.191   0.462   2.290
14910SOL    HW256359   0.042   0.441   2.280
14911SOL     OW56360   3.260   2.863  25.275
14911SOL    HW156361   3.262   2.767  25.282
14911SOL    HW256362   3.196   2.890  25.341
14912SOL     OW56363   4.672   1.697   0.871
14912SOL    HW156364   4.735   1.626   0.878
14912SOL    HW256365   4.650   1.720   0.962
14913SOL     OW56366   0.667   3.836  10.551
14913SOL    HW156367   0.649   3.930  10.539
14913SOL    HW256368   0.753   3.834  10.593
14914SOL     OW56369   2.454   2.209  25.011
14914SOL    HW156370   2.379   2.222  25.069
14914SOL    HW256371   2.500   2.134  25.048
14915SOL     OW56372   0.917   3.885   5.526
14915SOL    HW156373   0.882   3.949   5.588
14915SOL    HW256374   0.879   3.910   5.442
14916SOL     OW56375   0.589   1.695  18.621
14916SOL    HW156376   0.622   1.764  18.563
14916SOL    HW256377   0.600   1.731  18.709
14917SOL     OW56378   3.401   3.575  23.317
14917SOL    HW156379   3.306   3.580  23.317
14917SOL    HW256380   3.429   3.644  23.256
14918SOL     OW56381   0.412   2.887  26.512
14918SOL    HW156382   0.343   2.891  26.446
14918SOL    HW256383   0.398   2.965  26.566
14919SOL     OW56384   3.480   1.098  20.724
14919SOL    HW156385   3.541   1.172  20.730
14919SOL    HW256386   3.472   1.067  20.814
14920SOL     OW56387   2.147   1.937   1.942
14920SOL    HW156388   2.112   1.849   1.929
14920SOL    HW256389   2.110   1.989   1.870
14921SOL     OW56390   3.255   0.546   6.330
14921SOL    HW156391   3.267   0.570   6.422
14921SOL    HW256392   3.161   0.555   6.315
14922SOL     OW56393   3.416   0.685   2.022
14922SOL    HW156394   3.412   0.590   2.030
14922SOL    HW256395   3.505   0.708   2.050
14923SOL     OW56396   1.890   3.453  22.176
14923SOL    HW156397   1.932   3.530  22.213
14923SOL    HW256398   1.799   3.479  22.163
14924SOL     OW56399   0.400   4.576  21.902
14924SOL    HW156400   0.494   4.594  21.903
14924SOL    HW256401   0.362   4.643  21.958
14925SOL     OW56402   3.642   2.963   2.765
14925SOL    HW156403   3.624   2.914   2.846
14925SOL    HW256404   3.691   2.902   2.711
14926SOL     OW56405   4.710   1.784  24.505
14926SOL    HW156406   0.002   1.844  24.509
14926SOL    HW256407   4.687   1.779  24.413
14927SOL     OW56408   2.768   2.405   3.929
14927SOL    HW156409   2.806   2.466   3.993
14927SOL    HW256410   2.843   2.378   3.875
14928SOL     OW56411   3.590   1.054  22.993
14928SOL    HW156412   3.579   0.978  22.935
14928SOL    HW256413   3.518   1.048  23.055
14929SOL     OW56414   1.376   0.311   6.761
14929SOL    HW156415   1.350   0.233   6.810
14929SOL    HW256416   1.465   0.292   6.732
14930SOL     OW56417   2.994   4.536  26.844
14930SOL    HW156418   2.935   4.608  26.865
14930SOL    HW256419   2.994   4.481  26.922
14931SOL     OW56420   3.998   3.043   8.911
14931SOL    HW156421   4.000   3.125   8.861
14931SOL    HW256422   4.020   2.976   8.847
14932SOL     OW56423   3.673   0.412  23.554
14932SOL    HW156424   3.756   0.386  23.596
14932SOL    HW256425   3.685   0.389  23.462
14933SOL     OW56426   1.672   3.710  23.934
14933SOL    HW156427   1.587   3.753  23.924
14933SOL    HW256428   1.715   3.724  23.849
14934SOL     OW56429   2.444   1.076  22.040
14934SOL    HW156430   2.348   1.073  22.049
14934SOL    HW256431   2.476   1.054  22.128
14935SOL     OW56432   0.190   0.469  25.952
14935SOL    HW156433   0.150   0.396  25.906
14935SOL    HW256434   0.262   0.497  25.895
14936SOL     OW56435   0.953   0.477  20.978
14936SOL    HW156436   1.024   0.416  20.997
14936SOL    HW256437   0.876   0.422  20.965
14937SOL     OW56438   0.309   1.601  27.097
14937SOL    HW156439   0.263   1.603  27.181
14937SOL    HW256440   0.356   1.685  27.093
14938SOL     OW56441   3.331   0.763  19.508
14938SOL    HW156442   3.362   0.729  19.424
14938SOL    HW256443   3.235   0.759  19.502
14939SOL     OW56444   0.350   3.457   3.605
14939SOL    HW156445   0.302   3.398   3.663
14939SOL    HW256446   0.282   3.514   3.568
14940SOL     OW56447   4.122   0.787  21.845
14940SOL    HW156448   4.053   0.852  21.857
14940SOL    HW256449   4.159   0.807  21.759
14941SOL     OW56450   0.262   1.497  27.934
14941SOL    HW156451   0.294   1.485  28.023
14941SOL    HW256452   0.192   1.561  27.941
14942SOL     OW56453   3.773   3.148  18.538
14942SOL    HW156454   3.859   3.167  18.500
14942SOL    HW256455   3.790   3.082  18.606
14943SOL     OW56456   0.547   1.915  25.660
14943SOL    HW156457   0.526   1.946  25.572
14943SOL    HW256458   0.474   1.945  25.714
14944SOL     OW56459   2.858   0.400   9.809
14944SOL    HW156460   2.856   0.320   9.758
14944SOL    HW256461   2.931   0.390   9.870
14945SOL     OW56462   0.331   4.249  22.760
14945SOL    HW156463   0.306   4.279  22.672
14945SOL    HW256464   0.304   4.320  22.818
14946SOL     OW56465   1.475   4.060  25.009
14946SOL    HW156466   1.467   4.093  24.920
14946SOL    HW256467   1.397   4.007  25.023
14947SOL     OW56468   2.733   1.839  19.889
14947SOL    HW156469   2.783   1.794  19.958
14947SOL    HW256470   2.665   1.887  19.936
14948SOL     OW56471   0.427   3.594   0.225
14948SOL    HW156472   0.442   3.554   0.311
14948SOL    HW256473   0.441   3.688   0.239
14949SOL     OW56474   1.356   3.524   0.347
14949SOL    HW156475   1.394   3.517   0.435
14949SOL    HW256476   1.407   3.462   0.295
14950SOL     OW56477   1.995   3.575  22.543
14950SOL    HW156478   2.060   3.505  22.535
14950SOL    HW256479   1.921   3.535  22.589
14951SOL     OW56480   0.297   1.900  17.117
14951SOL    HW156481   0.309   1.973  17.177
14951SOL    HW256482   0.205   1.874  17.129
14952SOL     OW56483   3.721   2.328  25.322
14952SOL    HW156484   3.640   2.278  25.324
14952SOL    HW256485   3.754   2.317  25.233
14953SOL     OW56486   4.521   0.764   6.520
14953SOL    HW156487   4.550   0.707   6.591
14953SOL    HW256488   4.468   0.831   6.564
14954SOL     OW56489   3.890   3.216   8.211
14954SOL    HW156490   3.873   3.225   8.117
14954SOL    HW256491   3.834   3.144   8.238
14955SOL     OW56492   2.213   3.621  21.125
14955SOL    HW156493   2.202   3.536  21.167
14955SOL    HW256494   2.137   3.672  21.154
14956SOL     OW56495   1.519   3.123   2.073
14956SOL    HW156496   1.572   3.047   2.049
14956SOL    HW256497   1.452   3.089   2.131
14957SOL     OW56498   4.234   0.141  26.074
14957SOL    HW156499   4.177   0.146  26.150
14957SOL    HW256500   4.213   0.220  26.023
14958SOL     OW56501   4.466   3.282   4.154
14958SOL    HW156502   4.522   3.298   4.230
14958SOL    HW256503   4.519   3.310   4.079
14959SOL     OW56504   3.759   2.899  27.334
14959SOL    HW156505   3.747   2.926  27.425
14959SOL    HW256506   3.686   2.840  27.316
14960SOL     OW56507   2.566   4.562  26.302
14960SOL    HW156508   2.584   4.474  26.270
14960SOL    HW256509   2.619   4.570  26.381
14961SOL     OW56510   3.239   4.651   5.452
14961SOL    HW156511   3.210   4.591   5.383
14961SOL    HW256512   3.330   4.627   5.468
14962SOL     OW56513   3.817   3.838   0.097
14962SOL    HW156514   3.826   3.835   0.192
14962SOL    HW256515   3.890   3.892   0.068
14963SOL     OW56516   1.394   0.294   3.966
14963SOL    HW156517   1.312   0.343   3.968
14963SOL    HW256518   1.449   0.343   3.905
14964SOL     OW56519   4.485   1.644  23.602
14964SOL    HW156520   4.411   1.672  23.655
14964SOL    HW256521   4.559   1.693  23.637
14965SOL     OW56522   2.278   1.016   7.407
14965SOL    HW156523   2.202   0.963   7.383
14965SOL    HW256524   2.285   1.082   7.337
14966SOL     OW56525   2.560   2.361   6.660
14966SOL    HW156526   2.550   2.357   6.755
14966SOL    HW256527   2.605   2.445   6.645
14967SOL     OW56528   0.608   4.714   1.605
14967SOL    HW156529   0.563   4.730   1.688
14967SOL    HW256530   0.547   4.745   1.538
14968SOL     OW56531   0.243   2.665  27.087
14968SOL    HW156532   0.311   2.680  27.152
14968SOL    HW256533   0.161   2.687  27.132
14969SOL     OW56534   4.235   3.189   0.749
14969SOL    HW156535   4.249   3.259   0.813
14969SOL    HW256536   4.190   3.120   0.798
14970SOL     OW56537   1.071   1.272   6.665
14970SOL    HW156538   1.080   1.244   6.756
14970SOL    HW256539   1.119   1.205   6.615
14971SOL     OW56540   0.378   0.784   6.382
14971SOL    HW156541   0.327   0.707   6.357
14971SOL    HW256542   0.462   0.748   6.411
14972SOL     OW56543   2.676   1.310  23.322
14972SOL    HW156544   2.714   1.397  23.327
14972SOL    HW256545   2.592   1.317  23.368
14973SOL     OW56546   3.107   4.184   5.117
14973SOL    HW156547   3.143   4.120   5.057
14973SOL    HW256548   3.181   4.210   5.172
14974SOL     OW56549   0.898   0.210   9.929
14974SOL    HW156550   0.806   0.211   9.903
14974SOL    HW256551   0.906   0.285   9.989
14975SOL     OW56552   4.528   1.718  28.103
14975SOL    HW156553   4.453   1.717  28.162
14975SOL    HW256554   4.569   1.804  28.116
14976SOL     OW56555   0.979   1.166   6.365
14976SOL    HW156556   0.919   1.238   6.382
14976SOL    HW256557   0.933   1.111   6.301
14977SOL     OW56558   4.779   4.257   5.879
14977SOL    HW156559   0.013   4.228   5.968
14977SOL    HW256560   4.765   4.352   5.886
14978SOL     OW56561   4.300   0.935  27.142
14978SOL    HW156562   4.265   0.983  27.217
14978SOL    HW256563   4.223   0.912  27.090
14979SOL     OW56564   4.196   2.532   1.397
14979SOL    HW156565   4.155   2.515   1.482
14979SOL    HW256566   4.285   2.558   1.418
14980SOL     OW56567   2.014   4.562   9.695
14980SOL    HW156568   2.092   4.598   9.654
14980SOL    HW256569   2.026   4.579   9.789
14981SOL     OW56570   2.330   3.616  21.773
14981SOL    HW156571   2.286   3.677  21.714
14981SOL    HW256572   2.406   3.664  21.805
14982SOL     OW56573   1.079   3.154   8.552
14982SOL    HW156574   1.025   3.210   8.608
14982SOL    HW256575   1.144   3.214   8.514
14983SOL     OW56576   4.058   0.609   4.288
14983SOL    HW156577   4.072   0.673   4.357
14983SOL    HW256578   4.034   0.528   4.334
14984SOL     OW56579   1.286   0.522   4.067
14984SOL    HW156580   1.327   0.491   4.148
14984SOL    HW256581   1.193   0.530   4.088
14985SOL     OW56582   1.154   0.482  10.143
14985SOL    HW156583   1.228   0.423  10.125
14985SOL    HW256584   1.109   0.491  10.059
14986SOL     OW56585   0.768   1.091   8.585
14986SOL    HW156586   0.795   1.157   8.521
14986SOL    HW256587   0.839   1.026   8.584
14987SOL     OW56588   0.775   0.337  27.271
14987SOL    HW156589   0.784   0.313  27.363
14987SOL    HW256590   0.805   0.260  27.223
14988SOL     OW56591   0.105   2.506  21.464
14988SOL    HW156592   0.109   2.501  21.559
14988SOL    HW256593   0.068   2.592  21.446
14989SOL     OW56594   4.430   0.218  18.327
14989SOL    HW156595   4.375   0.163  18.271
14989SOL    HW256596   4.497   0.253  18.268
14990SOL     OW56597   0.480   2.092   8.151
14990SOL    HW156598   0.410   2.071   8.213
14990SOL    HW256599   0.530   2.011   8.143
14991SOL     OW56600   1.842   0.274   8.632
14991SOL    HW156601   1.816   0.334   8.562
14991SOL    HW256602   1.763   0.223   8.650
14992SOL     OW56603   4.084   4.741   4.002
14992SOL    HW156604   4.025   4.769   3.933
14992SOL    HW256605   4.054   0.004   4.081
14993SOL     OW56606   2.092   1.338  16.483
14993SOL    HW156607   2.151   1.406  16.518
14993SOL    HW256608   2.079   1.363  16.391
14994SOL     OW56609   0.330   2.584  25.715
14994SOL    HW156610   0.262   2.610  25.653
14994SOL    HW256611   0.359   2.498  25.683
14995SOL     OW56612   3.112   0.110  25.574
14995SOL    HW156613   3.140   0.111  25.665
14995SOL    HW256614   3.168   0.046  25.531
14996SOL     OW56615   1.807   4.268  26.844
14996SOL    HW156616   1.805   4.227  26.757
14996SOL    HW256617   1.875   4.220  26.891
14997SOL     OW56618   2.155   3.199  25.440
14997SOL    HW156619   2.200   3.283  25.430
14997SOL    HW256620   2.172   3.152  25.358
14998SOL     OW56621   2.567   1.896   2.133
14998SOL    HW156622   2.527   1.841   2.200
14998SOL    HW256623   2.542   1.857   2.050
14999SOL     OW56624   0.870   1.224   9.069
14999SOL    HW156625   0.911   1.310   9.061
14999SOL    HW256626   0.897   1.192   9.155
15000SOL     OW56627   0.931   1.010   2.586
15000SOL    HW156628   0.981   1.079   2.543
15000SOL    HW256629   0.866   0.983   2.521
15001SOL     OW56630   4.526   2.760   8.031
15001SOL    HW156631   4.462   2.690   8.023
15001SOL    HW256632   4.610   2.718   8.013
15002SOL     OW56633   3.226   3.142  27.314
15002SOL    HW156634   3.204   3.064  27.262
15002SOL    HW256635   3.142   3.188  27.325
15003SOL     OW56636   2.622   0.363   9.490
15003SOL    HW156637   2.593   0.303   9.558
15003SOL    HW256638   2.700   0.322   9.453
15004SOL     OW56639   3.923   4.366  21.010
15004SOL    HW156640   3.844   4.314  20.995
15004SOL    HW256641   3.953   4.390  20.922
15005SOL     OW56642   4.670   4.593   5.305
15005SOL    HW156643   4.709   4.506   5.297
15005SOL    HW256644   4.648   4.618   5.215
15006SOL     OW56645   1.036   1.665  27.483
15006SOL    HW156646   1.022   1.745  27.533
15006SOL    HW256647   1.084   1.694  27.405
15007SOL     OW56648   3.793   2.652  24.719
15007SOL    HW156649   3.734   2.712  24.765
15007SOL    HW256650   3.803   2.578  24.778
15008SOL     OW56651   2.380   1.423   4.339
15008SOL    HW156652   2.344   1.473   4.412
15008SOL    HW256653   2.475   1.435   4.346
15009SOL     OW56654   0.905   2.095  24.459
15009SOL    HW156655   0.813   2.071  24.448
15009SOL    HW256656   0.945   2.016  24.497
15010SOL     OW56657   3.525   4.336   9.282
15010SOL    HW156658   3.578   4.348   9.204
15010SOL    HW256659   3.551   4.408   9.340
15011SOL     OW56660   2.611   0.368   8.936
15011SOL    HW156661   2.627   0.325   9.020
15011SOL    HW256662   2.548   0.438   8.957
15012SOL     OW56663   4.635   0.041  26.349
15012SOL    HW156664   4.584   0.092  26.412
15012SOL    HW256665   4.600   0.066  26.264
15013SOL     OW56666   3.001   3.975  21.401
15013SOL    HW156667   3.086   4.007  21.429
15013SOL    HW256668   3.010   3.880  21.399
15014SOL     OW56669   0.443   0.627  26.397
15014SOL    HW156670   0.457   0.555  26.457
15014SOL    HW256671   0.418   0.586  26.314
15015SOL     OW56672   2.874   4.678   7.871
15015SOL    HW156673   2.800   4.708   7.923
15015SOL    HW256674   2.913   4.758   7.836
15016SOL     OW56675   3.494   0.716  25.319
15016SOL    HW156676   3.562   0.770  25.358
15016SOL    HW256677   3.517   0.626  25.343
15017SOL     OW56678   1.839   2.533  22.958
15017SOL    HW156679   1.907   2.578  22.908
15017SOL    HW256680   1.887   2.481  23.022
15018SOL     OW56681   2.631   4.202  20.693
15018SOL    HW156682   2.544   4.202  20.733
15018SOL    HW256683   2.626   4.268  20.625
15019SOL     OW56684   1.338   2.274   2.340
15019SOL    HW156685   1.350   2.359   2.381
15019SOL    HW256686   1.338   2.212   2.412
15020SOL     OW56687   4.668   3.843  20.596
15020SOL    HW156688   4.673   3.913  20.660
15020SOL    HW256689   4.758   3.812  20.587
15021SOL     OW56690   0.700   3.766   3.054
15021SOL    HW156691   0.644   3.770   2.977
15021SOL    HW256692   0.786   3.794   3.022
15022SOL     OW56693   1.951   1.673   2.158
15022SOL    HW156694   1.985   1.668   2.247
15022SOL    HW256695   2.024   1.706   2.106
15023SOL     OW56696   2.662   1.284  21.842
15023SOL    HW156697   2.721   1.328  21.903
15023SOL    HW256698   2.574   1.307  21.872
15024SOL     OW56699   3.278   1.573   1.935
15024SOL    HW156700   3.301   1.502   1.995
15024SOL    HW256701   3.191   1.550   1.903
15025SOL     OW56702   0.179   2.943   6.733
15025SOL    HW156703   0.120   2.907   6.800
15025SOL    HW256704   0.137   3.025   6.706
15026SOL     OW56705   2.282   1.888  10.649
15026SOL    HW156706   2.277   1.967  10.595
15026SOL    HW256707   2.262   1.816  10.589
15027SOL     OW56708   2.682   2.254   2.982
15027SOL    HW156709   2.667   2.161   2.963
15027SOL    HW256710   2.776   2.265   2.974
15028SOL     OW56711   1.886   3.906  25.452
15028SOL    HW156712   1.958   3.896  25.514
15028SOL    HW256713   1.906   3.844  25.382
15029SOL     OW56714   0.353   3.177  10.559
15029SOL    HW156715   0.271   3.170  10.510
15029SOL    HW256716   0.332   3.140  10.645
15030SOL     OW56717   4.757   4.703  26.658
15030SOL    HW156718   4.719   4.677  26.574
15030SOL    HW256719   4.731   4.633  26.718
15031SOL     OW56720   2.888   1.760  22.065
15031SOL    HW156721   2.900   1.786  22.156
15031SOL    HW256722   2.937   1.678  22.057
15032SOL     OW56723   0.305   3.683  20.897
15032SOL    HW156724   0.230   3.628  20.876
15032SOL    HW256725   0.272   3.746  20.960
15033SOL     OW56726   1.510   3.307   1.765
15033SOL    HW156727   1.545   3.324   1.853
15033SOL    HW256728   1.488   3.393   1.731
15034SOL     OW56729   1.960   0.621  13.417
15034SOL    HW156730   1.998   0.548  13.466
15034SOL    HW256731   1.872   0.630  13.454
15035SOL     OW56732   1.101   2.620  17.424
15035SOL    HW156733   1.121   2.538  17.470
15035SOL    HW256734   1.173   2.678  17.446
15036SOL     OW56735   1.173   3.100   7.536
15036SOL    HW156736   1.109   3.034   7.510
15036SOL    HW256737   1.241   3.051   7.581
15037SOL     OW56738   1.316   2.916   8.834
15037SOL    HW156739   1.266   2.936   8.913
15037SOL    HW256740   1.390   2.864   8.865
15038SOL     OW56741   1.075   4.170   5.625
15038SOL    HW156742   1.108   4.158   5.536
15038SOL    HW256743   1.152   4.155   5.681
15039SOL     OW56744   3.430   0.920  23.240
15039SOL    HW156745   3.484   0.840  23.235
15039SOL    HW256746   3.428   0.942  23.333
15040SOL     OW56747   2.884   0.932  28.202
15040SOL    HW156748   2.868   1.020  28.236
15040SOL    HW256749   2.808   0.914  28.147
15041SOL     OW56750   0.093   1.499   0.893
15041SOL    HW156751   0.141   1.573   0.856
15041SOL    HW256752   0.157   1.428   0.896
15042SOL     OW56753   4.575   1.962   6.224
15042SOL    HW156754   4.606   2.003   6.143
15042SOL    HW256755   4.485   1.994   6.233
15043SOL     OW56756   4.681   0.171   5.882
15043SOL    HW156757   4.646   0.236   5.822
15043SOL    HW256758   4.719   0.104   5.826
15044SOL     OW56759   1.352   3.635  20.277
15044SOL    HW156760   1.328   3.698  20.209
15044SOL    HW256761   1.394   3.563  20.229
15045SOL     OW56762   1.488   3.675  26.259
15045SOL    HW156763   1.456   3.702  26.173
15045SOL    HW256764   1.499   3.757  26.307
15046SOL     OW56765   3.048   1.869  25.442
15046SOL    HW156766   3.054   1.820  25.360
15046SOL    HW256767   2.995   1.946  25.419
15047SOL     OW56768   4.630   1.884  21.160
15047SOL    HW156769   4.650   1.884  21.067
15047SOL    HW256770   4.689   1.950  21.197
15048SOL     OW56771   1.720   4.758   8.344
15048SOL    HW156772   1.787   4.698   8.311
15048SOL    HW256773   1.642   4.738   8.292
15049SOL     OW56774   3.934   3.770   7.490
15049SOL    HW156775   3.999   3.817   7.438
15049SOL    HW256776   3.982   3.740   7.567
15050SOL     OW56777   0.648   1.740   1.924
15050SOL    HW156778   0.666   1.742   2.018
15050SOL    HW256779   0.730   1.768   1.884
15051SOL     OW56780   4.408   3.529   0.163
15051SOL    HW156781   4.467   3.572   0.225
15051SOL    HW256782   4.418   3.436   0.181
15052SOL     OW56783   3.581   1.179  27.651
15052SOL    HW156784   3.602   1.087  27.637
15052SOL    HW256785   3.506   1.196  27.593
15053SOL     OW56786   2.933   4.351  26.225
15053SOL    HW156787   2.909   4.429  26.275
15053SOL    HW256788   2.853   4.325  26.180
15054SOL     OW56789   0.287   3.142   3.368
15054SOL    HW156790   0.293   3.145   3.273
15054SOL    HW256791   0.376   3.120   3.397
15055SOL     OW56792   2.888   0.586  21.690
15055SOL    HW156793   2.915   0.501  21.655
15055SOL    HW256794   2.793   0.588  21.677
15056SOL     OW56795   0.630   2.189  25.194
15056SOL    HW156796   0.544   2.170  25.156
15056SOL    HW256797   0.649   2.278  25.166
15057SOL     OW56798   1.200   3.340  10.784
15057SOL    HW156799   1.276   3.385  10.821
15057SOL    HW256800   1.133   3.408  10.778
15058SOL     OW56801   0.540   4.526   0.860
15058SOL    HW156802   0.633   4.550   0.860
15058SOL    HW256803   0.494   4.610   0.848
15059SOL     OW56804   0.276   3.221   7.755
15059SOL    HW156805   0.325   3.139   7.756
15059SOL    HW256806   0.343   3.289   7.740
15060SOL     OW56807   1.887   0.531   2.351
15060SOL    HW156808   1.854   0.595   2.288
15060SOL    HW256809   1.837   0.549   2.431
15061SOL     OW56810   4.543   3.811   8.881
15061SOL    HW156811   4.497   3.807   8.965
15061SOL    HW256812   4.582   3.725   8.870
15062SOL     OW56813   4.089   0.015  20.227
15062SOL    HW156814   4.097   0.072  20.303
15062SOL    HW256815   3.997   0.022  20.201
15063SOL     OW56816   0.806   2.691  19.531
15063SOL    HW156817   0.728   2.643  19.506
15063SOL    HW256818   0.846   2.638  19.600
15064SOL     OW56819   0.874   3.471  10.877
15064SOL    HW156820   0.852   3.422  10.798
15064SOL    HW256821   0.872   3.407  10.948
15065SOL     OW56822   4.258   0.075  22.373
15065SOL    HW156823   4.199   0.148  22.355
15065SOL    HW256824   4.260   0.024  22.292
15066SOL     OW56825   4.547   2.363   5.505
15066SOL    HW156826   4.524   2.341   5.595
15066SOL    HW256827   4.610   2.435   5.512
15067SOL     OW56828   3.809   0.365   3.412
15067SOL    HW156829   3.841   0.283   3.374
15067SOL    HW256830   3.864   0.380   3.488
15068SOL     OW56831   0.546   0.331   8.605
15068SOL    HW156832   0.535   0.424   8.625
15068SOL    HW256833   0.524   0.323   8.513
15069SOL     OW56834   0.087   0.119  16.272
15069SOL    HW156835   0.037   0.194  16.305
15069SOL    HW256836   0.163   0.159  16.229
15070SOL     OW56837   2.863   1.408  27.652
15070SOL    HW156838   2.833   1.402  27.561
15070SOL    HW256839   2.956   1.389  27.648
15071SOL     OW56840   2.585   2.175  23.391
15071SOL    HW156841   2.538   2.222  23.459
15071SOL    HW256842   2.671   2.218  23.387
15072SOL     OW56843   4.715   1.524  19.532
15072SOL    HW156844   4.762   1.473  19.598
15072SOL    HW256845   4.763   1.508  19.451
15073SOL     OW56846   1.140   4.749   1.431
15073SOL    HW156847   1.086   0.046   1.433
15073SOL    HW256848   1.216   4.773   1.378
15074SOL     OW56849   4.254   2.268   1.706
15074SOL    HW156850   4.225   2.357   1.689
15074SOL    HW256851   4.179   2.213   1.685
15075SOL     OW56852   1.128   2.707   2.326
15075SOL    HW156853   1.069   2.638   2.356
15075SOL    HW256854   1.215   2.666   2.327
15076SOL     OW56855   2.062   0.311  14.031
15076SOL    HW156856   2.065   0.361  14.112
15076SOL    HW256857   2.145   0.330  13.987
15077SOL     OW56858   2.376   0.394  23.442
15077SOL    HW156859   2.424   0.426  23.518
15077SOL    HW256860   2.291   0.438  23.446
15078SOL     OW56861   0.213   4.309  22.528
15078SOL    HW156862   0.210   4.312  22.432
15078SOL    HW256863   0.133   4.352  22.556
15079SOL     OW56864   3.974   3.244   3.351
15079SOL    HW156865   3.981   3.227   3.445
15079SOL    HW256866   3.900   3.303   3.343
15080SOL     OW56867   1.847   3.106   6.669
15080SOL    HW156868   1.923   3.065   6.627
15080SOL    HW256869   1.776   3.095   6.606
15081SOL     OW56870   1.671   2.346  26.892
15081SOL    HW156871   1.607   2.310  26.831
15081SOL    HW256872   1.663   2.441  26.882
15082SOL     OW56873   3.638   0.346  27.949
15082SOL    HW156874   3.729   0.375  27.955
15082SOL    HW256875   3.638   0.259  27.988
15083SOL     OW56876   1.415   3.249  21.412
15083SOL    HW156877   1.414   3.179  21.478
15083SOL    HW256878   1.323   3.274  21.403
15084SOL     OW56879   0.407   0.003   0.826
15084SOL    HW156880   0.370   0.021   0.739
15084SOL    HW256881   0.432   0.089   0.859
15085SOL     OW56882   1.446   3.596  27.130
15085SOL    HW156883   1.498   3.579  27.208
15085SOL    HW256884   1.434   3.691  27.129
15086SOL     OW56885   0.144   2.631  25.507
15086SOL    HW156886   0.049   2.642  25.509
15086SOL    HW256887   0.172   2.680  25.430
15087SOL     OW56888   3.599   2.657  19.261
15087SOL    HW156889   3.504   2.665  19.264
15087SOL    HW256890   3.616   2.575  19.214
15088SOL     OW56891   4.243   0.233   6.584
15088SOL    HW156892   4.232   0.215   6.491
15088SOL    HW256893   4.264   0.326   6.589
15089SOL     OW56894   3.741   0.626  18.765
15089SOL    HW156895   3.776   0.591  18.683
15089SOL    HW256896   3.765   0.561  18.831
15090SOL     OW56897   1.865   1.542   1.828
15090SOL    HW156898   1.802   1.501   1.768
15090SOL    HW256899   1.946   1.492   1.816
15091SOL     OW56900   1.997   1.695  26.631
15091SOL    HW156901   2.055   1.745  26.689
15091SOL    HW256902   2.036   1.608  26.628
15092SOL     OW56903   3.275   2.370  22.469
15092SOL    HW156904   3.347   2.392  22.411
15092SOL    HW256905   3.282   2.433  22.541
15093SOL     OW56906   1.958   4.108  17.811
15093SOL    HW156907   1.979   4.114  17.718
15093SOL    HW256908   1.967   4.197  17.843
15094SOL     OW56909   2.797   4.310  23.970
15094SOL    HW156910   2.850   4.388  23.986
15094SOL    HW256911   2.749   4.328  23.889
15095SOL     OW56912   4.522   3.128   4.589
15095SOL    HW156913   4.478   3.049   4.556
15095SOL    HW256914   4.453   3.175   4.636
15096SOL     OW56915   1.955   0.817   4.426
15096SOL    HW156916   1.894   0.878   4.468
15096SOL    HW256917   1.899   0.758   4.376
15097SOL     OW56918   2.664   2.683   2.595
15097SOL    HW156919   2.663   2.613   2.660
15097SOL    HW256920   2.575   2.718   2.595
15098SOL     OW56921   2.181   4.520   2.074
15098SOL    HW156922   2.099   4.486   2.110
15098SOL    HW256923   2.153   4.580   2.004
15099SOL     OW56924   2.463   3.537  22.101
15099SOL    HW156925   2.522   3.463  22.119
15099SOL    HW256926   2.404   3.539  22.176
15100SOL     OW56927   2.366   2.860  27.906
15100SOL    HW156928   2.302   2.915  27.862
15100SOL    HW256929   2.332   2.771  27.898
15101SOL     OW56930   3.683   2.657   1.705
15101SOL    HW156931   3.690   2.724   1.773
15101SOL    HW256932   3.649   2.580   1.749
15102SOL     OW56933   3.305   3.366  20.304
15102SOL    HW156934   3.228   3.391  20.253
15102SOL    HW256935   3.285   3.279  20.339
15103SOL     OW56936   2.471   0.785  20.603
15103SOL    HW156937   2.546   0.819  20.554
15103SOL    HW256938   2.508   0.760  20.688
15104SOL     OW56939   3.263   4.509   5.125
15104SOL    HW156940   3.238   4.599   5.108
15104SOL    HW256941   3.325   4.487   5.055
15105SOL     OW56942   0.864   1.969   9.167
15105SOL    HW156943   0.801   2.021   9.217
15105SOL    HW256944   0.930   1.942   9.231
15106SOL     OW56945   4.734   0.281  10.101
15106SOL    HW156946   4.779   0.364  10.118
15106SOL    HW256947   0.022   0.220  10.080
15107SOL     OW56948   4.503   4.452  24.855
15107SOL    HW156949   4.464   4.519  24.799
15107SOL    HW256950   4.430   4.391  24.872
15108SOL     OW56951   0.616   0.661  23.588
15108SOL    HW156952   0.556   0.608  23.641
15108SOL    HW256953   0.663   0.598  23.534
15109SOL     OW56954   2.560   2.394   1.426
15109SOL    HW156955   2.649   2.409   1.394
15109SOL    HW256956   2.555   2.300   1.444
15110SOL     OW56957   0.343   2.807  28.267
15110SOL    HW156958   0.330   2.891  28.224
15110SOL    HW256959   0.317   2.742  28.202
15111SOL     OW56960   2.020   2.489   6.915
15111SOL    HW156961   2.100   2.465   6.962
15111SOL    HW256962   1.949   2.464   6.975
15112SOL     OW56963   2.922   1.229  23.934
15112SOL    HW156964   2.927   1.322  23.913
15112SOL    HW256965   2.990   1.189  23.880
15113SOL     OW56966   1.717   1.319   0.358
15113SOL    HW156967   1.710   1.288   0.267
15113SOL    HW256968   1.753   1.407   0.350
15114SOL     OW56969   1.199   2.505  22.715
15114SOL    HW156970   1.184   2.574  22.650
15114SOL    HW256971   1.294   2.507  22.731
15115SOL     OW56972   2.859   1.644  22.501
15115SOL    HW156973   2.780   1.698  22.510
15115SOL    HW256974   2.845   1.571  22.561
15116SOL     OW56975   3.835   3.173  19.835
15116SOL    HW156976   3.883   3.218  19.905
15116SOL    HW256977   3.826   3.083  19.866
15117SOL     OW56978   4.388   2.439   4.960
15117SOL    HW156979   4.379   2.534   4.965
15117SOL    HW256980   4.301   2.406   4.981
15118SOL     OW56981   2.360   1.855  26.032
15118SOL    HW156982   2.265   1.858  26.047
15118SOL    HW256983   2.398   1.889  26.113
15119SOL     OW56984   3.242   2.088  21.559
15119SOL    HW156985   3.170   2.122  21.612
15119SOL    HW256986   3.239   1.994  21.572
15120SOL     OW56987   2.899   2.919  23.572
15120SOL    HW156988   2.890   2.990  23.636
15120SOL    HW256989   2.993   2.913  23.554
15121SOL     OW56990   2.260   4.071   6.705
15121SOL    HW156991   2.334   4.124   6.735
15121SOL    HW256992   2.244   4.009   6.776
15122SOL     OW56993   2.321   2.124  24.345
15122SOL    HW156994   2.230   2.146  24.365
15122SOL    HW256995   2.369   2.148  24.424
15123SOL     OW56996   1.490   0.143   1.906
15123SOL    HW156997   1.471   0.094   1.986
15123SOL    HW256998   1.429   0.216   1.908
15124SOL     OW56999   4.456   3.138  27.294
15124SOL    HW157000   4.384   3.195  27.320
15124SOL    HW257001   4.415   3.051  27.284
15125SOL     OW57002   2.635   0.387  27.498
15125SOL    HW157003   2.555   0.382  27.550
15125SOL    HW257004   2.624   0.466  27.445
15126SOL     OW57005   0.561   1.566  22.935
15126SOL    HW157006   0.617   1.496  22.967
15126SOL    HW257007   0.479   1.523  22.912
15127SOL     OW57008   3.087   3.212  25.276
15127SOL    HW157009   3.173   3.169  25.280
15127SOL    HW257010   3.065   3.210  25.183
15128SOL     OW57011   2.663   3.919  10.909
15128SOL    HW157012   2.648   3.970  10.989
15128SOL    HW257013   2.694   3.983  10.845
15129SOL     OW57014   2.061   0.610   6.663
15129SOL    HW157015   2.093   0.526   6.695
15129SOL    HW257016   2.020   0.590   6.579
15130SOL     OW57017   2.744   3.123   8.370
15130SOL    HW157018   2.692   3.070   8.431
15130SOL    HW257019   2.834   3.094   8.383
15131SOL     OW57020   2.506   3.524   0.990
15131SOL    HW157021   2.490   3.494   1.080
15131SOL    HW257022   2.430   3.492   0.940
15132SOL     OW57023   1.702   2.900  24.154
15132SOL    HW157024   1.608   2.899  24.176
15132SOL    HW257025   1.741   2.958  24.220
15133SOL     OW57026   0.391   0.332  25.543
15133SOL    HW157027   0.296   0.331  25.534
15133SOL    HW257028   0.409   0.405  25.603
15134SOL     OW57029   2.800   4.382  17.032
15134SOL    HW157030   2.859   4.457  17.044
15134SOL    HW257031   2.858   4.309  17.012
15135SOL     OW57032   4.202   1.566   3.389
15135SOL    HW157033   4.182   1.473   3.386
15135SOL    HW257034   4.234   1.586   3.301
15136SOL     OW57035   2.997   2.617  22.997
15136SOL    HW157036   2.943   2.611  23.076
15136SOL    HW257037   2.942   2.663  22.933
15137SOL     OW57038   4.053   2.385  24.408
15137SOL    HW157039   4.108   2.364  24.483
15137SOL    HW257040   4.115   2.395  24.335
15138SOL     OW57041   3.823   2.162  10.278
15138SOL    HW157042   3.759   2.226  10.245
15138SOL    HW257043   3.843   2.192  10.367
15139SOL     OW57044   3.836   1.455   8.135
15139SOL    HW157045   3.818   1.410   8.217
15139SOL    HW257046   3.859   1.384   8.074
15140SOL     OW57047   1.677   2.326  27.884
15140SOL    HW157048   1.604   2.371  27.926
15140SOL    HW257049   1.748   2.391  27.882
15141SOL     OW57050   3.917   0.482  19.580
15141SOL    HW157051   3.959   0.403  19.616
15141SOL    HW257052   3.854   0.508  19.647
15142SOL     OW57053   4.763   4.772  20.305
15142SOL    HW157054   4.763   4.741  20.214
15142SOL    HW257055   0.004   0.082  20.298
15143SOL     OW57056   0.400   2.735   7.433
15143SOL    HW157057   0.385   2.647   7.397
15143SOL    HW257058   0.378   2.794   7.361
15144SOL     OW57059   4.273   2.836  25.872
15144SOL    HW157060   4.245   2.812  25.784
15144SOL    HW257061   4.350   2.893  25.857
15145SOL     OW57062   0.772   3.477  18.347
15145SOL    HW157063   0.729   3.491  18.431
15145SOL    HW257064   0.847   3.538  18.349
15146SOL     OW57065   4.382   1.216   7.636
15146SOL    HW157066   4.377   1.121   7.643
15146SOL    HW257067   4.379   1.247   7.727
15147SOL     OW57068   4.182   4.756  26.762
15147SOL    HW157069   4.229   4.736  26.682
15147SOL    HW257070   4.163   0.067  26.757
15148SOL     OW57071   3.463   2.720  26.849
15148SOL    HW157072   3.503   2.800  26.882
15148SOL    HW257073   3.428   2.745  26.763
15149SOL     OW57074   3.976   3.053   0.126
15149SOL    HW157075   3.930   3.085   0.049
15149SOL    HW257076   4.067   3.046   0.097
15150SOL     OW57077   0.488   3.251   9.463
15150SOL    HW157078   0.461   3.218   9.377
15150SOL    HW257079   0.529   3.176   9.505
15151SOL     OW57080   0.350   2.878   8.376
15151SOL    HW157081   0.411   2.843   8.312
15151SOL    HW257082   0.264   2.846   8.348
15152SOL     OW57083   2.408   0.421  27.046
15152SOL    HW157084   2.324   0.384  27.076
15152SOL    HW257085   2.471   0.392  27.112
15153SOL     OW57086   3.047   0.871   8.038
15153SOL    HW157087   2.973   0.867   7.978
15153SOL    HW257088   3.094   0.788   8.025
15154SOL     OW57089   1.839   1.985  28.001
15154SOL    HW157090   1.827   2.004  27.908
15154SOL    HW257091   1.768   1.925  28.022
15155SOL     OW57092   1.585   3.360  28.178
15155SOL    HW157093   1.503   3.339  28.133
15155SOL    HW257094   1.642   3.286  28.159
15156SOL     OW57095   4.169   0.531  27.042
15156SOL    HW157096   4.130   0.508  27.126
15156SOL    HW257097   4.247   0.477  27.036
15157SOL     OW57098   4.092   3.602   0.916
15157SOL    HW157099   4.072   3.667   0.983
15157SOL    HW257100   4.041   3.629   0.840
15158SOL     OW57101   2.138   1.502   6.597
15158SOL    HW157102   2.102   1.589   6.577
15158SOL    HW257103   2.071   1.441   6.566
15159SOL     OW57104   3.310   0.453   5.699
15159SOL    HW157105   3.253   0.390   5.653
15159SOL    HW257106   3.251   0.502   5.755
15160SOL     OW57107   2.672   0.877   8.556
15160SOL    HW157108   2.607   0.935   8.596
15160SOL    HW257109   2.620   0.817   8.502
15161SOL     OW57110   3.252   3.745   3.137
15161SOL    HW157111   3.228   3.831   3.173
15161SOL    HW257112   3.180   3.723   3.078
15162SOL     OW57113   4.231   2.272   7.600
15162SOL    HW157114   4.300   2.336   7.584
15162SOL    HW257115   4.185   2.264   7.516
15163SOL     OW57116   4.285   0.194  28.301
15163SOL    HW157117   4.255   0.248  28.228
15163SOL    HW257118   4.287   0.254  28.376
15164SOL     OW57119   4.749   2.898  17.344
15164SOL    HW157120   4.755   2.833  17.414
15164SOL    HW257121   0.047   2.885  17.293
15165SOL     OW57122   4.562   4.102   8.797
15165SOL    HW157123   4.500   4.099   8.725
15165SOL    HW257124   4.550   4.019   8.844
15166SOL     OW57125   4.501   4.302   4.215
15166SOL    HW157126   4.414   4.286   4.251
15166SOL    HW257127   4.559   4.245   4.265
15167SOL     OW57128   2.101   1.075   4.431
15167SOL    HW157129   2.045   0.997   4.430
15167SOL    HW257130   2.131   1.081   4.522
15168SOL     OW57131   2.248   0.795   6.671
15168SOL    HW157132   2.181   0.727   6.673
15168SOL    HW257133   2.315   0.765   6.732
15169SOL     OW57134   0.022   2.182  25.561
15169SOL    HW157135   0.111   2.154  25.584
15169SOL    HW257136   4.762   2.103  25.529
15170SOL     OW57137   0.859   0.828   8.490
15170SOL    HW157138   0.920   0.770   8.445
15170SOL    HW257139   0.867   0.805   8.583
15171SOL     OW57140   0.211   2.831  24.830
15171SOL    HW157141   0.176   2.773  24.762
15171SOL    HW257142   0.255   2.771  24.891
15172SOL     OW57143   3.916   4.731   0.089
15172SOL    HW157144   3.993   4.782   0.062
15172SOL    HW257145   3.841   0.003   0.064
15173SOL     OW57146   0.869   0.540  21.354
15173SOL    HW157147   0.865   0.445  21.365
15173SOL    HW257148   0.803   0.574  21.414
15174SOL     OW57149   4.110   0.428   0.491
15174SOL    HW157150   4.053   0.437   0.415
15174SOL    HW257151   4.053   0.392   0.559
15175SOL     OW57152   1.153   3.670   7.044
15175SOL    HW157153   1.146   3.762   7.017
15175SOL    HW257154   1.247   3.655   7.054
15176SOL     OW57155   2.180   3.505   3.747
15176SOL    HW157156   2.119   3.504   3.674
15176SOL    HW257157   2.176   3.417   3.783
15177SOL     OW57158   2.757   3.760   9.926
15177SOL    HW157159   2.832   3.736   9.980
15177SOL    HW257160   2.743   3.853   9.944
15178SOL     OW57161   1.198   4.119  20.457
15178SOL    HW157162   1.184   4.204  20.497
15178SOL    HW257163   1.255   4.137  20.382
15179SOL     OW57164   2.865   4.493  26.484
15179SOL    HW157165   2.956   4.495  26.515
15179SOL    HW257166   2.825   4.570  26.523
15180SOL     OW57167   1.567   4.553  17.999
15180SOL    HW157168   1.495   4.612  18.020
15180SOL    HW257169   1.638   4.582  18.057
15181SOL     OW57170   3.266   1.028   0.846
15181SOL    HW157171   3.228   1.087   0.781
15181SOL    HW257172   3.264   0.942   0.804
15182SOL     OW57173   0.263   1.506   3.287
15182SOL    HW157174   0.308   1.513   3.203
15182SOL    HW257175   0.198   1.437   3.274
15183SOL     OW57176   0.897   0.580   7.221
15183SOL    HW157177   0.804   0.591   7.198
15183SOL    HW257178   0.928   0.670   7.235
15184SOL     OW57179   2.167   0.134   2.707
15184SOL    HW157180   2.139   0.173   2.624
15184SOL    HW257181   2.250   0.177   2.727
15185SOL     OW57182   2.223   1.668   6.252
15185SOL    HW157183   2.132   1.688   6.231
15185SOL    HW257184   2.271   1.749   6.233
15186SOL     OW57185   4.034   1.190   8.211
15186SOL    HW157186   4.021   1.123   8.278
15186SOL    HW257187   3.970   1.169   8.143
15187SOL     OW57188   0.778   0.469   2.058
15187SOL    HW157189   0.735   0.511   1.984
15187SOL    HW257190   0.715   0.477   2.130
15188SOL     OW57191   1.088   0.969   9.601
15188SOL    HW157192   1.121   0.921   9.525
15188SOL    HW257193   1.135   0.930   9.676
15189SOL     OW57194   0.971   4.096  19.413
15189SOL    HW157195   0.938   4.143  19.489
15189SOL    HW257196   1.025   4.026  19.449
15190SOL     OW57197   3.089   0.171  28.191
15190SOL    HW157198   3.049   0.249  28.152
15190SOL    HW257199   3.183   0.181  28.174
15191SOL     OW57200   3.820   0.632   3.745
15191SOL    HW157201   3.823   0.559   3.807
15191SOL    HW257202   3.883   0.696   3.780
15192SOL     OW57203   3.013   0.829  25.267
15192SOL    HW157204   2.981   0.739  25.263
15192SOL    HW257205   2.978   0.864  25.349
15193SOL     OW57206   4.752   3.502   4.791
15193SOL    HW157207   4.656   3.495   4.781
15193SOL    HW257208   4.773   3.588   4.753
15194SOL     OW57209   0.952   4.183  21.604
15194SOL    HW157210   1.045   4.183  21.580
15194SOL    HW257211   0.936   4.095  21.638
15195SOL     OW57212   0.594   3.873   9.267
15195SOL    HW157213   0.629   3.903   9.351
15195SOL    HW257214   0.616   3.780   9.263
15196SOL     OW57215   3.492   1.237  26.042
15196SOL    HW157216   3.421   1.270  25.987
15196SOL    HW257217   3.533   1.316  26.078
15197SOL     OW57218   4.213   4.086   3.572
15197SOL    HW157219   4.301   4.123   3.562
15197SOL    HW257220   4.154   4.159   3.551
15198SOL     OW57221   1.975   0.645   8.025
15198SOL    HW157222   2.009   0.602   8.103
15198SOL    HW257223   2.052   0.682   7.982
15199SOL     OW57224   4.340   4.517  22.619
15199SOL    HW157225   4.358   4.444  22.559
15199SOL    HW257226   4.253   4.498  22.655
15200SOL     OW57227   1.229   0.180   7.334
15200SOL    HW157228   1.161   0.136   7.284
15200SOL    HW257229   1.227   0.137   7.420
15201SOL     OW57230   2.011   0.342  26.810
15201SOL    HW157231   2.065   0.387  26.875
15201SOL    HW257232   2.044   0.372  26.726
15202SOL     OW57233   0.414   4.531   0.480
15202SOL    HW157234   0.477   4.583   0.530
15202SOL    HW257235   0.433   4.552   0.389
15203SOL     OW57236   3.800   4.526  24.773
15203SOL    HW157237   3.839   4.455  24.824
15203SOL    HW257238   3.819   4.504  24.682
15204SOL     OW57239   3.288   3.430   6.207
15204SOL    HW157240   3.250   3.515   6.227
15204SOL    HW257241   3.244   3.403   6.126
15205SOL     OW57242   4.767   0.872   0.482
15205SOL    HW157243   0.012   0.848   0.394
15205SOL    HW257244   0.062   0.912   0.522
15206SOL     OW57245   1.909   2.319   4.093
15206SOL    HW157246   1.863   2.254   4.039
15206SOL    HW257247   1.996   2.282   4.104
15207SOL     OW57248   0.391   2.784   4.499
15207SOL    HW157249   0.353   2.700   4.473
15207SOL    HW257250   0.463   2.761   4.557
15208SOL     OW57251   3.952   2.724  21.782
15208SOL    HW157252   3.908   2.802  21.750
15208SOL    HW257253   3.917   2.653  21.729
15209SOL     OW57254   4.059   2.085  28.452
15209SOL    HW157255   4.013   2.072   0.004
15209SOL    HW257256   4.069   2.180  28.444
15210SOL     OW57257   1.612   3.022   8.981
15210SOL    HW157258   1.696   2.975   8.982
15210SOL    HW257259   1.628   3.102   9.030
15211SOL     OW57260   1.411   0.681  23.364
15211SOL    HW157261   1.411   0.754  23.302
15211SOL    HW257262   1.497   0.687  23.406
15212SOL     OW57263   2.240   3.393  27.733
15212SOL    HW157264   2.326   3.434  27.722
15212SOL    HW257265   2.242   3.358  27.822
15213SOL     OW57266   2.053   4.472   6.275
15213SOL    HW157267   2.095   4.539   6.330
15213SOL    HW257268   1.968   4.458   6.316
15214SOL     OW57269   0.898   2.066  17.545
15214SOL    HW157270   0.972   2.014  17.513
15214SOL    HW257271   0.831   2.001  17.568
15215SOL     OW57272   0.162   0.982  17.983
15215SOL    HW157273   0.124   0.895  17.996
15215SOL    HW257274   0.130   1.009  17.897
15216SOL     OW57275   2.341   0.255   8.439
15216SOL    HW157276   2.356   0.326   8.377
15216SOL    HW257277   2.351   0.296   8.525
15217SOL     OW57278   0.474   2.369   2.302
15217SOL    HW157279   0.536   2.299   2.282
15217SOL    HW257280   0.390   2.324   2.313
15218SOL     OW57281   0.581   1.010  21.756
15218SOL    HW157282   0.574   0.956  21.835
15218SOL    HW257283   0.492   1.015  21.722
15219SOL     OW57284   3.790   1.529  27.070
15219SOL    HW157285   3.860   1.523  27.005
15219SOL    HW257286   3.803   1.452  27.127
15220SOL     OW57287   2.353   4.309   7.132
15220SOL    HW157288   2.445   4.328   7.152
15220SOL    HW257289   2.315   4.283   7.217
15221SOL     OW57290   0.905   0.435   2.974
15221SOL    HW157291   0.925   0.529   2.976
15221SOL    HW257292   0.931   0.407   2.886
15222SOL     OW57293   2.305   3.755   3.571
15222SOL    HW157294   2.364   3.716   3.506
15222SOL    HW257295   2.249   3.683   3.598
15223SOL     OW57296   1.165   3.204  23.441
15223SOL    HW157297   1.174   3.166  23.353
15223SOL    HW257298   1.073   3.187  23.464
15224SOL     OW57299   3.823   4.131  26.105
15224SOL    HW157300   3.889   4.147  26.171
15224SOL    HW257301   3.772   4.212  26.100
15225SOL     OW57302   4.730   3.891  20.893
15225SOL    HW157303   4.640   3.888  20.926
15225SOL    HW257304   4.743   3.982  20.866
15226SOL     OW57305   1.624   1.151  22.330
15226SOL    HW157306   1.703   1.130  22.379
15226SOL    HW257307   1.596   1.067  22.292
15227SOL     OW57308   0.334   1.027  17.330
15227SOL    HW157309   0.419   0.985  17.342
15227SOL    HW257310   0.349   1.095  17.265
15228SOL     OW57311   2.188   4.344   1.775
15228SOL    HW157312   2.119   4.371   1.835
15228SOL    HW257313   2.153   4.265   1.732
15229SOL     OW57314   2.505   2.381  27.888
15229SOL    HW157315   2.476   2.382  27.797
15229SOL    HW257316   2.509   2.288  27.911
15230SOL     OW57317   4.468   1.138  27.034
15230SOL    HW157318   4.433   1.054  27.063
15230SOL    HW257319   4.559   1.137  27.064
15231SOL     OW57320   1.557   1.665   0.352
15231SOL    HW157321   1.574   1.629   0.440
15231SOL    HW257322   1.466   1.692   0.356
15232SOL     OW57323   3.842   1.637   2.763
15232SOL    HW157324   3.815   1.721   2.800
15232SOL    HW257325   3.805   1.571   2.821
15233SOL     OW57326   2.674   2.907   2.832
15233SOL    HW157327   2.733   2.980   2.816
15233SOL    HW257328   2.725   2.829   2.809
15234SOL     OW57329   1.340   2.083   6.063
15234SOL    HW157330   1.338   1.998   6.108
15234SOL    HW257331   1.249   2.103   6.044
15235SOL     OW57332   1.752   1.444   2.572
15235SOL    HW157333   1.684   1.415   2.633
15235SOL    HW257334   1.728   1.535   2.552
15236SOL     OW57335   2.444   0.774   2.498
15236SOL    HW157336   2.404   0.781   2.584
15236SOL    HW257337   2.420   0.686   2.467
15237SOL     OW57338   4.066   4.159   4.993
15237SOL    HW157339   3.997   4.174   4.929
15237SOL    HW257340   4.101   4.073   4.971
15238SOL     OW57341   3.347   0.493  27.483
15238SOL    HW157342   3.266   0.453  27.515
15238SOL    HW257343   3.406   0.493  27.558
15239SOL     OW57344   2.141   1.557  20.777
15239SOL    HW157345   2.076   1.541  20.845
15239SOL    HW257346   2.095   1.541  20.695
15240SOL     OW57347   2.722   2.526   0.999
15240SOL    HW157348   2.700   2.449   1.051
15240SOL    HW257349   2.818   2.529   1.001
15241SOL     OW57350   2.132   3.018  20.782
15241SOL    HW157351   2.081   2.951  20.828
15241SOL    HW257352   2.223   3.000  20.807
15242SOL     OW57353   1.477   0.110   7.480
15242SOL    HW157354   1.405   0.166   7.453
15242SOL    HW257355   1.470   0.033   7.423
15243SOL     OW57356   3.395   1.469   8.521
15243SOL    HW157357   3.481   1.469   8.563
15243SOL    HW257358   3.376   1.376   8.507
15244SOL     OW57359   0.519   4.397   4.272
15244SOL    HW157360   0.554   4.323   4.224
15244SOL    HW257361   0.460   4.441   4.210
15245SOL     OW57362   4.457   1.935  18.995
15245SOL    HW157363   4.408   2.012  19.024
15245SOL    HW257364   4.538   1.971  18.959
15246SOL     OW57365   4.052   1.364   5.213
15246SOL    HW157366   4.052   1.269   5.207
15246SOL    HW257367   4.142   1.390   5.194
15247SOL     OW57368   4.312   1.457   3.869
15247SOL    HW157369   4.312   1.486   3.961
15247SOL    HW257370   4.331   1.536   3.819
15248SOL     OW57371   2.133   2.626   4.173
15248SOL    HW157372   2.165   2.635   4.262
15248SOL    HW257373   2.166   2.703   4.127
15249SOL     OW57374   2.957   0.437  27.322
15249SOL    HW157375   2.935   0.364  27.265
15249SOL    HW257376   2.933   0.515  27.272
15250SOL     OW57377   4.659   4.502   6.834
15250SOL    HW157378   4.633   4.511   6.742
15250SOL    HW257379   4.582   4.527   6.884
15251SOL     OW57380   3.900   4.213   4.776
15251SOL    HW157381   3.828   4.162   4.814
15251SOL    HW257382   3.921   4.167   4.694
15252SOL     OW57383   0.069   0.909  11.912
15252SOL    HW157384   0.056   0.875  12.001
15252SOL    HW257385   0.067   1.004  11.922
15253SOL     OW57386   3.245   0.304   3.626
15253SOL    HW157387   3.203   0.390   3.623
15253SOL    HW257388   3.173   0.242   3.635
15254SOL     OW57389   1.816   0.422   9.958
15254SOL    HW157390   1.749   0.361   9.927
15254SOL    HW257391   1.794   0.505   9.916
15255SOL     OW57392   4.638   0.894  27.821
15255SOL    HW157393   4.659   0.936  27.737
15255SOL    HW257394   4.716   0.909  27.875
15256SOL     OW57395   2.094   0.704  26.998
15256SOL    HW157396   2.173   0.661  26.967
15256SOL    HW257397   2.123   0.758  27.071
15257SOL     OW57398   1.855   4.151  22.531
15257SOL    HW157399   1.888   4.234  22.497
15257SOL    HW257400   1.855   4.093  22.455
15258SOL     OW57401   0.941   2.524  20.473
15258SOL    HW157402   1.023   2.528  20.423
15258SOL    HW257403   0.960   2.574  20.553
15259SOL     OW57404   4.137   4.512  18.595
15259SOL    HW157405   4.196   4.533  18.523
15259SOL    HW257406   4.192   4.472  18.662
15260SOL     OW57407   2.515   0.035   5.252
15260SOL    HW157408   2.534   0.096   5.324
15260SOL    HW257409   2.510   4.732   5.294
15261SOL     OW57410   3.675   3.969  21.665
15261SOL    HW157411   3.755   3.982  21.716
15261SOL    HW257412   3.642   3.884  21.693
15262SOL     OW57413   4.586   4.691   5.057
15262SOL    HW157414   4.649   4.680   4.986
15262SOL    HW257415   4.533   4.611   5.055
15263SOL     OW57416   1.926   2.021   9.117
15263SOL    HW157417   1.919   2.052   9.208
15263SOL    HW257418   2.016   2.040   9.092
15264SOL     OW57419   0.270   1.550  24.080
15264SOL    HW157420   0.309   1.476  24.126
15264SOL    HW257421   0.241   1.608  24.151
15265SOL     OW57422   4.714   2.902  22.349
15265SOL    HW157423   4.687   2.880  22.260
15265SOL    HW257424   4.767   2.827  22.377
15266SOL     OW57425   3.375   1.272  22.842
15266SOL    HW157426   3.286   1.298  22.865
15266SOL    HW257427   3.364   1.198  22.782
15267SOL     OW57428   2.590   4.775  19.566
15267SOL    HW157429   2.562   4.753  19.655
15267SOL    HW257430   2.552   4.706  19.512
15268SOL     OW57431   1.618   4.542   0.498
15268SOL    HW157432   1.543   4.555   0.557
15268SOL    HW257433   1.611   4.450   0.472
15269SOL     OW57434   1.540   0.947  23.536
15269SOL    HW157435   1.500   1.002  23.603
15269SOL    HW257436   1.472   0.939  23.469
15270SOL     OW57437   4.018   3.444  26.412
15270SOL    HW157438   4.032   3.351  26.430
15270SOL    HW257439   4.028   3.486  26.498
15271SOL     OW57440   3.068   0.674   9.156
15271SOL    HW157441   3.143   0.615   9.147
15271SOL    HW257442   3.093   0.752   9.107
15272SOL     OW57443   2.648   4.689   7.197
15272SOL    HW157444   2.598   4.660   7.121
15272SOL    HW257445   2.655   0.002   7.186
15273SOL     OW57446   4.427   3.358   6.235
15273SOL    HW157447   4.339   3.321   6.233
15273SOL    HW257448   4.485   3.284   6.220
15274SOL     OW57449   4.357   4.699  26.544
15274SOL    HW157450   4.395   0.004  26.549
15274SOL    HW257451   4.403   4.649  26.612
15275SOL     OW57452   4.090   3.742  24.364
15275SOL    HW157453   4.042   3.740  24.282
15275SOL    HW257454   4.057   3.819  24.410
15276SOL     OW57455   3.509   2.773   1.509
15276SOL    HW157456   3.576   2.744   1.571
15276SOL    HW257457   3.435   2.800   1.564
15277SOL     OW57458   4.029   3.438   1.648
15277SOL    HW157459   4.074   3.406   1.726
15277SOL    HW257460   3.947   3.389   1.644
15278SOL     OW57461   0.967   2.697   6.179
15278SOL    HW157462   0.989   2.785   6.148
15278SOL    HW257463   0.886   2.675   6.133
15279SOL     OW57464   1.523   0.483  22.330
15279SOL    HW157465   1.467   0.548  22.373
15279SOL    HW257466   1.600   0.476  22.387
15280SOL     OW57467   0.302   0.885   5.424
15280SOL    HW157468   0.253   0.961   5.456
15280SOL    HW257469   0.273   0.813   5.479
15281SOL     OW57470   1.383   1.989   3.218
15281SOL    HW157471   1.373   1.894   3.213
15281SOL    HW257472   1.459   2.002   3.274
15282SOL     OW57473   4.688   3.169   8.129
15282SOL    HW157474   4.664   3.244   8.076
15282SOL    HW257475   4.776   3.146   8.100
15283SOL     OW57476   0.358   4.200   3.140
15283SOL    HW157477   0.426   4.268   3.128
15283SOL    HW257478   0.361   4.180   3.233
15284SOL     OW57479   2.600   4.392  28.529
15284SOL    HW157480   2.642   4.435   0.072
15284SOL    HW257481   2.660   4.321  28.504
15285SOL     OW57482   1.653   1.958  10.429
15285SOL    HW157483   1.585   1.910  10.383
15285SOL    HW257484   1.725   1.964  10.367
15286SOL     OW57485   1.144   4.406   7.544
15286SOL    HW157486   1.114   4.346   7.612
15286SOL    HW257487   1.178   4.348   7.475
15287SOL     OW57488   3.882   2.005  23.921
15287SOL    HW157489   3.844   1.992  24.007
15287SOL    HW257490   3.976   2.017  23.937
15288SOL     OW57491   2.222   0.716  21.156
15288SOL    HW157492   2.263   0.725  21.242
15288SOL    HW257493   2.134   0.683  21.175
15289SOL     OW57494   1.847   3.470   5.816
15289SOL    HW157495   1.899   3.504   5.888
15289SOL    HW257496   1.756   3.480   5.844
15290SOL     OW57497   4.726   2.336  16.993
15290SOL    HW157498   4.767   2.423  16.988
15290SOL    HW257499   4.760   2.300  17.075
15291SOL     OW57500   3.098   0.336  26.334
15291SOL    HW157501   3.125   0.322  26.243
15291SOL    HW257502   3.002   0.341  26.330
15292SOL     OW57503   4.307   2.709   3.109
15292SOL    HW157504   4.264   2.632   3.146
15292SOL    HW257505   4.313   2.770   3.183
15293SOL     OW57506   1.680   1.499  20.159
15293SOL    HW157507   1.657   1.489  20.251
15293SOL    HW257508   1.599   1.527  20.116
15294SOL     OW57509   4.466   0.710  23.637
15294SOL    HW157510   4.498   0.698  23.726
15294SOL    HW257511   4.532   0.668  23.582
15295SOL     OW57512   1.504   3.391  22.329
15295SOL    HW157513   1.564   3.322  22.359
15295SOL    HW257514   1.514   3.391  22.234
15296SOL     OW57515   2.775   1.776  23.751
15296SOL    HW157516   2.807   1.865  23.766
15296SOL    HW257517   2.680   1.784  23.748
15297SOL     OW57518   3.581   2.506  18.161
15297SOL    HW157519   3.677   2.498  18.163
15297SOL    HW257520   3.554   2.453  18.086
15298SOL     OW57521   1.188   4.244  19.287
15298SOL    HW157522   1.203   4.225  19.195
15298SOL    HW257523   1.116   4.187  19.312
15299SOL     OW57524   0.078   1.454   7.077
15299SOL    HW157525   0.046   1.376   7.123
15299SOL    HW257526   0.146   1.421   7.019
15300SOL     OW57527   2.374   2.814   3.444
15300SOL    HW157528   2.305   2.853   3.498
15300SOL    HW257529   2.386   2.726   3.480
15301SOL     OW57530   0.468   3.640   1.696
15301SOL    HW157531   0.414   3.579   1.647
15301SOL    HW257532   0.441   3.628   1.787
15302SOL     OW57533   1.404   0.616  21.502
15302SOL    HW157534   1.405   0.697  21.451
15302SOL    HW257535   1.423   0.547  21.439
15303SOL     OW57536   2.299   1.928   7.258
15303SOL    HW157537   2.239   1.856   7.274
15303SOL    HW257538   2.248   2.007   7.277
15304SOL     OW57539   2.673   3.424  28.237
15304SOL    HW157540   2.622   3.493  28.195
15304SOL    HW257541   2.618   3.346  28.229
15305SOL     OW57542   0.015   0.404  11.397
15305SOL    HW157543   0.075   0.479  11.400
15305SOL    HW257544   0.060   0.336  11.447
15306SOL     OW57545   4.500   2.970  23.693
15306SOL    HW157546   4.479   2.983  23.600
15306SOL    HW257547   4.455   2.888  23.716
15307SOL     OW57548   2.871   0.969   2.841
15307SOL    HW157549   2.931   0.962   2.916
15307SOL    HW257550   2.889   0.891   2.788
15308SOL     OW57551   2.454   3.693  22.815
15308SOL    HW157552   2.406   3.775  22.800
15308SOL    HW257553   2.391   3.624  22.798
15309SOL     OW57554   2.290   4.387  20.476
15309SOL    HW157555   2.364   4.428  20.430
15309SOL    HW257556   2.318   4.296  20.489
15310SOL     OW57557   0.205   4.370  10.485
15310SOL    HW157558   0.141   4.408  10.545
15310SOL    HW257559   0.285   4.419  10.501
15311SOL     OW57560   3.193   0.130  25.152
15311SOL    HW157561   3.283   0.158  25.166
15311SOL    HW257562   3.145   0.166  25.226
15312SOL     OW57563   3.890   0.966  27.762
15312SOL    HW157564   3.809   0.976  27.712
15312SOL    HW257565   3.919   1.056  27.778
15313SOL     OW57566   2.668   4.175  24.386
15313SOL    HW157567   2.639   4.137  24.303
15313SOL    HW257568   2.707   4.259  24.361
15314SOL     OW57569   0.818   3.900  19.606
15314SOL    HW157570   0.780   3.914  19.519
15314SOL    HW257571   0.899   3.852  19.589
15315SOL     OW57572   1.617   0.750  26.743
15315SOL    HW157573   1.688   0.800  26.703
15315SOL    HW257574   1.635   0.754  26.837
15316SOL     OW57575   2.483   4.773  23.244
15316SOL    HW157576   2.562   4.756  23.192
15316SOL    HW257577   2.509   4.756  23.334
15317SOL     OW57578   2.638   3.618  21.444
15317SOL    HW157579   2.545   3.598  21.445
15317SOL    HW257580   2.663   3.617  21.352
15318SOL     OW57581   2.982   4.207  23.696
15318SOL    HW157582   2.954   4.209  23.605
15318SOL    HW257583   2.962   4.294  23.730
15319SOL     OW57584   1.976   1.657  27.610
15319SOL    HW157585   1.927   1.729  27.650
15319SOL    HW257586   1.908   1.591  27.591
15320SOL     OW57587   2.888   0.993   8.234
15320SOL    HW157588   2.957   0.967   8.173
15320SOL    HW257589   2.817   0.931   8.217
15321SOL     OW57590   4.657   0.050   2.248
15321SOL    HW157591   4.705   4.776   2.308
15321SOL    HW257592   4.585   4.778   2.216
15322SOL     OW57593   3.517   3.531   3.416
15322SOL    HW157594   3.542   3.606   3.364
15322SOL    HW257595   3.598   3.481   3.427
15323SOL     OW57596   0.654   4.272   2.471
15323SOL    HW157597   0.686   4.242   2.386
15323SOL    HW257598   0.577   4.325   2.452
15324SOL     OW57599   2.254   3.638   7.062
15324SOL    HW157600   2.256   3.669   7.152
15324SOL    HW257601   2.327   3.576   7.055
15325SOL     OW57602   4.282   1.162   2.669
15325SOL    HW157603   4.346   1.230   2.648
15325SOL    HW257604   4.200   1.195   2.633
15326SOL     OW57605   3.622   2.758   3.802
15326SOL    HW157606   3.544   2.724   3.845
15326SOL    HW257607   3.685   2.686   3.808
15327SOL     OW57608   2.324   1.848   8.936
15327SOL    HW157609   2.365   1.791   8.871
15327SOL    HW257610   2.392   1.910   8.960
15328SOL     OW57611   3.735   1.343  20.137
15328SOL    HW157612   3.738   1.437  20.120
15328SOL    HW257613   3.745   1.302  20.051
15329SOL     OW57614   2.620   1.849   0.191
15329SOL    HW157615   2.635   1.917   0.126
15329SOL    HW257616   2.701   1.845   0.242
15330SOL     OW57617   1.497   2.134  10.791
15330SOL    HW157618   1.497   2.049  10.834
15330SOL    HW257619   1.408   2.166  10.800
15331SOL     OW57620   3.106   1.829   1.053
15331SOL    HW157621   3.176   1.765   1.058
15331SOL    HW257622   3.112   1.866   0.965
15332SOL     OW57623   3.771   3.836  22.109
15332SOL    HW157624   3.801   3.747  22.128
15332SOL    HW257625   3.780   3.883  22.192
15333SOL     OW57626   4.763   1.524  17.605
15333SOL    HW157627   4.687   1.467  17.600
15333SOL    HW257628   4.742   1.598  17.548
15334SOL     OW57629   2.047   1.982  25.006
15334SOL    HW157630   1.996   2.040  24.950
15334SOL    HW257631   2.062   2.032  25.086
15335SOL     OW57632   2.545   2.345  21.212
15335SOL    HW157633   2.558   2.418  21.150
15335SOL    HW257634   2.549   2.386  21.298
15336SOL     OW57635   4.725   3.840  25.551
15336SOL    HW157636   4.703   3.850  25.644
15336SOL    HW257637   4.656   3.888  25.505
15337SOL     OW57638   4.274   0.133   3.102
15337SOL    HW157639   4.335   0.101   3.168
15337SOL    HW257640   4.190   0.137   3.146
15338SOL     OW57641   1.820   4.241   1.127
15338SOL    HW157642   1.784   4.328   1.142
15338SOL    HW257643   1.845   4.209   1.214
15339SOL     OW57644   1.042   4.452  25.652
15339SOL    HW157645   0.978   4.496  25.708
15339SOL    HW257646   0.989   4.397  25.593
15340SOL     OW57647   3.100   1.531   6.232
15340SOL    HW157648   3.051   1.450   6.240
15340SOL    HW257649   3.108   1.564   6.321
15341SOL     OW57650   3.262   2.618  19.852
15341SOL    HW157651   3.327   2.671  19.807
15341SOL    HW257652   3.289   2.528  19.836
15342SOL     OW57653   2.532   4.609   5.715
15342SOL    HW157654   2.588   4.640   5.785
15342SOL    HW257655   2.523   4.515   5.731
15343SOL     OW57656   1.301   2.638  25.992
15343SOL    HW157657   1.223   2.632  26.048
15343SOL    HW257658   1.267   2.644  25.903
15344SOL     OW57659   2.784   2.983  22.904
15344SOL    HW157660   2.790   2.996  22.999
15344SOL    HW257661   2.700   2.940  22.891
15345SOL     OW57662   0.726   3.739   3.628
15345SOL    HW157663   0.750   3.772   3.715
15345SOL    HW257664   0.765   3.651   3.624
15346SOL     OW57665   3.603   0.639  21.957
15346SOL    HW157666   3.514   0.604  21.967
15346SOL    HW257667   3.590   0.734  21.948
15347SOL     OW57668   1.414   3.200   6.873
15347SOL    HW157669   1.502   3.234   6.885
15347SOL    HW257670   1.415   3.114   6.916
15348SOL     OW57671   3.563   1.275   8.290
15348SOL    HW157672   3.494   1.240   8.345
15348SOL    HW257673   3.604   1.198   8.250
15349SOL     OW57674   4.301   0.413  28.481
15349SOL    HW157675   4.351   0.488  28.513
15349SOL    HW257676   4.235   0.397   0.017
15350SOL     OW57677   2.754   2.702   8.141
15350SOL    HW157678   2.664   2.670   8.132
15350SOL    HW257679   2.770   2.703   8.235
15351SOL     OW57680   1.509   0.746   5.834
15351SOL    HW157681   1.594   0.706   5.817
15351SOL    HW257682   1.447   0.673   5.826
15352SOL     OW57683   2.230   1.471   3.849
15352SOL    HW157684   2.175   1.402   3.884
15352SOL    HW257685   2.266   1.515   3.926
15353SOL     OW57686   2.321   3.648   2.161
15353SOL    HW157687   2.287   3.724   2.115
15353SOL    HW257688   2.243   3.605   2.198
15354SOL     OW57689   4.377   4.306   0.374
15354SOL    HW157690   4.357   4.239   0.309
15354SOL    HW257691   4.292   4.344   0.397
15355SOL     OW57692   1.446   3.624   8.773
15355SOL    HW157693   1.490   3.545   8.804
15355SOL    HW257694   1.516   3.687   8.760
15356SOL     OW57695   4.684   0.250   5.340
15356SOL    HW157696   4.737   0.289   5.409
15356SOL    HW257697   4.617   0.199   5.387
15357SOL     OW57698   0.432   0.186   3.087
15357SOL    HW157699   0.350   0.235   3.084
15357SOL    HW257700   0.499   0.250   3.065
15358SOL     OW57701   0.794   4.779   2.767
15358SOL    HW157702   0.713   0.020   2.722
15358SOL    HW257703   0.853   0.070   2.750
15359SOL     OW57704   2.714   1.329  24.815
15359SOL    HW157705   2.680   1.418  24.803
15359SOL    HW257706   2.642   1.272  24.787
15360SOL     OW57707   1.437   3.452  10.893
15360SOL    HW157708   1.522   3.444  10.937
15360SOL    HW257709   1.393   3.523  10.939
15361SOL     OW57710   0.685   4.567  26.145
15361SOL    HW157711   0.709   4.496  26.205
15361SOL    HW257712   0.606   4.605  26.184
15362SOL     OW57713   1.976   3.432  10.062
15362SOL    HW157714   1.977   3.348  10.017
15362SOL    HW257715   1.917   3.486  10.010
15363SOL     OW57716   2.986   3.303  27.790
15363SOL    HW157717   3.022   3.302  27.701
15363SOL    HW257718   2.968   3.211  27.809
15364SOL     OW57719   2.750   2.204  27.123
15364SOL    HW157720   2.675   2.217  27.182
15364SOL    HW257721   2.728   2.256  27.045
15365SOL     OW57722   3.021   4.028  23.069
15365SOL    HW157723   3.035   3.946  23.022
15365SOL    HW257724   3.109   4.060  23.088
15366SOL     OW57725   4.077   3.485  24.978
15366SOL    HW157726   4.087   3.531  25.061
15366SOL    HW257727   4.041   3.551  24.919
15367SOL     OW57728   3.096   0.781  23.751
15367SOL    HW157729   3.001   0.789  23.755
15367SOL    HW257730   3.128   0.867  23.777
15368SOL     OW57731   2.532   4.590  10.005
15368SOL    HW157732   2.559   4.577  10.096
15368SOL    HW257733   2.513   4.502   9.973
15369SOL     OW57734   0.314   0.995  20.301
15369SOL    HW157735   0.283   0.993  20.392
15369SOL    HW257736   0.324   0.903  20.277
15370SOL     OW57737   3.549   1.231  26.862
15370SOL    HW157738   3.500   1.231  26.780
15370SOL    HW257739   3.536   1.320  26.897
15371SOL     OW57740   0.466   1.465   2.863
15371SOL    HW157741   0.394   1.481   2.924
15371SOL    HW257742   0.424   1.452   2.778
15372SOL     OW57743   1.374   2.549   2.051
15372SOL    HW157744   1.353   2.525   2.141
15372SOL    HW257745   1.448   2.493   2.028
15373SOL     OW57746   1.054   3.837   2.187
15373SOL    HW157747   1.000   3.915   2.172
15373SOL    HW257748   0.999   3.779   2.239
15374SOL     OW57749   3.138   2.316  18.360
15374SOL    HW157750   3.098   2.355  18.437
15374SOL    HW257751   3.180   2.389  18.315
15375SOL     OW57752   3.780   2.169  20.085
15375SOL    HW157753   3.700   2.152  20.035
15375SOL    HW257754   3.808   2.082  20.114
15376SOL     OW57755   0.289   1.377  24.588
15376SOL    HW157756   0.211   1.336  24.550
15376SOL    HW257757   0.362   1.341  24.537
15377SOL     OW57758   0.033   0.839  24.556
15377SOL    HW157759   0.015   0.760  24.607
15377SOL    HW257760   0.009   0.816  24.467
15378SOL     OW57761   2.441   3.590  23.185
15378SOL    HW157762   2.514   3.649  23.166
15378SOL    HW257763   2.483   3.505  23.203
15379SOL     OW57764   2.251   1.596  20.335
15379SOL    HW157765   2.266   1.691  20.337
15379SOL    HW257766   2.275   1.567  20.423
15380SOL     OW57767   3.823   4.288  20.570
15380SOL    HW157768   3.747   4.342  20.591
15380SOL    HW257769   3.825   4.285  20.475
15381SOL     OW57770   3.674   2.207  26.936
15381SOL    HW157771   3.713   2.281  26.983
15381SOL    HW257772   3.583   2.207  26.963
15382SOL     OW57773   0.053   0.867   5.182
15382SOL    HW157774   0.026   0.931   5.247
15382SOL    HW257775   4.754   0.841   5.138
15383SOL     OW57776   0.741   2.604   3.686
15383SOL    HW157777   0.674   2.658   3.644
15383SOL    HW257778   0.819   2.659   3.690
15384SOL     OW57779   1.280   4.123   3.652
15384SOL    HW157780   1.288   4.216   3.629
15384SOL    HW257781   1.225   4.123   3.731
15385SOL     OW57782   2.745   4.369   2.521
15385SOL    HW157783   2.706   4.306   2.583
15385SOL    HW257784   2.679   4.380   2.453
15386SOL     OW57785   1.992   0.339  28.502
15386SOL    HW157786   2.032   0.256  28.528
15386SOL    HW257787   2.001   0.343  28.407
15387SOL     OW57788   2.030   2.079   1.722
15387SOL    HW157789   1.955   2.045   1.673
15387SOL    HW257790   2.090   2.111   1.655
15388SOL     OW57791   3.969   1.153   0.981
15388SOL    HW157792   3.879   1.186   0.981
15388SOL    HW257793   4.002   1.174   0.893
15389SOL     OW57794   0.020   3.301  27.876
15389SOL    HW157795   0.061   3.250  27.947
15389SOL    HW257796   0.009   3.239  27.805
15390SOL     OW57797   4.230   4.274  20.619
15390SOL    HW157798   4.194   4.222  20.547
15390SOL    HW257799   4.281   4.211  20.669
15391SOL     OW57800   2.248   0.571   8.684
15391SOL    HW157801   2.283   0.606   8.766
15391SOL    HW257802   2.314   0.509   8.654
15392SOL     OW57803   2.136   3.570  24.765
15392SOL    HW157804   2.133   3.635  24.695
15392SOL    HW257805   2.085   3.496  24.730
15393SOL     OW57806   0.820   3.590  26.925
15393SOL    HW157807   0.765   3.588  26.846
15393SOL    HW257808   0.904   3.623  26.894
15394SOL     OW57809   1.537   2.568   0.864
15394SOL    HW157810   1.512   2.618   0.786
15394SOL    HW257811   1.500   2.617   0.937
15395SOL     OW57812   1.212   2.748  24.572
15395SOL    HW157813   1.260   2.812  24.625
15395SOL    HW257814   1.195   2.676  24.633
15396SOL     OW57815   2.066   2.170   1.431
15396SOL    HW157816   2.008   2.120   1.374
15396SOL    HW257817   2.100   2.240   1.375
15397SOL     OW57818   3.016   2.264   4.904
15397SOL    HW157819   3.088   2.326   4.919
15397SOL    HW257820   2.946   2.294   4.962
15398SOL     OW57821   3.650   2.083  18.908
15398SOL    HW157822   3.593   2.052  18.978
15398SOL    HW257823   3.593   2.133  18.850
15399SOL     OW57824   1.575   1.083  21.541
15399SOL    HW157825   1.669   1.078  21.558
15399SOL    HW257826   1.551   0.995  21.514
15400SOL     OW57827   4.221   2.739  24.994
15400SOL    HW157828   4.134   2.778  25.003
15400SOL    HW257829   4.228   2.718  24.901
15401SOL     OW57830   4.007   4.747  23.855
15401SOL    HW157831   4.057   4.666  23.869
15401SOL    HW257832   4.033   4.775  23.767
15402SOL     OW57833   0.328   0.202  26.224
15402SOL    HW157834   0.247   0.152  26.226
15402SOL    HW257835   0.396   0.136  26.211
15403SOL     OW57836   0.571   1.574   1.738
15403SOL    HW157837   0.593   1.640   1.672
15403SOL    HW257838   0.611   1.607   1.819
15404SOL     OW57839   0.829   4.025  10.842
15404SOL    HW157840   0.839   3.935  10.874
15404SOL    HW257841   0.735   4.037  10.835
15405SOL     OW57842   1.020   4.163   6.549
15405SOL    HW157843   1.015   4.255   6.577
15405SOL    HW257844   0.960   4.117   6.607
15406SOL     OW57845   1.689   3.980   1.016
15406SOL    HW157846   1.683   4.069   1.049
15406SOL    HW257847   1.687   3.989   0.921
15407SOL     OW57848   0.945   2.746   3.411
15407SOL    HW157849   0.904   2.684   3.351
15407SOL    HW257850   0.959   2.696   3.491
15408SOL     OW57851   0.546   1.501   9.058
15408SOL    HW157852   0.457   1.489   9.091
15408SOL    HW257853   0.569   1.591   9.082
15409SOL     OW57854   0.208   1.526  26.467
15409SOL    HW157855   0.304   1.523  26.463
15409SOL    HW257856   0.189   1.547  26.559
15410SOL     OW57857   4.156   1.292   3.400
15410SOL    HW157858   4.188   1.245   3.323
15410SOL    HW257859   4.062   1.276   3.400
15411SOL     OW57860   3.415   2.449   6.247
15411SOL    HW157861   3.439   2.502   6.171
15411SOL    HW257862   3.497   2.439   6.296
15412SOL     OW57863   3.775   4.358  21.251
15412SOL    HW157864   3.830   4.382  21.177
15412SOL    HW257865   3.732   4.439  21.277
15413SOL     OW57866   1.242   1.486  22.836
15413SOL    HW157867   1.168   1.547  22.843
15413SOL    HW257868   1.319   1.543  22.837
15414SOL     OW57869   1.514   2.857   6.635
15414SOL    HW157870   1.563   2.846   6.717
15414SOL    HW257871   1.444   2.792   6.640
15415SOL     OW57872   3.846   2.221   0.996
15415SOL    HW157873   3.772   2.161   0.985
15415SOL    HW257874   3.880   2.203   1.083
15416SOL     OW57875   2.637   4.220   0.323
15416SOL    HW157876   2.712   4.247   0.376
15416SOL    HW257877   2.563   4.220   0.385
15417SOL     OW57878   4.076   3.552   6.532
15417SOL    HW157879   4.137   3.520   6.599
15417SOL    HW257880   4.030   3.473   6.503
15418SOL     OW57881   0.445   1.032  28.128
15418SOL    HW157882   0.356   1.058  28.151
15418SOL    HW257883   0.486   1.011  28.212
15419SOL     OW57884   0.923   2.012  16.797
15419SOL    HW157885   0.849   2.044  16.849
15419SOL    HW257886   0.966   1.948  16.854
15420SOL     OW57887   3.578   3.809  28.392
15420SOL    HW157888   3.621   3.738  28.345
15420SOL    HW257889   3.506   3.836  28.335
15421SOL     OW57890   2.346   1.127   2.369
15421SOL    HW157891   2.418   1.070   2.340
15421SOL    HW257892   2.270   1.096   2.320
15422SOL     OW57893   4.586   0.595  16.895
15422SOL    HW157894   4.641   0.618  16.820
15422SOL    HW257895   4.575   0.500  16.888
15423SOL     OW57896   3.672   2.064  23.421
15423SOL    HW157897   3.735   2.099  23.357
15423SOL    HW257898   3.725   2.046  23.499
15424SOL     OW57899   4.441   2.488  22.582
15424SOL    HW157900   4.370   2.431  22.613
15424SOL    HW257901   4.521   2.442  22.608
15425SOL     OW57902   4.024   4.295   3.453
15425SOL    HW157903   3.951   4.349   3.423
15425SOL    HW257904   4.041   4.325   3.543
15426SOL     OW57905   0.927   0.378  20.498
15426SOL    HW157906   0.960   0.321  20.429
15426SOL    HW257907   0.832   0.379  20.485
15427SOL     OW57908   4.354   0.283  26.352
15427SOL    HW157909   4.346   0.374  26.382
15427SOL    HW257910   4.406   0.288  26.272
15428SOL     OW57911   2.043   4.293  20.660
15428SOL    HW157912   2.138   4.306  20.664
15428SOL    HW257913   2.009   4.342  20.736
15429SOL     OW57914   0.288   3.017  19.193
15429SOL    HW157915   0.317   3.007  19.284
15429SOL    HW257916   0.361   3.059  19.149
15430SOL     OW57917   3.158   1.989   3.518
15430SOL    HW157918   3.090   1.926   3.496
15430SOL    HW257919   3.202   2.008   3.436
15431SOL     OW57920   2.636   3.285   2.988
15431SOL    HW157921   2.722   3.243   2.999
15431SOL    HW257922   2.614   3.271   2.897
15432SOL     OW57923   3.471   3.210  10.609
15432SOL    HW157924   3.496   3.133  10.660
15432SOL    HW257925   3.514   3.198  10.524
15433SOL     OW57926   2.192   0.534   6.080
15433SOL    HW157927   2.263   0.489   6.034
15433SOL    HW257928   2.161   0.600   6.018
15434SOL     OW57929   0.331   4.553   4.785
15434SOL    HW157930   0.344   4.521   4.696
15434SOL    HW257931   0.239   4.532   4.805
15435SOL     OW57932   0.227   0.065  21.768
15435SOL    HW157933   0.317   0.097  21.764
15435SOL    HW257934   0.228   0.003  21.841
15436SOL     OW57935   1.489   3.755   4.390
15436SOL    HW157936   1.529   3.822   4.334
15436SOL    HW257937   1.564   3.710   4.430
15437SOL     OW57938   2.324   0.438  22.732
15437SOL    HW157939   2.315   0.444  22.637
15437SOL    HW257940   2.272   0.511  22.766
15438SOL     OW57941   2.761   0.602  26.085
15438SOL    HW157942   2.828   0.667  26.107
15438SOL    HW257943   2.790   0.522  26.129
15439SOL     OW57944   2.391   2.746  20.460
15439SOL    HW157945   2.423   2.793  20.383
15439SOL    HW257946   2.436   2.661  20.457
15440SOL     OW57947   1.270   1.721  19.999
15440SOL    HW157948   1.230   1.743  19.915
15440SOL    HW257949   1.351   1.675  19.975
15441SOL     OW57950   3.905   0.431   8.081
15441SOL    HW157951   3.926   0.355   8.027
15441SOL    HW257952   3.953   0.418   8.162
15442SOL     OW57953   0.600   1.397  20.231
15442SOL    HW157954   0.653   1.456  20.285
15442SOL    HW257955   0.662   1.357  20.170
15443SOL     OW57956   2.528   3.293  24.393
15443SOL    HW157957   2.454   3.277  24.452
15443SOL    HW257958   2.572   3.370  24.429
15444SOL     OW57959   3.984   2.906   3.822
15444SOL    HW157960   3.906   2.942   3.864
15444SOL    HW257961   4.057   2.942   3.872
15445SOL     OW57962   4.335   2.717   0.961
15445SOL    HW157963   4.272   2.729   0.890
15445SOL    HW257964   4.372   2.804   0.976
15446SOL     OW57965   3.274   3.629  23.646
15446SOL    HW157966   3.328   3.652  23.570
15446SOL    HW257967   3.337   3.602  23.713
15447SOL     OW57968   0.602   3.014   6.747
15447SOL    HW157969   0.535   2.952   6.718
15447SOL    HW257970   0.609   3.077   6.675
15448SOL     OW57971   1.490   0.627  26.523
15448SOL    HW157972   1.545   0.696  26.560
15448SOL    HW257973   1.412   0.674  26.491
15449SOL     OW57974   3.672   0.720  22.650
15449SOL    HW157975   3.701   0.802  22.690
15449SOL    HW257976   3.689   0.731  22.556
15450SOL     OW57977   0.279   3.620  26.634
15450SOL    HW157978   0.187   3.616  26.605
15450SOL    HW257979   0.306   3.529  26.642
15451SOL     OW57980   4.340   4.085  22.850
15451SOL    HW157981   4.370   4.047  22.768
15451SOL    HW257982   4.352   4.016  22.915
15452SOL     OW57983   0.925   0.366   1.450
15452SOL    HW157984   0.960   0.367   1.361
15452SOL    HW257985   0.948   0.280   1.484
15453SOL     OW57986   3.011   1.286  19.173
15453SOL    HW157987   3.074   1.324  19.234
15453SOL    HW257988   2.929   1.331  19.193
15454SOL     OW57989   2.038   1.274   3.959
15454SOL    HW157990   1.973   1.219   3.916
15454SOL    HW257991   2.081   1.217   4.022
15455SOL     OW57992   1.004   2.014  20.598
15455SOL    HW157993   0.918   1.984  20.567
15455SOL    HW257994   1.006   1.991  20.691
15456SOL     OW57995   0.172   4.179   7.160
15456SOL    HW157996   0.215   4.196   7.244
15456SOL    HW257997   0.209   4.244   7.101
15457SOL     OW57998   2.427   2.629   4.045
15457SOL    HW157999   2.385   2.671   3.969
15457SOL    HW258000   2.409   2.536   4.033
15458SOL     OW58001   0.339   1.815  10.695
15458SOL    HW158002   0.354   1.745  10.632
15458SOL    HW258003   0.411   1.808  10.757
15459SOL     OW58004   0.160   3.896  19.992
15459SOL    HW158005   0.096   3.964  20.012
15459SOL    HW258006   0.108   3.823  19.957
15460SOL     OW58007   3.663   0.338   4.696
15460SOL    HW158008   3.685   0.333   4.603
15460SOL    HW258009   3.604   0.413   4.703
15461SOL     OW58010   4.058   1.341   5.504
15461SOL    HW158011   3.964   1.330   5.517
15461SOL    HW258012   4.070   1.339   5.409
15462SOL     OW58013   0.350   4.006  11.670
15462SOL    HW158014   0.289   3.945  11.711
15462SOL    HW258015   0.301   4.044  11.596
15463SOL     OW58016   0.909   4.482  19.351
15463SOL    HW158017   0.924   4.482  19.446
15463SOL    HW258018   0.922   4.573  19.325
15464SOL     OW58019   1.709   1.744   2.550
15464SOL    HW158020   1.793   1.779   2.577
15464SOL    HW258021   1.652   1.820   2.544
15465SOL     OW58022   3.003   0.905  24.099
15465SOL    HW158023   3.041   0.825  24.062
15465SOL    HW258024   3.069   0.936  24.162
15466SOL     OW58025   2.621   0.861   9.204
15466SOL    HW158026   2.630   0.917   9.282
15466SOL    HW258027   2.622   0.772   9.238
15467SOL     OW58028   2.947   4.075  24.492
15467SOL    HW158029   2.925   3.991  24.532
15467SOL    HW258030   2.863   4.115  24.471
15468SOL     OW58031   3.600   2.149   7.525
15468SOL    HW158032   3.664   2.219   7.537
15468SOL    HW258033   3.649   2.068   7.543
15469SOL     OW58034   3.084   1.686  20.427
15469SOL    HW158035   3.113   1.673  20.518
15469SOL    HW258036   2.993   1.656  20.426
15470SOL     OW58037   1.122   1.834   7.141
15470SOL    HW158038   1.076   1.816   7.223
15470SOL    HW258039   1.060   1.810   7.073
15471SOL     OW58040   1.930   1.939  23.658
15471SOL    HW158041   1.882   2.021  23.670
15471SOL    HW258042   1.891   1.900  23.579
15472SOL     OW58043   3.035   2.872   5.775
15472SOL    HW158044   2.943   2.893   5.755
15472SOL    HW258045   3.044   2.780   5.753
15473SOL     OW58046   2.743   4.767   3.223
15473SOL    HW158047   2.693   4.734   3.297
15473SOL    HW258048   2.676   0.016   3.162
15474SOL     OW58049   4.539   0.056  20.718
15474SOL    HW158050   4.457   0.066  20.670
15474SOL    HW258051   4.567   0.145  20.737
15475SOL     OW58052   4.123   1.943  22.828
15475SOL    HW158053   4.200   1.966  22.881
15475SOL    HW258054   4.090   2.027  22.796
15476SOL     OW58055   2.634   1.455   4.308
15476SOL    HW158056   2.670   1.526   4.361
15476SOL    HW258057   2.706   1.431   4.249
15477SOL     OW58058   0.599   4.136   4.816
15477SOL    HW158059   0.567   4.177   4.896
15477SOL    HW258060   0.693   4.128   4.828
15478SOL     OW58061   3.742   0.805  11.914
15478SOL    HW158062   3.713   0.815  12.004
15478SOL    HW258063   3.794   0.725  11.914
15479SOL     OW58064   3.239   2.960  26.870
15479SOL    HW158065   3.239   2.884  26.812
15479SOL    HW258066   3.152   2.999  26.858
15480SOL     OW58067   1.498   4.325   2.732
15480SOL    HW158068   1.455   4.387   2.673
15480SOL    HW258069   1.431   4.304   2.797
15481SOL     OW58070   0.605   1.693   4.606
15481SOL    HW158071   0.617   1.784   4.633
15481SOL    HW258072   0.532   1.696   4.544
15482SOL     OW58073   4.404   4.233  18.667
15482SOL    HW158074   4.468   4.304  18.666
15482SOL    HW258075   4.450   4.159  18.627
15483SOL     OW58076   3.488   1.759   6.661
15483SOL    HW158077   3.552   1.795   6.723
15483SOL    HW258078   3.454   1.835   6.614
15484SOL     OW58079   0.708   0.961   9.240
15484SOL    HW158080   0.716   0.974   9.335
15484SOL    HW258081   0.778   1.015   9.203
15485SOL     OW58082   0.291   3.775  23.828
15485SOL    HW158083   0.300   3.707  23.761
15485SOL    HW258084   0.300   3.857  23.779
15486SOL     OW58085   1.228   2.541  23.643
15486SOL    HW158086   1.181   2.483  23.583
15486SOL    HW258087   1.160   2.600  23.676
15487SOL     OW58088   1.405   3.032   0.262
15487SOL    HW158089   1.422   2.938   0.268
15487SOL    HW258090   1.441   3.058   0.177
15488SOL     OW58091   1.478   2.655   0.599
15488SOL    HW158092   1.485   2.577   0.544
15488SOL    HW258093   1.388   2.686   0.585
15489SOL     OW58094   1.527   1.838  10.648
15489SOL    HW158095   1.552   1.860  10.738
15489SOL    HW258096   1.598   1.871  10.594
15490SOL     OW58097   1.945   0.712  16.874
15490SOL    HW158098   2.028   0.759  16.864
15490SOL    HW258099   1.916   0.733  16.963
15491SOL     OW58100   2.456   2.474  11.563
15491SOL    HW158101   2.508   2.396  11.544
15491SOL    HW258102   2.405   2.488  11.484
15492SOL     OW58103   2.624   0.887  22.934
15492SOL    HW158104   2.713   0.919  22.950
15492SOL    HW258105   2.605   0.913  22.844
15493SOL     OW58106   1.388   0.632  25.865
15493SOL    HW158107   1.352   0.683  25.938
15493SOL    HW258108   1.460   0.686  25.831
15494SOL     OW58109   3.586   4.422  20.511
15494SOL    HW158110   3.559   4.396  20.599
15494SOL    HW258111   3.531   4.498  20.491
15495SOL     OW58112   1.382   1.364  18.959
15495SOL    HW158113   1.413   1.441  18.911
15495SOL    HW258114   1.341   1.309  18.892
15496SOL     OW58115   2.389   4.152  19.628
15496SOL    HW158116   2.324   4.215  19.660
15496SOL    HW258117   2.435   4.124  19.707
15497SOL     OW58118   2.088   3.316  25.721
15497SOL    HW158119   2.004   3.286  25.757
15497SOL    HW258120   2.083   3.295  25.628
15498SOL     OW58121   3.029   4.587   1.434
15498SOL    HW158122   3.011   4.579   1.341
15498SOL    HW258123   3.122   4.606   1.440
15499SOL     OW58124   4.020   3.018  26.987
15499SOL    HW158125   4.067   3.083  27.040
15499SOL    HW258126   4.089   2.969  26.943
15500SOL     OW58127   4.498   2.757  24.565
15500SOL    HW158128   4.534   2.668  24.565
15500SOL    HW258129   4.479   2.776  24.656
15501SOL     OW58130   0.013   3.227  21.152
15501SOL    HW158131   0.030   3.134  21.144
15501SOL    HW258132   0.045   3.265  21.070
15502SOL     OW58133   3.331   4.779  27.995
15502SOL    HW158134   3.353   0.041  28.077
15502SOL    HW258135   3.310   0.067  27.934
15503SOL     OW58136   3.315   1.910   3.721
15503SOL    HW158137   3.256   1.946   3.655
15503SOL    HW258138   3.402   1.939   3.695
15504SOL     OW58139   1.389   2.179   1.484
15504SOL    HW158140   1.426   2.176   1.572
15504SOL    HW258141   1.355   2.090   1.470
15505SOL     OW58142   4.063   2.414   8.311
15505SOL    HW158143   4.060   2.502   8.273
15505SOL    HW258144   4.102   2.360   8.243
15506SOL     OW58145   0.831   3.659   5.653
15506SOL    HW158146   0.880   3.733   5.617
15506SOL    HW258147   0.845   3.588   5.590
15507SOL     OW58148   2.366   1.831   2.373
15507SOL    HW158149   2.277   1.855   2.345
15507SOL    HW258150   2.363   1.736   2.383
15508SOL     OW58151   1.396   2.732  21.061
15508SOL    HW158152   1.362   2.658  21.010
15508SOL    HW258153   1.345   2.807  21.032
15509SOL     OW58154   3.085   1.857   8.746
15509SOL    HW158155   3.171   1.828   8.778
15509SOL    HW258156   3.077   1.817   8.660
15510SOL     OW58157   4.549   2.135  25.191
15510SOL    HW158158   4.475   2.080  25.163
15510SOL    HW258159   4.535   2.148  25.284
15511SOL     OW58160   0.497   1.585  19.302
15511SOL    HW158161   0.453   1.615  19.223
15511SOL    HW258162   0.590   1.599  19.285
15512SOL     OW58163   4.639   4.083  26.541
15512SOL    HW158164   4.673   4.046  26.459
15512SOL    HW258165   4.548   4.105  26.521
15513SOL     OW58166   2.590   3.755   0.865
15513SOL    HW158167   2.565   3.675   0.911
15513SOL    HW258168   2.677   3.776   0.898
15514SOL     OW58169   2.122   4.362  27.703
15514SOL    HW158170   2.174   4.304  27.647
15514SOL    HW258171   2.185   4.398  27.765
15515SOL     OW58172   2.795   4.315   3.357
15515SOL    HW158173   2.730   4.363   3.305
15515SOL    HW258174   2.846   4.383   3.401
15516SOL     OW58175   0.208   1.067  10.603
15516SOL    HW158176   0.208   1.155  10.642
15516SOL    HW258177   0.119   1.055  10.573
15517SOL     OW58178   2.470   0.526  25.649
15517SOL    HW158179   2.490   0.459  25.584
15517SOL    HW258180   2.550   0.535  25.700
15518SOL     OW58181   0.728   1.117   4.527
15518SOL    HW158182   0.720   1.195   4.581
15518SOL    HW258183   0.686   1.048   4.578
15519SOL     OW58184   0.085   3.633  24.646
15519SOL    HW158185   0.089   3.726  24.671
15519SOL    HW258186   0.081   3.635  24.550
15520SOL     OW58187   0.870   2.107  23.321
15520SOL    HW158188   0.949   2.088  23.271
15520SOL    HW258189   0.901   2.134  23.407
15521SOL     OW58190   2.162   1.676   0.900
15521SOL    HW158191   2.131   1.737   0.967
15521SOL    HW258192   2.222   1.728   0.847
15522SOL     OW58193   1.901   1.063   1.093
15522SOL    HW158194   1.836   1.022   1.035
15522SOL    HW258195   1.854   1.138   1.131
15523SOL     OW58196   0.619   3.094  25.155
15523SOL    HW158197   0.605   3.074  25.062
15523SOL    HW258198   0.538   3.064  25.197
15524SOL     OW58199   1.209   1.322  19.608
15524SOL    HW158200   1.214   1.235  19.647
15524SOL    HW258201   1.122   1.355  19.632
15525SOL     OW58202   2.436   4.025  23.439
15525SOL    HW158203   2.472   3.936  23.438
15525SOL    HW258204   2.478   4.069  23.366
15526SOL     OW58205   4.542   2.640  25.751
15526SOL    HW158206   4.515   2.574  25.814
15526SOL    HW258207   4.567   2.591  25.673
15527SOL     OW58208   3.955   2.819   7.268
15527SOL    HW158209   3.975   2.911   7.285
15527SOL    HW258210   3.904   2.791   7.344
15528SOL     OW58211   3.181   0.208   5.968
15528SOL    HW158212   3.229   0.232   6.047
15528SOL    HW258213   3.250   0.187   5.904
15529SOL     OW58214   4.414   1.290  10.517
15529SOL    HW158215   4.412   1.269  10.424
15529SOL    HW258216   4.338   1.244  10.553
15530SOL     OW58217   4.465   2.903  24.331
15530SOL    HW158218   4.471   2.842  24.404
15530SOL    HW258219   4.383   2.950  24.346
15531SOL     OW58220   0.443   0.692   5.794
15531SOL    HW158221   0.449   0.634   5.870
15531SOL    HW258222   0.479   0.641   5.721
15532SOL     OW58223   1.769   3.738   9.314
15532SOL    HW158224   1.771   3.804   9.245
15532SOL    HW258225   1.688   3.755   9.362
15533SOL     OW58226   0.920   0.473   8.920
15533SOL    HW158227   0.985   0.408   8.946
15533SOL    HW258228   0.899   0.520   9.001
15534SOL     OW58229   1.239   4.126   9.328
15534SOL    HW158230   1.332   4.119   9.309
15534SOL    HW258231   1.235   4.164   9.416
15535SOL     OW58232   0.966   2.909  26.721
15535SOL    HW158233   0.952   2.942  26.809
15535SOL    HW258234   1.002   2.983  26.672
15536SOL     OW58235   1.909   0.644   0.744
15536SOL    HW158236   1.863   0.652   0.827
15536SOL    HW258237   1.939   0.553   0.741
15537SOL     OW58238   0.997   0.955  25.235
15537SOL    HW158239   1.012   0.869  25.275
15537SOL    HW258240   1.082   0.982  25.202
15538SOL     OW58241   2.570   2.851  21.165
15538SOL    HW158242   2.645   2.803  21.201
15538SOL    HW258243   2.598   2.878  21.078
15539SOL     OW58244   4.223   3.886   5.460
15539SOL    HW158245   4.170   3.946   5.408
15539SOL    HW258246   4.288   3.852   5.398
15540SOL     OW58247   1.066   2.699   8.995
15540SOL    HW158248   0.985   2.678   9.040
15540SOL    HW258249   1.102   2.614   8.970
15541SOL     OW58250   4.691   4.043  22.474
15541SOL    HW158251   4.766   4.070  22.421
15541SOL    HW258252   4.722   4.048  22.564
15542SOL     OW58253   3.444   3.438  25.220
15542SOL    HW158254   3.373   3.497  25.244
15542SOL    HW258255   3.402   3.371  25.165
15543SOL     OW58256   4.759   4.727  10.292
15543SOL    HW158257   4.772   4.695  10.381
15543SOL    HW258258   4.665   4.745  10.286
15544SOL     OW58259   0.275   3.719  21.930
15544SOL    HW158260   0.231   3.722  22.015
15544SOL    HW258261   0.233   3.646  21.885
15545SOL     OW58262   0.568   3.714   6.698
15545SOL    HW158263   0.557   3.786   6.636
15545SOL    HW258264   0.659   3.686   6.686
15546SOL     OW58265   0.677   0.152   8.209
15546SOL    HW158266   0.619   0.222   8.238
15546SOL    HW258267   0.753   0.158   8.267
15547SOL     OW58268   3.916   0.236  26.864
15547SOL    HW158269   3.840   0.282  26.900
15547SOL    HW258270   3.984   0.248  26.930
15548SOL     OW58271   0.113   4.370   8.475
15548SOL    HW158272   0.027   4.373   8.435
15548SOL    HW258273   0.103   4.309   8.549
15549SOL     OW58274   3.193   2.261  27.092
15549SOL    HW158275   3.236   2.303  27.166
15549SOL    HW258276   3.120   2.320  27.071
15550SOL     OW58277   3.790   3.453   1.987
15550SOL    HW158278   3.733   3.448   1.910
15550SOL    HW258279   3.822   3.364   1.999
15551SOL     OW58280   2.484   1.776  21.324
15551SOL    HW158281   2.470   1.692  21.280
15551SOL    HW258282   2.396   1.815  21.329
15552SOL     OW58283   2.080   2.461  22.793
15552SOL    HW158284   2.023   2.524  22.749
15552SOL    HW258285   2.107   2.505  22.873
15553SOL     OW58286   4.428   3.211   1.229
15553SOL    HW158287   4.499   3.165   1.274
15553SOL    HW258288   4.357   3.215   1.293
15554SOL     OW58289   3.214   4.441   0.327
15554SOL    HW158290   3.254   4.380   0.265
15554SOL    HW258291   3.130   4.401   0.350
15555SOL     OW58292   4.711   1.697  24.257
15555SOL    HW158293   4.632   1.747  24.235
15555SOL    HW258294   4.692   1.608  24.226
15556SOL     OW58295   4.647   0.007  24.106
15556SOL    HW158296   4.590   4.754  24.037
15556SOL    HW258297   4.587   0.057  24.162
15557SOL     OW58298   3.488   3.028   0.293
15557SOL    HW158299   3.400   3.048   0.261
15557SOL    HW258300   3.535   2.998   0.215
15558SOL     OW58301   1.384   4.533   1.955
15558SOL    HW158302   1.429   4.452   1.929
15558SOL    HW258303   1.387   4.588   1.876
15559SOL     OW58304   0.948   1.178  24.257
15559SOL    HW158305   1.009   1.126  24.309
15559SOL    HW258306   0.954   1.143  24.169
15560SOL     OW58307   0.628   4.345   6.658
15560SOL    HW158308   0.634   4.413   6.591
15560SOL    HW258309   0.536   4.346   6.685
15561SOL     OW58310   0.795   0.684  27.708
15561SOL    HW158311   0.811   0.738  27.631
15561SOL    HW258312   0.806   0.743  27.783
15562SOL     OW58313   1.644   0.453  27.762
15562SOL    HW158314   1.691   0.391  27.706
15562SOL    HW258315   1.558   0.413  27.774
15563SOL     OW58316   3.131   4.266  26.047
15563SOL    HW158317   3.064   4.201  26.025
15563SOL    HW258318   3.086   4.328  26.105
15564SOL     OW58319   0.020   3.886   0.574
15564SOL    HW158320   4.725   3.941   0.565
15564SOL    HW258321   4.770   3.803   0.607
15565SOL     OW58322   0.086   2.197  19.876
15565SOL    HW158323   0.041   2.273  19.913
15565SOL    HW258324   0.100   2.220  19.784
15566SOL     OW58325   0.183   1.734  20.539
15566SOL    HW158326   0.178   1.825  20.569
15566SOL    HW258327   0.108   1.725  20.480
15567SOL     OW58328   2.379   0.876  22.260
15567SOL    HW158329   2.386   0.799  22.204
15567SOL    HW258330   2.296   0.865  22.307
15568SOL     OW58331   2.096   2.891  23.341
15568SOL    HW158332   2.144   2.941  23.406
15568SOL    HW258333   2.058   2.957  23.283
15569SOL     OW58334   2.508   4.252   7.926
15569SOL    HW158335   2.581   4.311   7.946
15569SOL    HW258336   2.489   4.209   8.010
15570SOL     OW58337   1.829   0.814  28.056
15570SOL    HW158338   1.780   0.896  28.059
15570SOL    HW258339   1.818   0.776  28.143
15571SOL     OW58340   4.778   2.998   4.196
15571SOL    HW158341   4.742   3.033   4.115
15571SOL    HW258342   4.766   2.903   4.189
15572SOL     OW58343   2.707   2.365   0.095
15572SOL    HW158344   2.667   2.452   0.098
15572SOL    HW258345   2.726   2.351   0.002
15573SOL     OW58346   1.420   0.929  26.822
15573SOL    HW158347   1.332   0.899  26.797
15573SOL    HW258348   1.475   0.908  26.746
15574SOL     OW58349   0.500   1.104   8.074
15574SOL    HW158350   0.569   1.164   8.101
15574SOL    HW258351   0.545   1.038   8.022
15575SOL     OW58352   2.959   4.531   3.473
15575SOL    HW158353   3.004   4.609   3.439
15575SOL    HW258354   2.922   4.559   3.556
15576SOL     OW58355   2.575   0.620   6.381
15576SOL    HW158356   2.504   0.639   6.443
15576SOL    HW258357   2.540   0.648   6.296
15577SOL     OW58358   2.961   3.436   8.685
15577SOL    HW158359   2.875   3.440   8.642
15577SOL    HW258360   2.969   3.345   8.714
15578SOL     OW58361   2.655   0.268  23.592
15578SOL    HW158362   2.735   0.299  23.548
15578SOL    HW258363   2.604   0.227  23.522
15579SOL     OW58364   4.743   1.095  20.258
15579SOL    HW158365   0.039   1.151  20.265
15579SOL    HW258366   4.695   1.112  20.339
15580SOL     OW58367   4.442   1.913   8.825
15580SOL    HW158368   4.426   1.851   8.896
15580SOL    HW258369   4.533   1.898   8.800
15581SOL     OW58370   1.476   0.522  25.451
15581SOL    HW158371   1.451   0.444  25.400
15581SOL    HW258372   1.524   0.576  25.389
15582SOL     OW58373   1.522   1.390   2.300
15582SOL    HW158374   1.556   1.466   2.346
15582SOL    HW258375   1.590   1.369   2.235
15583SOL     OW58376   2.959   1.712   9.218
15583SOL    HW158377   2.965   1.616   9.209
15583SOL    HW258378   2.989   1.729   9.307
15584SOL     OW58379   1.300   4.032  23.829
15584SOL    HW158380   1.367   4.094  23.799
15584SOL    HW258381   1.247   4.082  23.891
15585SOL     OW58382   2.153   2.836   9.548
15585SOL    HW158383   2.236   2.804   9.514
15585SOL    HW258384   2.158   2.819   9.642
15586SOL     OW58385   2.488   0.136  25.707
15586SOL    HW158386   2.509   0.048  25.675
15586SOL    HW258387   2.552   0.193  25.664
15587SOL     OW58388   4.165   0.563   2.741
15587SOL    HW158389   4.160   0.481   2.791
15587SOL    HW258390   4.259   0.583   2.739
15588SOL     OW58391   0.693   4.412  11.702
15588SOL    HW158392   0.784   4.394  11.679
15588SOL    HW258393   0.652   4.326  11.713
15589SOL     OW58394   0.656   0.366   8.965
15589SOL    HW158395   0.725   0.418   8.925
15589SOL    HW258396   0.695   0.279   8.977
15590SOL     OW58397   1.186   0.609  28.111
15590SOL    HW158398   1.169   0.586  28.203
15590SOL    HW258399   1.115   0.669  28.088
15591SOL     OW58400   0.084   3.704  22.793
15591SOL    HW158401   0.159   3.763  22.803
15591SOL    HW258402   0.059   3.712  22.700
15592SOL     OW58403   2.383   3.933  10.627
15592SOL    HW158404   2.391   4.012  10.572
15592SOL    HW258405   2.381   3.966  10.716
15593SOL     OW58406   4.206   0.882  26.150
15593SOL    HW158407   4.141   0.836  26.204
15593SOL    HW258408   4.230   0.818  26.083
15594SOL     OW58409   2.418   4.048  26.057
15594SOL    HW158410   2.346   4.060  25.994
15594SOL    HW258411   2.497   4.055  26.004
15595SOL     OW58412   3.147   1.625   6.523
15595SOL    HW158413   3.072   1.626   6.582
15595SOL    HW258414   3.162   1.717   6.502
15596SOL     OW58415   0.249   3.732   4.400
15596SOL    HW158416   0.164   3.690   4.410
15596SOL    HW258417   0.253   3.759   4.308
15597SOL     OW58418   0.924   2.376  22.171
15597SOL    HW158419   0.884   2.408  22.252
15597SOL    HW258420   0.879   2.294  22.153
15598SOL     OW58421   3.419   2.213   8.238
15598SOL    HW158422   3.384   2.275   8.302
15598SOL    HW258423   3.424   2.263   8.156
15599SOL     OW58424   2.520   2.952  10.711
15599SOL    HW158425   2.495   3.031  10.758
15599SOL    HW258426   2.552   2.983  10.627
15600SOL     OW58427   4.646   0.662   0.630
15600SOL    HW158428   4.560   0.693   0.660
15600SOL    HW258429   4.670   0.722   0.560
15601SOL     OW58430   2.926   3.402   1.299
15601SOL    HW158431   2.849   3.459   1.296
15601SOL    HW258432   2.963   3.406   1.211
15602SOL     OW58433   1.066   4.306   8.743
15602SOL    HW158434   1.104   4.279   8.660
15602SOL    HW258435   1.098   4.243   8.807
15603SOL     OW58436   2.035   3.873  17.934
15603SOL    HW158437   1.993   3.798  17.891
15603SOL    HW258438   2.014   3.948  17.878
15604SOL     OW58439   1.701   0.795   9.064
15604SOL    HW158440   1.781   0.845   9.077
15604SOL    HW258441   1.632   0.861   9.054
15605SOL     OW58442   2.989   3.931   8.746
15605SOL    HW158443   3.000   3.897   8.835
15605SOL    HW258444   3.078   3.949   8.716
15606SOL     OW58445   3.736   2.534  17.526
15606SOL    HW158446   3.748   2.627  17.506
15606SOL    HW258447   3.669   2.504  17.463
15607SOL     OW58448   3.046   2.208  19.293
15607SOL    HW158449   2.959   2.243  19.275
15607SOL    HW258450   3.103   2.285  19.293
15608SOL     OW58451   2.813   0.530  18.171
15608SOL    HW158452   2.817   0.442  18.208
15608SOL    HW258453   2.782   0.585  18.244
15609SOL     OW58454   1.384   4.380  20.042
15609SOL    HW158455   1.472   4.342  20.047
15609SOL    HW258456   1.395   4.458  19.988
15610SOL     OW58457   2.835   1.778   2.319
15610SOL    HW158458   2.762   1.815   2.369
15610SOL    HW258459   2.805   1.692   2.292
15611SOL     OW58460   0.947   4.093   6.137
15611SOL    HW158461   0.903   4.008   6.135
15611SOL    HW258462   1.039   4.073   6.118
15612SOL     OW58463   2.628   0.294   9.901
15612SOL    HW158464   2.681   0.372   9.890
15612SOL    HW258465   2.680   0.236   9.956
15613SOL     OW58466   0.004   1.960   5.536
15613SOL    HW158467   0.036   2.049   5.520
15613SOL    HW258468   4.700   1.972   5.575
15614SOL     OW58469   0.932   2.245   6.037
15614SOL    HW158470   0.913   2.317   5.977
15614SOL    HW258471   0.964   2.289   6.116
15615SOL     OW58472   1.955   1.523  26.937
15615SOL    HW158473   2.041   1.506  26.897
15615SOL    HW258474   1.908   1.440  26.927
15616SOL     OW58475   1.871   4.024   5.444
15616SOL    HW158476   1.824   3.949   5.407
15616SOL    HW258477   1.806   4.068   5.498
15617SOL     OW58478   4.052   1.992  20.546
15617SOL    HW158479   3.996   1.919  20.520
15617SOL    HW258480   4.062   2.044  20.467
15618SOL     OW58481   2.012   0.199   3.652
15618SOL    HW158482   1.970   0.279   3.618
15618SOL    HW258483   2.106   0.220   3.652
15619SOL     OW58484   1.498   2.761  10.241
15619SOL    HW158485   1.472   2.829  10.180
15619SOL    HW258486   1.448   2.779  10.321
15620SOL     OW58487   1.780   1.287  26.966
15620SOL    HW158488   1.785   1.229  27.041
15620SOL    HW258489   1.721   1.242  26.905
15621SOL     OW58490   2.809   3.175   1.028
15621SOL    HW158491   2.866   3.107   0.992
15621SOL    HW258492   2.732   3.173   0.972
15622SOL     OW58493   3.129   1.456  25.534
15622SOL    HW158494   3.141   1.445  25.440
15622SOL    HW258495   3.034   1.464  25.545
15623SOL     OW58496   3.000   2.838   7.160
15623SOL    HW158497   2.970   2.921   7.123
15623SOL    HW258498   2.942   2.823   7.234
15624SOL     OW58499   4.123   2.000   1.978
15624SOL    HW158500   4.040   1.998   2.026
15624SOL    HW258501   4.154   1.909   1.982
15625SOL     OW58502   1.210   0.615   6.685
15625SOL    HW158503   1.152   0.672   6.635
15625SOL    HW258504   1.292   0.663   6.691
15626SOL     OW58505   1.727   2.006  25.809
15626SOL    HW158506   1.699   1.953  25.884
15626SOL    HW258507   1.734   1.943  25.737
15627SOL     OW58508   2.423   3.247  23.907
15627SOL    HW158509   2.475   3.167  23.908
15627SOL    HW258510   2.433   3.283  23.995
15628SOL     OW58511   4.679   0.957  28.483
15628SOL    HW158512   4.752   0.912  28.440
15628SOL    HW258513   4.601   0.922  28.441
15629SOL     OW58514   3.498   3.654   7.262
15629SOL    HW158515   3.515   3.718   7.193
15629SOL    HW258516   3.522   3.570   7.222
15630SOL     OW58517   0.323   1.355  10.464
15630SOL    HW158518   0.357   1.391  10.381
15630SOL    HW258519   0.339   1.261  10.458
15631SOL     OW58520   0.575   4.607   7.555
15631SOL    HW158521   0.520   4.639   7.483
15631SOL    HW258522   0.593   4.685   7.608
15632SOL     OW58523   1.805   3.223  28.406
15632SOL    HW158524   1.818   3.318  28.404
15632SOL    HW258525   1.772   3.202  28.319
15633SOL     OW58526   0.817   2.821  21.556
15633SOL    HW158527   0.863   2.742  21.528
15633SOL    HW258528   0.726   2.807  21.531
15634SOL     OW58529   2.780   1.111  24.983
15634SOL    HW158530   2.768   1.178  24.916
15634SOL    HW258531   2.722   1.040  24.957
15635SOL     OW58532   0.180   2.579   0.214
15635SOL    HW158533   0.273   2.554   0.219
15635SOL    HW258534   0.172   2.624   0.130
15636SOL     OW58535   3.948   1.162  24.159
15636SOL    HW158536   4.001   1.212  24.221
15636SOL    HW258537   4.007   1.143  24.087
15637SOL     OW58538   4.568   3.629  11.063
15637SOL    HW158539   4.622   3.584  11.128
15637SOL    HW258540   4.481   3.633  11.102
15638SOL     OW58541   0.755   4.148  24.931
15638SOL    HW158542   0.742   4.149  24.836
15638SOL    HW258543   0.686   4.203  24.965
15639SOL     OW58544   1.634   4.700  21.408
15639SOL    HW158545   1.703   4.763  21.384
15639SOL    HW258546   1.564   4.755  21.444
15640SOL     OW58547   2.281   3.910  20.330
15640SOL    HW158548   2.211   3.845  20.328
15640SOL    HW258549   2.359   3.862  20.302
15641SOL     OW58550   2.363   2.769   0.827
15641SOL    HW158551   2.303   2.795   0.897
15641SOL    HW258552   2.306   2.745   0.754
15642SOL     OW58553   0.078   4.767  11.730
15642SOL    HW158554   0.011   0.008  11.794
15642SOL    HW258555   0.150   4.733  11.783
15643SOL     OW58556   2.231   4.537  24.051
15643SOL    HW158557   2.171   4.609  24.028
15643SOL    HW258558   2.279   4.570  24.127
15644SOL     OW58559   3.723   1.243   0.775
15644SOL    HW158560   3.748   1.335   0.764
15644SOL    HW258561   3.723   1.229   0.869
15645SOL     OW58562   2.578   0.319   5.154
15645SOL    HW158563   2.544   0.230   5.154
15645SOL    HW258564   2.673   0.308   5.158
15646SOL     OW58565   0.889   1.278  27.343
15646SOL    HW158566   0.880   1.345  27.411
15646SOL    HW258567   0.883   1.195  27.390
15647SOL     OW58568   0.535   1.286   6.188
15647SOL    HW158569   0.482   1.291   6.109
15647SOL    HW258570   0.533   1.193   6.212
15648SOL     OW58571   3.040   4.053   4.407
15648SOL    HW158572   2.999   4.114   4.468
15648SOL    HW258573   3.046   4.102   4.324
15649SOL     OW58574   3.443   1.340   6.297
15649SOL    HW158575   3.442   1.434   6.311
15649SOL    HW258576   3.536   1.316   6.299
15650SOL     OW58577   0.203   4.761  23.061
15650SOL    HW158578   0.269   0.006  22.998
15650SOL    HW258579   0.252   4.741  23.140
15651SOL     OW58580   1.812   1.231   8.367
15651SOL    HW158581   1.780   1.257   8.453
15651SOL    HW258582   1.777   1.296   8.306
15652SOL     OW58583   4.498   0.700  24.275
15652SOL    HW158584   4.478   0.735  24.362
15652SOL    HW258585   4.567   0.635  24.291
15653SOL     OW58586   1.488   3.057  22.274
15653SOL    HW158587   1.565   3.008  22.301
15653SOL    HW258588   1.449   3.089  22.356
15654SOL     OW58589   3.515   4.507  27.476
15654SOL    HW158590   3.449   4.439  27.466
15654SOL    HW258591   3.471   4.579  27.520
15655SOL     OW58592   3.357   1.924  19.324
15655SOL    HW158593   3.341   1.847  19.271
15655SOL    HW258594   3.444   1.909  19.361
15656SOL     OW58595   3.803   2.208  23.204
15656SOL    HW158596   3.765   2.172  23.124
15656SOL    HW258597   3.892   2.233  23.179
15657SOL     OW58598   0.466   2.615  22.516
15657SOL    HW158599   0.476   2.583  22.426
15657SOL    HW258600   0.554   2.644  22.541
15658SOL     OW58601   3.356   3.045  21.789
15658SOL    HW158602   3.292   3.039  21.861
15658SOL    HW258603   3.302   3.049  21.710
15659SOL     OW58604   0.942   4.522   3.058
15659SOL    HW158605   0.926   4.469   3.136
15659SOL    HW258606   0.938   4.460   2.985
15660SOL     OW58607   4.230   2.920  26.570
15660SOL    HW158608   4.194   2.831  26.565
15660SOL    HW258609   4.230   2.951  26.480
15661SOL     OW58610   2.270   3.595  20.836
15661SOL    HW158611   2.261   3.574  20.929
15661SOL    HW258612   2.361   3.620  20.825
15662SOL     OW58613   0.999   2.057  26.926
15662SOL    HW158614   1.070   2.028  26.983
15662SOL    HW258615   0.975   2.143  26.959
15663SOL     OW58616   2.824   3.340  10.416
15663SOL    HW158617   2.783   3.426  10.426
15663SOL    HW258618   2.788   3.288  10.488
15664SOL     OW58619   4.655   0.686   3.488
15664SOL    HW158620   4.614   0.627   3.551
15664SOL    HW258621   4.712   0.741   3.541
15665SOL     OW58622   1.881   2.742   6.680
15665SOL    HW158623   1.934   2.773   6.754
15665SOL    HW258624   1.804   2.703   6.721
15666SOL     OW58625   0.397   1.378   1.740
15666SOL    HW158626   0.470   1.439   1.743
15666SOL    HW258627   0.367   1.381   1.649
15667SOL     OW58628   4.426   3.778  25.255
15667SOL    HW158629   4.395   3.711  25.316
15667SOL    HW258630   4.521   3.771  25.258
15668SOL     OW58631   1.297   3.614  22.032
15668SOL    HW158632   1.373   3.571  22.070
15668SOL    HW258633   1.300   3.592  21.939
15669SOL     OW58634   3.260   0.667  24.922
15669SOL    HW158635   3.294   0.742  24.970
15669SOL    HW258636   3.285   0.591  24.974
15670SOL     OW58637   4.481   0.575  22.559
15670SOL    HW158638   4.480   0.479  22.568
15670SOL    HW258639   4.569   0.595  22.529
15671SOL     OW58640   1.997   2.922  10.071
15671SOL    HW158641   1.998   2.933  10.166
15671SOL    HW258642   1.911   2.883  10.053
15672SOL     OW58643   3.318   4.576   7.832
15672SOL    HW158644   3.243   4.539   7.877
15672SOL    HW258645   3.318   4.533   7.747
15673SOL     OW58646   3.514   2.834  23.467
15673SOL    HW158647   3.572   2.788  23.407
15673SOL    HW258648   3.443   2.772  23.484
15674SOL     OW58649   3.658   3.440  21.245
15674SOL    HW158650   3.635   3.481  21.329
15674SOL    HW258651   3.743   3.399  21.261
15675SOL     OW58652   2.622   0.862   0.652
15675SOL    HW158653   2.546   0.919   0.657
15675SOL    HW258654   2.644   0.859   0.558
15676SOL     OW58655   2.045   1.737   6.516
15676SOL    HW158656   1.976   1.761   6.579
15676SOL    HW258657   2.113   1.803   6.529
15677SOL     OW58658   3.620   4.741  27.920
15677SOL    HW158659   3.649   0.026  27.858
15677SOL    HW258660   3.529   4.762  27.938
15678SOL     OW58661   1.993   2.700   9.007
15678SOL    HW158662   2.034   2.671   9.089
15678SOL    HW258663   1.961   2.788   9.026
15679SOL     OW58664   0.561   4.426  25.918
15679SOL    HW158665   0.593   4.458  26.003
15679SOL    HW258666   0.595   4.337  25.912
15680SOL     OW58667   4.172   3.975   6.305
15680SOL    HW158668   4.239   4.010   6.363
15680SOL    HW258669   4.175   4.031   6.227
15681SOL     OW58670   2.112   3.444  24.386
15681SOL    HW158671   2.032   3.489  24.411
15681SOL    HW258672   2.084   3.382  24.318
15682SOL     OW58673   0.927   1.825  25.380
15682SOL    HW158674   0.995   1.767  25.346
15682SOL    HW258675   0.974   1.903  25.408
15683SOL     OW58676   3.077   4.705  27.723
15683SOL    HW158677   3.040   0.000  27.765
15683SOL    HW258678   3.089   4.730  27.631
15684SOL     OW58679   4.670   3.977  19.341
15684SOL    HW158680   4.734   4.017  19.281
15684SOL    HW258681   4.641   3.899  19.295
15685SOL     OW58682   1.588   1.015  28.033
15685SOL    HW158683   1.571   0.942  27.973
15685SOL    HW258684   1.516   1.077  28.017
15686SOL     OW58685   3.359   4.156  26.241
15686SOL    HW158686   3.335   4.165  26.333
15686SOL    HW258687   3.280   4.182  26.193
15687SOL     OW58688   0.724   3.601  18.597
15687SOL    HW158689   0.648   3.618  18.653
15687SOL    HW258690   0.800   3.617  18.654
15688SOL     OW58691   3.698   3.993   0.844
15688SOL    HW158692   3.778   4.029   0.882
15688SOL    HW258693   3.721   3.972   0.753
15689SOL     OW58694   4.648   1.741  26.488
15689SOL    HW158695   4.589   1.816  26.477
15689SOL    HW258696   4.717   1.755  26.424
15690SOL     OW58697   0.442   1.799  25.206
15690SOL    HW158698   0.449   1.808  25.301
15690SOL    HW258699   0.389   1.874  25.179
15691SOL     OW58700   0.585   1.841  26.870
15691SOL    HW158701   0.627   1.776  26.815
15691SOL    HW258702   0.623   1.828  26.957
15692SOL     OW58703   0.007   0.157   3.095
15692SOL    HW158704   4.699   0.188   3.094
15692SOL    HW258705   0.011   0.097   3.171
15693SOL     OW58706   2.120   3.301   6.164
15693SOL    HW158707   2.076   3.382   6.138
15693SOL    HW258708   2.095   3.288   6.255
15694SOL     OW58709   3.685   3.764  26.480
15694SOL    HW158710   3.748   3.820  26.524
15694SOL    HW258711   3.691   3.790  26.388
15695SOL     OW58712   1.602   4.184  24.503
15695SOL    HW158713   1.540   4.203  24.433
15695SOL    HW258714   1.686   4.215  24.470
15696SOL     OW58715   0.851   0.918  26.515
15696SOL    HW158716   0.828   1.008  26.537
15696SOL    HW258717   0.907   0.924  26.438
15697SOL     OW58718   4.664   3.887  10.285
15697SOL    HW158719   4.617   3.837  10.351
15697SOL    HW258720   4.686   3.970  10.327
15698SOL     OW58721   3.160   0.853   6.646
15698SOL    HW158722   3.208   0.925   6.606
15698SOL    HW258723   3.115   0.811   6.573
15699SOL     OW58724   1.780   0.435  21.016
15699SOL    HW158725   1.772   0.342  21.039
15699SOL    HW258726   1.744   0.481  21.092
15700SOL     OW58727   3.003   4.255   6.500
15700SOL    HW158728   2.968   4.313   6.567
15700SOL    HW258729   3.071   4.307   6.456
15701SOL     OW58730   3.238   1.297   4.363
15701SOL    HW158731   3.303   1.241   4.405
15701SOL    HW258732   3.155   1.272   4.404
15702SOL     OW58733   0.364   0.599   9.701
15702SOL    HW158734   0.388   0.653   9.626
15702SOL    HW258735   0.419   0.633   9.772
15703SOL     OW58736   1.689   2.631   6.835
15703SOL    HW158737   1.625   2.563   6.855
15703SOL    HW258738   1.693   2.684   6.914
15704SOL     OW58739   1.836   3.577   3.808
15704SOL    HW158740   1.852   3.616   3.721
15704SOL    HW258741   1.772   3.636   3.849
15705SOL     OW58742   2.123   1.648  27.337
15705SOL    HW158743   2.165   1.728  27.369
15705SOL    HW258744   2.046   1.638  27.393
15706SOL     OW58745   4.150   3.021  21.096
15706SOL    HW158746   4.112   2.951  21.149
15706SOL    HW258747   4.106   3.015  21.012
15707SOL     OW58748   3.361   0.533  25.539
15707SOL    HW158749   3.450   0.498  25.543
15707SOL    HW258750   3.368   0.621  25.577
15708SOL     OW58751   4.538   3.749  19.227
15708SOL    HW158752   4.515   3.668  19.271
15708SOL    HW258753   4.553   3.724  19.136
15709SOL     OW58754   1.309   2.497  28.144
15709SOL    HW158755   1.223   2.456  28.156
15709SOL    HW258756   1.321   2.550  28.223
15710SOL     OW58757   2.561   4.154  23.209
15710SOL    HW158758   2.635   4.111  23.167
15710SOL    HW258759   2.547   4.234  23.159
15711SOL     OW58760   2.268   1.907   9.436
15711SOL    HW158761   2.236   1.824   9.401
15711SOL    HW258762   2.342   1.882   9.491
15712SOL     OW58763   0.278   0.806  23.871
15712SOL    HW158764   0.326   0.772  23.946
15712SOL    HW258765   0.267   0.731  23.813
15713SOL     OW58766   0.203   1.334  10.695
15713SOL    HW158767   0.252   1.348  10.614
15713SOL    HW258768   0.212   1.416  10.743
15714SOL     OW58769   2.711   2.564  24.340
15714SOL    HW158770   2.799   2.527  24.348
15714SOL    HW258771   2.659   2.495  24.299
15715SOL     OW58772   0.541   0.492  27.248
15715SOL    HW158773   0.615   0.432  27.258
15715SOL    HW258774   0.528   0.528  27.336
15716SOL     OW58775   0.384   4.241  26.146
15716SOL    HW158776   0.466   4.192  26.135
15716SOL    HW258777   0.370   4.241  26.241
15717SOL     OW58778   3.706   3.563  23.998
15717SOL    HW158779   3.680   3.471  23.998
15717SOL    HW258780   3.646   3.605  23.936
15718SOL     OW58781   4.012   4.280   4.113
15718SOL    HW158782   3.930   4.299   4.159
15718SOL    HW258783   3.985   4.257   4.024
15719SOL     OW58784   1.659   1.300  23.582
15719SOL    HW158785   1.670   1.395  23.580
15719SOL    HW258786   1.692   1.271  23.497
15720SOL     OW58787   2.530   2.746  26.948
15720SOL    HW158788   2.492   2.784  27.026
15720SOL    HW258789   2.511   2.810  26.879
15721SOL     OW58790   3.060   1.200  10.554
15721SOL    HW158791   2.990   1.164  10.608
15721SOL    HW258792   3.024   1.282  10.520
15722SOL     OW58793   0.111   4.658   9.592
15722SOL    HW158794   0.138   4.567   9.607
15722SOL    HW258795   0.084   4.689   9.678
15723SOL     OW58796   0.031   3.430  25.664
15723SOL    HW158797   0.113   3.383  25.650
15723SOL    HW258798   4.767   3.377  25.729
15724SOL     OW58799   0.209   0.790   7.595
15724SOL    HW158800   0.200   0.883   7.615
15724SOL    HW258801   0.122   0.764   7.565
15725SOL     OW58802   4.379   0.559   1.880
15725SOL    HW158803   4.359   0.628   1.942
15725SOL    HW258804   4.350   0.594   1.795
15726SOL     OW58805   0.863   4.773  28.445
15726SOL    HW158806   0.779   4.757  28.401
15726SOL    HW258807   0.914   4.695  28.427
15727SOL     OW58808   4.636   0.125   0.034
15727SOL    HW158809   4.703   0.150   0.099
15727SOL    HW258810   4.577   0.068   0.082
15728SOL     OW58811   1.901   2.479  27.874
15728SOL    HW158812   1.937   2.460  27.960
15728SOL    HW258813   1.972   2.522  27.827
15729SOL     OW58814   2.674   2.544  26.557
15729SOL    HW158815   2.599   2.504  26.514
15729SOL    HW258816   2.646   2.634  26.575
15730SOL     OW58817   4.619   3.657  27.581
15730SOL    HW158818   4.533   3.615  27.576
15730SOL    HW258819   4.680   3.584  27.592
15731SOL     OW58820   2.367   2.708  23.573
15731SOL    HW158821   2.401   2.795  23.592
15731SOL    HW258822   2.313   2.686  23.649
15732SOL     OW58823   2.521   2.784  26.511
15732SOL    HW158824   2.463   2.854  26.482
15732SOL    HW258825   2.484   2.704  26.473
15733SOL     OW58826   0.497   3.855   6.466
15733SOL    HW158827   0.443   3.850   6.387
15733SOL    HW258828   0.515   3.949   6.476
15734SOL     OW58829   4.322   2.257  18.741
15734SOL    HW158830   4.392   2.220  18.686
15734SOL    HW258831   4.241   2.226  18.701
15735SOL     OW58832   0.652   4.340  22.727
15735SOL    HW158833   0.643   4.306  22.816
15735SOL    HW258834   0.564   4.366  22.702
15736SOL     OW58835   1.190   1.080   1.611
15736SOL    HW158836   1.261   1.073   1.675
15736SOL    HW258837   1.111   1.094   1.664
15737SOL     OW58838   0.489   0.453   2.777
15737SOL    HW158839   0.399   0.459   2.745
15737SOL    HW258840   0.485   0.489   2.866
15738SOL     OW58841   4.112   2.489   3.174
15738SOL    HW158842   4.027   2.453   3.148
15738SOL    HW258843   4.089   2.566   3.227
15739SOL     OW58844   0.311   2.772  23.370
15739SOL    HW158845   0.370   2.738  23.304
15739SOL    HW258846   0.340   2.862  23.385
15740SOL     OW58847   1.765   0.468  12.903
15740SOL    HW158848   1.826   0.488  12.974
15740SOL    HW258849   1.820   0.434  12.833
15741SOL     OW58850   1.729   0.034  19.946
15741SOL    HW158851   1.785   0.111  19.952
15741SOL    HW258852   1.785   4.743  19.970
15742SOL     OW58853   4.246   1.539  25.074
15742SOL    HW158854   4.341   1.529  25.079
15742SOL    HW258855   4.217   1.464  25.022
15743SOL     OW58856   2.883   0.065  18.058
15743SOL    HW158857   2.834   4.768  18.080
15743SOL    HW258858   2.957   0.035  18.007
15744SOL     OW58859   2.654   0.876   0.181
15744SOL    HW158860   2.636   0.968   0.199
15744SOL    HW258861   2.657   0.834   0.267
15745SOL     OW58862   1.635   2.011   8.548
15745SOL    HW158863   1.724   1.998   8.582
15745SOL    HW258864   1.647   2.023   8.454
15746SOL     OW58865   3.626   2.816   1.244
15746SOL    HW158866   3.686   2.884   1.273
15746SOL    HW258867   3.556   2.816   1.310
15747SOL     OW58868   2.061   3.395  20.316
15747SOL    HW158869   2.076   3.460  20.385
15747SOL    HW258870   2.066   3.445  20.235
15748SOL     OW58871   1.952   1.524   3.309
15748SOL    HW158872   1.973   1.431   3.297
15748SOL    HW258873   2.004   1.569   3.242
15749SOL     OW58874   3.372   3.803  25.039
15749SOL    HW158875   3.311   3.740  25.078
15749SOL    HW258876   3.438   3.816  25.107
15750SOL     OW58877   2.591   3.035   0.897
15750SOL    HW158878   2.571   2.942   0.886
15750SOL    HW258879   2.610   3.066   0.808
15751SOL     OW58880   0.349   1.160   6.013
15751SOL    HW158881   0.334   1.068   5.993
15751SOL    HW258882   0.280   1.184   6.073
15752SOL     OW58883   1.274   3.850   7.378
15752SOL    HW158884   1.188   3.808   7.384
15752SOL    HW258885   1.284   3.897   7.461
15753SOL     OW58886   3.367   0.790  26.564
15753SOL    HW158887   3.293   0.749  26.609
15753SOL    HW258888   3.421   0.717  26.535
15754SOL     OW58889   2.497   2.114  27.942
15754SOL    HW158890   2.486   2.066  28.024
15754SOL    HW258891   2.520   2.046  27.877
15755SOL     OW58892   3.100   1.886  21.063
15755SOL    HW158893   3.145   1.833  21.129
15755SOL    HW258894   3.171   1.929  21.014
15756SOL     OW58895   1.573   1.652   2.337
15756SOL    HW158896   1.599   1.695   2.256
15756SOL    HW258897   1.642   1.674   2.399
15757SOL     OW58898   4.083   0.491   0.100
15757SOL    HW158899   4.029   0.532   0.032
15757SOL    HW258900   4.120   0.565   0.149
15758SOL     OW58901   0.625   4.338  22.159
15758SOL    HW158902   0.633   4.261  22.215
15758SOL    HW258903   0.693   4.327  22.093
15759SOL     OW58904   0.494   1.242   5.706
15759SOL    HW158905   0.535   1.157   5.693
15759SOL    HW258906   0.486   1.252   5.801
15760SOL     OW58907   4.429   3.306  24.031
15760SOL    HW158908   4.431   3.360  23.951
15760SOL    HW258909   4.462   3.221  24.003
15761SOL     OW58910   1.379   4.662  27.297
15761SOL    HW158911   1.351   4.704  27.216
15761SOL    HW258912   1.395   4.734  27.357
15762SOL     OW58913   4.438   2.508  27.998
15762SOL    HW158914   4.387   2.431  27.971
15762SOL    HW258915   4.512   2.471  28.046
15763SOL     OW58916   3.251   4.251  22.806
15763SOL    HW158917   3.315   4.309  22.763
15763SOL    HW258918   3.276   4.163  22.777
15764SOL     OW58919   0.225   2.226   2.285
15764SOL    HW158920   0.147   2.280   2.272
15764SOL    HW258921   0.197   2.137   2.264
15765SOL     OW58922   0.621   4.258   0.392
15765SOL    HW158923   0.602   4.351   0.404
15765SOL    HW258924   0.714   4.250   0.411
15766SOL     OW58925   2.653   3.710   6.423
15766SOL    HW158926   2.672   3.801   6.400
15766SOL    HW258927   2.602   3.716   6.504
15767SOL     OW58928   3.090   2.060  18.893
15767SOL    HW158929   3.097   1.974  18.936
15767SOL    HW258930   3.067   2.040  18.803
15768SOL     OW58931   2.662   1.496   3.145
15768SOL    HW158932   2.684   1.530   3.059
15768SOL    HW258933   2.632   1.407   3.130
15769SOL     OW58934   0.870   3.771  25.804
15769SOL    HW158935   0.790   3.783  25.753
15769SOL    HW258936   0.864   3.836  25.874
15770SOL     OW58937   1.517   3.796   9.403
15770SOL    HW158938   1.487   3.719   9.451
15770SOL    HW258939   1.440   3.825   9.354
15771SOL     OW58940   0.585   3.447  24.645
15771SOL    HW158941   0.505   3.442  24.592
15771SOL    HW258942   0.656   3.444  24.581
15772SOL     OW58943   1.437   0.239   4.525
15772SOL    HW158944   1.417   0.150   4.554
15772SOL    HW258945   1.519   0.261   4.570
15773SOL     OW58946   0.933   2.982   8.083
15773SOL    HW158947   1.027   2.979   8.098
15773SOL    HW258948   0.895   2.951   8.165
15774SOL     OW58949   4.452   0.145   5.459
15774SOL    HW158950   4.370   0.168   5.504
15774SOL    HW258951   4.423   0.110   5.375
15775SOL     OW58952   1.511   0.489  27.162
15775SOL    HW158953   1.596   0.530  27.175
15775SOL    HW258954   1.474   0.482  27.250
15776SOL     OW58955   1.697   1.688   7.838
15776SOL    HW158956   1.791   1.691   7.820
15776SOL    HW258957   1.688   1.724   7.927
15777SOL     OW58958   4.237   2.178  24.323
15777SOL    HW158959   4.189   2.191  24.405
15777SOL    HW258960   4.287   2.259  24.311
15778SOL     OW58961   1.818   0.758  25.618
15778SOL    HW158962   1.861   0.843  25.613
15778SOL    HW258963   1.884   0.700  25.657
15779SOL     OW58964   4.306   0.738   6.083
15779SOL    HW158965   4.368   0.673   6.050
15779SOL    HW258966   4.248   0.689   6.142
15780SOL     OW58967   3.054   4.445   4.531
15780SOL    HW158968   3.047   4.535   4.498
15780SOL    HW258969   3.147   4.424   4.523
15781SOL     OW58970   3.688   3.175   6.451
15781SOL    HW158971   3.644   3.090   6.451
15781SOL    HW258972   3.621   3.237   6.422
15782SOL     OW58973   3.133   2.708  20.596
15782SOL    HW158974   3.220   2.682  20.627
15782SOL    HW258975   3.085   2.625  20.589
15783SOL     OW58976   4.440   2.010  26.816
15783SOL    HW158977   4.496   2.026  26.892
15783SOL    HW258978   4.439   1.915  26.806
15784SOL     OW58979   0.577   4.164  11.738
15784SOL    HW158980   0.588   4.144  11.831
15784SOL    HW258981   0.487   4.137  11.719
15785SOL     OW58982   3.135   1.322   0.392
15785SOL    HW158983   3.168   1.362   0.312
15785SOL    HW258984   3.200   1.255   0.414
15786SOL     OW58985   0.547   0.175   6.478
15786SOL    HW158986   0.532   0.162   6.385
15786SOL    HW258987   0.507   0.259   6.497
15787SOL     OW58988   3.906   1.818  24.490
15787SOL    HW158989   3.866   1.905  24.482
15787SOL    HW258990   3.831   1.760  24.507
15788SOL     OW58991   0.575   4.620  20.060
15788SOL    HW158992   0.649   4.669  20.095
15788SOL    HW258993   0.505   4.633  20.124
15789SOL     OW58994   0.161   3.388   0.615
15789SOL    HW158995   0.169   3.362   0.524
15789SOL    HW258996   0.229   3.455   0.627
15790SOL     OW58997   3.998   2.186  19.471
15790SOL    HW158998   4.068   2.151  19.525
15790SOL    HW258999   3.945   2.110  19.448
15791SOL     OW59000   1.277   1.080  27.323
15791SOL    HW159001   1.288   1.007  27.263
15791SOL    HW259002   1.326   1.055  27.401
15792SOL     OW59003   0.558   3.214   6.920
15792SOL    HW159004   0.518   3.167   6.993
15792SOL    HW259005   0.566   3.148   6.851
15793SOL     OW59006   2.719   1.597   6.876
15793SOL    HW159007   2.684   1.514   6.909
15793SOL    HW259008   2.648   1.634   6.825
15794SOL     OW59009   4.047   2.124   3.260
15794SOL    HW159010   3.971   2.067   3.273
15794SOL    HW259011   4.119   2.078   3.303
15795SOL     OW59012   1.561   4.157  21.329
15795SOL    HW159013   1.552   4.139  21.236
15795SOL    HW259014   1.547   4.251  21.337
15796SOL     OW59015   1.470   4.608  28.496
15796SOL    HW159016   1.541   4.627   0.026
15796SOL    HW259017   1.507   4.542  28.437
15797SOL     OW59018   0.092   0.633  20.113
15797SOL    HW159019   0.132   0.622  20.026
15797SOL    HW259020   0.009   0.584  20.107
15798SOL     OW59021   1.151   3.419   2.636
15798SOL    HW159022   1.189   3.412   2.724
15798SOL    HW259023   1.163   3.333   2.597
15799SOL     OW59024   0.423   4.339   0.672
15799SOL    HW159025   0.405   4.393   0.595
15799SOL    HW259026   0.463   4.398   0.735
15800SOL     OW59027   0.704   3.211  21.163
15800SOL    HW159028   0.701   3.128  21.116
15800SOL    HW259029   0.723   3.276  21.095
15801SOL     OW59030   2.562   1.268   5.539
15801SOL    HW159031   2.492   1.251   5.475
15801SOL    HW259032   2.622   1.195   5.528
15802SOL     OW59033   0.427   0.638  24.667
15802SOL    HW159034   0.407   0.675  24.753
15802SOL    HW259035   0.519   0.614  24.673
15803SOL     OW59036   2.363   3.336  24.159
15803SOL    HW159037   2.359   3.425  24.193
15803SOL    HW259038   2.394   3.283  24.232
15804SOL     OW59039   2.782   0.601  11.755
15804SOL    HW159040   2.777   0.527  11.695
15804SOL    HW259041   2.772   0.678  11.698
15805SOL     OW59042   0.384   2.519   6.132
15805SOL    HW159043   0.426   2.436   6.107
15805SOL    HW259044   0.456   2.583   6.133
15806SOL     OW59045   3.607   3.767   9.265
15806SOL    HW159046   3.542   3.836   9.250
15806SOL    HW259047   3.637   3.782   9.354
15807SOL     OW59048   0.035   0.765  22.265
15807SOL    HW159049   0.109   0.799  22.316
15807SOL    HW259050   0.052   0.795  22.176
15808SOL     OW59051   2.480   1.304   6.276
15808SOL    HW159052   2.455   1.279   6.187
15808SOL    HW259053   2.397   1.325   6.319
15809SOL     OW59054   3.195   2.609   4.908
15809SOL    HW159055   3.231   2.683   4.859
15809SOL    HW259056   3.272   2.568   4.949
15810SOL     OW59057   4.194   4.612   8.299
15810SOL    HW159058   4.241   4.622   8.382
15810SOL    HW259059   4.264   4.602   8.234
15811SOL     OW59060   4.240   4.444   9.702
15811SOL    HW159061   4.300   4.370   9.689
15811SOL    HW259062   4.267   4.507   9.636
15812SOL     OW59063   1.933   2.504  21.064
15812SOL    HW159064   1.967   2.554  21.139
15812SOL    HW259065   1.900   2.423  21.103
15813SOL     OW59066   1.937   2.551  24.557
15813SOL    HW159067   1.854   2.531  24.599
15813SOL    HW259068   1.914   2.572  24.467
15814SOL     OW59069   4.629   3.442  22.619
15814SOL    HW159070   4.568   3.510  22.650
15814SOL    HW259071   4.634   3.457  22.525
15815SOL     OW59072   0.782   0.282  27.540
15815SOL    HW159073   0.692   0.301  27.568
15815SOL    HW259074   0.826   0.252  27.620
15816SOL     OW59075   0.047   3.541  28.413
15816SOL    HW159076   0.004   3.528  28.497
15816SOL    HW259077   0.136   3.508  28.425
15817SOL     OW59078   2.209   0.118   3.933
15817SOL    HW159079   2.186   0.039   3.885
15817SOL    HW259080   2.259   0.171   3.870
15818SOL     OW59081   4.636   2.458   2.774
15818SOL    HW159082   4.606   2.456   2.865
15818SOL    HW259083   4.579   2.397   2.727
15819SOL     OW59084   3.737   1.331  25.334
15819SOL    HW159085   3.708   1.407  25.285
15819SOL    HW259086   3.831   1.345  25.347
15820SOL     OW59087   0.919   1.348  23.211
15820SOL    HW159088   0.841   1.313  23.168
15820SOL    HW259089   0.931   1.435  23.173
15821SOL     OW59090   3.174   3.139  19.734
15821SOL    HW159091   3.205   3.110  19.819
15821SOL    HW259092   3.115   3.070  19.704
15822SOL     OW59093   3.790   0.593  26.555
15822SOL    HW159094   3.740   0.597  26.473
15822SOL    HW259095   3.723   0.601  26.624
15823SOL     OW59096   2.161   2.624  23.747
15823SOL    HW159097   2.122   2.670  23.672
15823SOL    HW259098   2.089   2.615  23.809
15824SOL     OW59099   1.452   0.719   6.821
15824SOL    HW159100   1.443   0.718   6.916
15824SOL    HW259101   1.546   0.731   6.806
15825SOL     OW59102   4.544   0.076   6.098
15825SOL    HW159103   4.611   0.098   6.033
15825SOL    HW259104   4.461   0.077   6.049
15826SOL     OW59105   0.981   0.566  13.360
15826SOL    HW159106   0.979   0.630  13.431
15826SOL    HW259107   1.074   0.560  13.336
15827SOL     OW59108   4.660   2.410  25.627
15827SOL    HW159109   4.680   2.392  25.719
15827SOL    HW259110   4.711   2.346  25.578
15828SOL     OW59111   0.661   2.468   3.019
15828SOL    HW159112   0.689   2.485   2.929
15828SOL    HW259113   0.664   2.373   3.028
15829SOL     OW59114   3.538   1.074  24.656
15829SOL    HW159115   3.589   1.104  24.581
15829SOL    HW259116   3.590   1.099  24.733
15830SOL     OW59117   4.175   4.513  24.663
15830SOL    HW159118   4.211   4.493  24.750
15830SOL    HW259119   4.189   4.433  24.613
15831SOL     OW59120   1.992   0.601  21.192
15831SOL    HW159121   1.898   0.582  21.192
15831SOL    HW259122   2.033   0.517  21.172
15832SOL     OW59123   1.031   0.037   6.194
15832SOL    HW159124   1.106   0.002   6.241
15832SOL    HW259125   0.958   4.765   6.222
15833SOL     OW59126   3.824   1.495   0.804
15833SOL    HW159127   3.893   1.514   0.868
15833SOL    HW259128   3.780   1.579   0.791
15834SOL     OW59129   4.213   3.089  23.710
15834SOL    HW159130   4.183   3.119  23.796
15834SOL    HW259131   4.190   2.996  23.708
15835SOL     OW59132   4.108   2.384   6.718
15835SOL    HW159133   4.180   2.377   6.780
15835SOL    HW259134   4.038   2.427   6.767
15836SOL     OW59135   1.238   4.373   2.855
15836SOL    HW159136   1.196   4.457   2.837
15836SOL    HW259137   1.258   4.376   2.949
15837SOL     OW59138   4.484   4.696   9.544
15837SOL    HW159139   4.532   4.686   9.627
15837SOL    HW259140   4.544   4.662   9.478
15838SOL     OW59141   3.660   3.600   2.958
15838SOL    HW159142   3.703   3.525   2.916
15838SOL    HW259143   3.722   3.673   2.946
15839SOL     OW59144   0.337   2.262   8.789
15839SOL    HW159145   0.334   2.230   8.699
15839SOL    HW259146   0.407   2.211   8.829
15840SOL     OW59147   1.153   2.547  22.310
15840SOL    HW159148   1.157   2.452  22.302
15840SOL    HW259149   1.064   2.570  22.281
15841SOL     OW59150   4.531   2.732   4.804
15841SOL    HW159151   4.549   2.638   4.804
15841SOL    HW259152   4.605   2.771   4.851
15842SOL     OW59153   1.790   2.713   0.504
15842SOL    HW159154   1.808   2.701   0.598
15842SOL    HW259155   1.723   2.649   0.484
15843SOL     OW59156   3.612   1.501   8.711
15843SOL    HW159157   3.702   1.472   8.725
15843SOL    HW259158   3.621   1.587   8.669
15844SOL     OW59159   1.886   2.789   4.575
15844SOL    HW159160   1.881   2.794   4.479
15844SOL    HW259161   1.818   2.726   4.599
15845SOL     OW59162   0.582   3.266  23.532
15845SOL    HW159163   0.603   3.275  23.625
15845SOL    HW259164   0.594   3.173  23.514
15846SOL     OW59165   1.504   2.443   4.669
15846SOL    HW159166   1.472   2.388   4.741
15846SOL    HW259167   1.482   2.394   4.590
15847SOL     OW59168   0.286   0.244   7.844
15847SOL    HW159169   0.354   0.188   7.880
15847SOL    HW259170   0.231   0.185   7.793
15848SOL     OW59171   1.617   1.700  21.099
15848SOL    HW159172   1.565   1.780  21.098
15848SOL    HW259173   1.683   1.713  21.031
15849SOL     OW59174   0.754   0.014   9.255
15849SOL    HW159175   0.737   0.042   9.345
15849SOL    HW259176   0.705   4.715   9.247
15850SOL     OW59177   4.522   0.326  24.577
15850SOL    HW159178   4.569   0.258  24.626
15850SOL    HW259179   4.516   0.400  24.638
15851SOL     OW59180   2.865   1.522   0.278
15851SOL    HW159181   2.892   1.530   0.369
15851SOL    HW259182   2.932   1.467   0.237
15852SOL     OW59183   1.795   2.193  22.189
15852SOL    HW159184   1.807   2.223  22.099
15852SOL    HW259185   1.883   2.173  22.219
15853SOL     OW59186   4.433   3.968   1.793
15853SOL    HW159187   4.396   3.894   1.841
15853SOL    HW259188   4.508   3.996   1.845
15854SOL     OW59189   0.554   1.466   0.255
15854SOL    HW159190   0.625   1.525   0.281
15854SOL    HW259191   0.587   1.424   0.175
15855SOL     OW59192   1.503   0.039   8.495
15855SOL    HW159193   1.489   0.129   8.467
15855SOL    HW259194   1.589   0.016   8.459
15856SOL     OW59195   2.929   4.647  12.700
15856SOL    HW159196   3.018   4.637  12.666
15856SOL    HW259197   2.939   4.708  12.774
15857SOL     OW59198   3.433   3.140   7.018
15857SOL    HW159199   3.504   3.082   7.044
15857SOL    HW259200   3.423   3.126   6.924
15858SOL     OW59201   2.377   3.976   5.834
15858SOL    HW159202   2.414   3.895   5.869
15858SOL    HW259203   2.306   3.947   5.777
15859SOL     OW59204   2.319   1.973   7.806
15859SOL    HW159205   2.319   2.001   7.897
15859SOL    HW259206   2.294   2.052   7.757
15860SOL     OW59207   3.831   0.186  24.398
15860SOL    HW159208   3.861   0.185  24.307
15860SOL    HW259209   3.751   0.239  24.396
15861SOL     OW59210   4.403   1.914  11.697
15861SOL    HW159211   4.399   1.965  11.617
15861SOL    HW259212   4.312   1.909  11.727
15862SOL     OW59213   4.728   0.798  20.327
15862SOL    HW159214   0.015   0.791  20.262
15862SOL    HW259215   4.710   0.892  20.333
15863SOL     OW59216   1.293   3.920  26.186
15863SOL    HW159217   1.255   3.841  26.224
15863SOL    HW259218   1.357   3.949  26.250
15864SOL     OW59219   2.915   3.044  11.059
15864SOL    HW159220   2.930   3.059  11.152
15864SOL    HW259221   2.955   2.958  11.042
15865SOL     OW59222   2.591   2.194  20.784
15865SOL    HW159223   2.543   2.232  20.857
15865SOL    HW259224   2.560   2.242  20.707
15866SOL     OW59225   4.224   0.611   4.969
15866SOL    HW159226   4.243   0.651   5.054
15866SOL    HW259227   4.132   0.634   4.952
15867SOL     OW59228   4.227   4.559   3.121
15867SOL    HW159229   4.215   4.473   3.161
15867SOL    HW259230   4.255   4.540   3.032
15868SOL     OW59231   2.515   3.191   5.475
15868SOL    HW159232   2.557   3.205   5.560
15868SOL    HW259233   2.499   3.097   5.471
15869SOL     OW59234   4.636   4.229   8.125
15869SOL    HW159235   4.629   4.134   8.114
15869SOL    HW259236   4.668   4.260   8.040
15870SOL     OW59237   0.236   2.465   8.479
15870SOL    HW159238   0.148   2.467   8.440
15870SOL    HW259239   0.233   2.533   8.546
15871SOL     OW59240   2.817   3.832  28.376
15871SOL    HW159241   2.771   3.809  28.296
15871SOL    HW259242   2.907   3.849  28.348
15872SOL     OW59243   1.137   0.902   6.882
15872SOL    HW159244   1.093   0.818   6.895
15872SOL    HW259245   1.158   0.904   6.789
15873SOL     OW59246   0.027   2.563  24.732
15873SOL    HW159247   4.733   2.560  24.674
15873SOL    HW259248   0.099   2.528  24.680
15874SOL     OW59249   3.818   3.790   8.689
15874SOL    HW159250   3.791   3.778   8.598
15874SOL    HW259251   3.739   3.819   8.734
15875SOL     OW59252   0.808   3.386   5.568
15875SOL    HW159253   0.844   3.378   5.656
15875SOL    HW259254   0.841   3.310   5.521
15876SOL     OW59255   3.947   4.175  25.126
15876SOL    HW159256   3.948   4.145  25.216
15876SOL    HW259257   3.872   4.130  25.086
15877SOL     OW59258   3.324   4.774  22.446
15877SOL    HW159259   3.310   0.065  22.387
15877SOL    HW259260   3.253   4.781  22.510
15878SOL     OW59261   0.360   1.395  22.920
15878SOL    HW159262   0.274   1.355  22.931
15878SOL    HW259263   0.421   1.322  22.921
15879SOL     OW59264   1.462   4.061   2.080
15879SOL    HW159265   1.409   4.037   2.004
15879SOL    HW259266   1.428   4.006   2.151
15880SOL     OW59267   2.152   2.395   8.228
15880SOL    HW159268   2.173   2.409   8.136
15880SOL    HW259269   2.228   2.349   8.263
15881SOL     OW59270   0.348   3.688  11.796
15881SOL    HW159271   0.275   3.742  11.765
15881SOL    HW259272   0.308   3.626  11.856
15882SOL     OW59273   2.456   2.643   0.335
15882SOL    HW159274   2.529   2.676   0.387
15882SOL    HW259275   2.454   2.699   0.258
15883SOL     OW59276   3.163   0.932   4.170
15883SOL    HW159277   3.124   0.977   4.245
15883SOL    HW259278   3.107   0.955   4.096
15884SOL     OW59279   0.530   0.905   8.573
15884SOL    HW159280   0.601   0.967   8.557
15884SOL    HW259281   0.500   0.881   8.485
15885SOL     OW59282   4.227   2.236  22.996
15885SOL    HW159283   4.140   2.208  22.966
15885SOL    HW259284   4.216   2.251  23.090
15886SOL     OW59285   3.789   1.308   6.631
15886SOL    HW159286   3.811   1.268   6.716
15886SOL    HW259287   3.874   1.327   6.592
15887SOL     OW59288   2.409   2.740  18.749
15887SOL    HW159289   2.480   2.804  18.752
15887SOL    HW259290   2.351   2.772  18.679
15888SOL     OW59291   2.910   1.930   2.760
15888SOL    HW159292   2.946   1.997   2.702
15888SOL    HW259293   2.911   1.850   2.707
15889SOL     OW59294   0.379   4.646  20.249
15889SOL    HW159295   0.298   4.613  20.288
15889SOL    HW259296   0.397   4.727  20.296
15890SOL     OW59297   2.151   1.672   8.377
15890SOL    HW159298   2.206   1.748   8.360
15890SOL    HW259299   2.089   1.701   8.444
15891SOL     OW59300   1.978   1.378   2.236
15891SOL    HW159301   1.918   1.446   2.204
15891SOL    HW259302   2.053   1.382   2.176
15892SOL     OW59303   2.584   2.563  20.781
15892SOL    HW159304   2.668   2.557  20.827
15892SOL    HW259305   2.598   2.632  20.716
15893SOL     OW59306   1.371   1.596   8.483
15893SOL    HW159307   1.337   1.622   8.397
15893SOL    HW259308   1.294   1.578   8.535
15894SOL     OW59309   3.243   3.973  20.981
15894SOL    HW159310   3.289   4.044  20.936
15894SOL    HW259311   3.313   3.915  21.011
15895SOL     OW59312   4.195   1.622   3.652
15895SOL    HW159313   4.199   1.617   3.556
15895SOL    HW259314   4.220   1.712   3.672
15896SOL     OW59315   2.439   3.024  22.928
15896SOL    HW159316   2.450   2.956  22.861
15896SOL    HW259317   2.377   3.086  22.890
15897SOL     OW59318   2.665   0.532   8.627
15897SOL    HW159319   2.728   0.466   8.599
15897SOL    HW259320   2.708   0.577   8.700
15898SOL     OW59321   0.204   1.117  11.742
15898SOL    HW159322   0.259   1.044  11.769
15898SOL    HW259323   0.146   1.133  11.817
15899SOL     OW59324   2.368   0.176   6.941
15899SOL    HW159325   2.324   0.092   6.931
15899SOL    HW259326   2.429   0.181   6.867
15900SOL     OW59327   0.263   1.961  21.340
15900SOL    HW159328   0.256   1.951  21.435
15900SOL    HW259329   0.339   2.017  21.327
15901SOL     OW59330   2.044   3.593  25.702
15901SOL    HW159331   2.082   3.505  25.709
15901SOL    HW259332   1.956   3.583  25.739
15902SOL     OW59333   3.503   3.716   5.332
15902SOL    HW159334   3.519   3.811   5.328
15902SOL    HW259335   3.422   3.703   5.283
15903SOL     OW59336   2.997   0.699  28.070
15903SOL    HW159337   2.926   0.761  28.084
15903SOL    HW259338   2.960   0.633  28.011
15904SOL     OW59339   2.052   3.884  22.536
15904SOL    HW159340   1.971   3.902  22.489
15904SOL    HW259341   2.037   3.800  22.580
15905SOL     OW59342   1.659   3.781   2.331
15905SOL    HW159343   1.639   3.721   2.403
15905SOL    HW259344   1.685   3.862   2.375
15906SOL     OW59345   4.651   2.774   2.374
15906SOL    HW159346   4.642   2.714   2.300
15906SOL    HW259347   4.571   2.763   2.425
15907SOL     OW59348   2.875   1.998  18.339
15907SOL    HW159349   2.916   1.912  18.350
15907SOL    HW259350   2.783   1.984  18.363
15908SOL     OW59351   4.694   1.249  28.249
15908SOL    HW159352   4.696   1.236  28.343
15908SOL    HW259353   4.632   1.183  28.216
15909SOL     OW59354   2.535   0.460   4.396
15909SOL    HW159355   2.554   0.367   4.401
15909SOL    HW259356   2.586   0.500   4.466
15910SOL     OW59357   4.070   3.364   3.958
15910SOL    HW159358   4.063   3.285   3.903
15910SOL    HW259359   3.979   3.386   3.978
15911SOL     OW59360   0.109   2.838   8.164
15911SOL    HW159361   0.142   2.920   8.128
15911SOL    HW259362   0.054   2.801   8.094
15912SOL     OW59363   3.813   4.774   4.571
15912SOL    HW159364   3.783   4.754   4.659
15912SOL    HW259365   3.753   4.727   4.513
15913SOL     OW59366   0.213   0.004  28.432
15913SOL    HW159367   0.124   4.756  28.413
15913SOL    HW259368   0.201   0.092  28.468
15914SOL     OW59369   4.225   3.773   0.430
15914SOL    HW159370   4.162   3.845   0.439
15914SOL    HW259371   4.275   3.775   0.511
15915SOL     OW59372   4.449   0.686  21.650
15915SOL    HW159373   4.434   0.597  21.620
15915SOL    HW259374   4.438   0.741  21.572
15916SOL     OW59375   3.310   3.907   7.569
15916SOL    HW159376   3.387   3.923   7.624
15916SOL    HW259377   3.338   3.933   7.481
15917SOL     OW59378   0.034   0.663  10.409
15917SOL    HW159379   0.114   0.691  10.453
15917SOL    HW259380   4.772   0.745  10.386
15918SOL     OW59381   3.003   0.496   7.368
15918SOL    HW159382   2.986   0.548   7.447
15918SOL    HW259383   3.022   0.561   7.300
15919SOL     OW59384   1.538   2.808   2.652
15919SOL    HW159385   1.538   2.720   2.689
15919SOL    HW259386   1.464   2.852   2.694
15920SOL     OW59387   4.197   1.809   1.043
15920SOL    HW159388   4.272   1.858   1.012
15920SOL    HW259389   4.172   1.852   1.125
15921SOL     OW59390   1.618   3.950  25.540
15921SOL    HW159391   1.696   3.961  25.485
15921SOL    HW259392   1.640   3.877  25.598
15922SOL     OW59393   4.602   3.925  25.962
15922SOL    HW159394   4.677   3.964  25.918
15922SOL    HW259395   4.573   3.855  25.904
15923SOL     OW59396   2.012   0.344  20.652
15923SOL    HW159397   1.921   0.316  20.665
15923SOL    HW259398   2.009   0.397  20.572
15924SOL     OW59399   0.410   1.508   1.191
15924SOL    HW159400   0.333   1.453   1.178
15924SOL    HW259401   0.482   1.458   1.152
15925SOL     OW59402   3.361   1.971   0.055
15925SOL    HW159403   3.345   2.031  28.514
15925SOL    HW259404   3.383   2.028   0.129
15926SOL     OW59405   0.977   1.460  26.400
15926SOL    HW159406   1.072   1.459  26.400
15926SOL    HW259407   0.953   1.450  26.308
15927SOL     OW59408   4.675   0.650   0.136
15927SOL    HW159409   4.750   0.700   0.107
15927SOL    HW259410   4.604   0.675   0.076
15928SOL     OW59411   0.438   3.072   3.642
15928SOL    HW159412   0.521   3.026   3.656
15928SOL    HW259413   0.371   3.007   3.664
15929SOL     OW59414   2.718   0.108   0.003
15929SOL    HW159415   2.751   0.037  28.478
15929SOL    HW259416   2.661   0.159  28.476
15930SOL     OW59417   1.812   4.462  28.510
15930SOL    HW159418   1.741   4.431  28.453
15930SOL    HW259419   1.823   4.554  28.487
15931SOL     OW59420   4.134   1.651  22.214
15931SOL    HW159421   4.208   1.595  22.238
15931SOL    HW259422   4.133   1.649  22.118
15932SOL     OW59423   2.431   4.074   6.978
15932SOL    HW159424   2.375   4.040   7.047
15932SOL    HW259425   2.425   4.169   6.986
15933SOL     OW59426   3.088   2.252  22.309
15933SOL    HW159427   3.109   2.315  22.378
15933SOL    HW259428   3.117   2.167  22.344
15934SOL     OW59429   3.091   0.315  22.560
15934SOL    HW159430   3.071   0.322  22.467
15934SOL    HW259431   3.170   0.368  22.572
15935SOL     OW59432   2.840   0.104  25.703
15935SOL    HW159433   2.921   0.103  25.652
15935SOL    HW259434   2.839   0.191  25.744
15936SOL     OW59435   3.635   2.131   8.452
15936SOL    HW159436   3.587   2.147   8.370
15936SOL    HW259437   3.719   2.176   8.440
15937SOL     OW59438   0.542   4.121   7.297
15937SOL    HW159439   0.618   4.111   7.355
15937SOL    HW259440   0.538   4.039   7.248
15938SOL     OW59441   3.241   3.537   4.668
15938SOL    HW159442   3.156   3.526   4.625
15938SOL    HW259443   3.301   3.559   4.596
15939SOL     OW59444   1.341   3.636   2.570
15939SOL    HW159445   1.281   3.562   2.577
15939SOL    HW259446   1.351   3.667   2.660
15940SOL     OW59447   1.647   2.460  10.822
15940SOL    HW159448   1.662   2.374  10.784
15940SOL    HW259449   1.602   2.441  10.905
15941SOL     OW59450   4.580   4.094   6.319
15941SOL    HW159451   4.633   4.033   6.371
15941SOL    HW259452   4.554   4.043   6.243
15942SOL     OW59453   2.082   3.833  25.608
15942SOL    HW159454   2.176   3.849  25.615
15942SOL    HW259455   2.069   3.748  25.650
15943SOL     OW59456   1.403   3.154  10.877
15943SOL    HW159457   1.391   3.247  10.895
15943SOL    HW259458   1.329   3.130  10.822
15944SOL     OW59459   3.364   3.652   8.741
15944SOL    HW159460   3.386   3.562   8.718
15944SOL    HW259461   3.286   3.644   8.796
15945SOL     OW59462   4.391   4.089  28.248
15945SOL    HW159463   4.306   4.104  28.289
15945SOL    HW259464   4.437   4.173  28.257
15946SOL     OW59465   3.071   0.721   9.420
15946SOL    HW159466   3.059   0.713   9.325
15946SOL    HW259467   3.128   0.798   9.430
15947SOL     OW59468   1.815   2.734   9.776
15947SOL    HW159469   1.776   2.663   9.726
15947SOL    HW259470   1.798   2.813   9.724
15948SOL     OW59471   0.602   3.464  27.602
15948SOL    HW159472   0.587   3.517  27.524
15948SOL    HW259473   0.568   3.517  27.674
15949SOL     OW59474   2.063   0.708   1.456
15949SOL    HW159475   2.136   0.749   1.410
15949SOL    HW259476   2.000   0.686   1.386
15950SOL     OW59477   2.232   2.166   7.580
15950SOL    HW159478   2.249   2.159   7.486
15950SOL    HW259479   2.254   2.257   7.601
15951SOL     OW59480   3.019   1.699   3.153
15951SOL    HW159481   3.080   1.626   3.167
15951SOL    HW259482   2.999   1.730   3.241
15952SOL     OW59483   1.683   1.512  10.589
15952SOL    HW159484   1.657   1.421  10.602
15952SOL    HW259485   1.701   1.545  10.677
15953SOL     OW59486   1.457   1.208  11.142
15953SOL    HW159487   1.385   1.191  11.203
15953SOL    HW259488   1.504   1.282  11.181
15954SOL     OW59489   2.443   3.728   1.870
15954SOL    HW159490   2.520   3.783   1.878
15954SOL    HW259491   2.387   3.755   1.943
15955SOL     OW59492   1.914   2.736  11.329
15955SOL    HW159493   1.991   2.695  11.368
15955SOL    HW259494   1.840   2.683  11.360
15956SOL     OW59495   0.346   0.053   4.853
15956SOL    HW159496   0.257   0.083   4.871
15956SOL    HW259497   0.341   4.740   4.861
15957SOL     OW59498   1.364   4.060   0.139
15957SOL    HW159499   1.299   3.989   0.139
15957SOL    HW259500   1.315   4.137   0.111
15958SOL     OW59501   2.181   2.533  12.156
15958SOL    HW159502   2.212   2.597  12.220
15958SOL    HW259503   2.259   2.483  12.131
15959SOL     OW59504   2.045   0.934  23.780
15959SOL    HW159505   2.071   0.896  23.696
15959SOL    HW259506   1.953   0.955  23.769
15960SOL     OW59507   1.353   0.270  10.843
15960SOL    HW159508   1.337   0.184  10.882
15960SOL    HW259509   1.416   0.253  10.773
15961SOL     OW59510   3.711   4.469   7.330
15961SOL    HW159511   3.789   4.520   7.350
15961SOL    HW259512   3.638   4.528   7.351
15962SOL     OW59513   3.345   0.132  23.444
15962SOL    HW159514   3.392   0.182  23.377
15962SOL    HW259515   3.358   0.183  23.525
15963SOL     OW59516   1.670   2.343   8.503
15963SOL    HW159517   1.734   2.278   8.533
15963SOL    HW259518   1.678   2.415   8.565
15964SOL     OW59519   1.706   4.012  26.445
15964SOL    HW159520   1.791   4.009  26.489
15964SOL    HW259521   1.678   4.103  26.452
15965SOL     OW59522   2.079   1.271   8.610
15965SOL    HW159523   2.144   1.218   8.657
15965SOL    HW259524   2.005   1.277   8.671
15966SOL     OW59525   3.874   0.909  22.177
15966SOL    HW159526   3.897   0.820  22.153
15966SOL    HW259527   3.931   0.931  22.251
15967SOL     OW59528   2.557   0.833   9.998
15967SOL    HW159529   2.503   0.881   9.935
15967SOL    HW259530   2.517   0.851  10.083
15968SOL     OW59531   3.820   3.318   7.417
15968SOL    HW159532   3.914   3.333   7.405
15968SOL    HW259533   3.780   3.345   7.335
15969SOL     OW59534   2.067   2.304  26.464
15969SOL    HW159535   2.100   2.241  26.400
15969SOL    HW259536   2.047   2.252  26.542
15970SOL     OW59537   1.610   3.233  20.728
15970SOL    HW159538   1.610   3.328  20.736
15970SOL    HW259539   1.698   3.206  20.754
15971SOL     OW59540   2.732   2.109  12.190
15971SOL    HW159541   2.677   2.154  12.255
15971SOL    HW259542   2.814   2.092  12.236
15972SOL     OW59543   0.999   4.511  21.725
15972SOL    HW159544   1.077   4.565  21.735
15972SOL    HW259545   1.018   4.454  21.650
15973SOL     OW59546   0.918   4.574   3.490
15973SOL    HW159547   0.987   4.608   3.547
15973SOL    HW259548   0.843   4.631   3.506
15974SOL     OW59549   0.491   3.524   7.436
15974SOL    HW159550   0.561   3.581   7.403
15974SOL    HW259551   0.499   3.444   7.385
15975SOL     OW59552   3.900   1.618   6.696
15975SOL    HW159553   3.875   1.637   6.606
15975SOL    HW259554   3.817   1.596   6.739
15976SOL     OW59555   0.776   0.333  24.566
15976SOL    HW159556   0.739   0.396  24.628
15976SOL    HW259557   0.867   0.360  24.554
15977SOL     OW59558   3.899   0.638  26.011
15977SOL    HW159559   3.977   0.684  26.042
15977SOL    HW259560   3.826   0.695  26.036
15978SOL     OW59561   2.171   2.236   4.115
15978SOL    HW159562   2.167   2.163   4.054
15978SOL    HW259563   2.221   2.303   4.069
15979SOL     OW59564   2.849   1.114  23.197
15979SOL    HW159565   2.793   1.043  23.227
15979SOL    HW259566   2.805   1.194  23.226
15980SOL     OW59567   4.738   4.762   7.093
15980SOL    HW159568   0.018   4.741   7.023
15980SOL    HW259569   4.689   0.055   7.059
15981SOL     OW59570   1.434   2.049  23.375
15981SOL    HW159571   1.445   2.140  23.404
15981SOL    HW259572   1.444   2.054  23.279
15982SOL     OW59573   3.901   4.486   7.580
15982SOL    HW159574   3.954   4.527   7.649
15982SOL    HW259575   3.823   4.541   7.573
15983SOL     OW59576   1.214   3.682  23.557
15983SOL    HW159577   1.167   3.709  23.636
15983SOL    HW259578   1.303   3.715  23.571
15984SOL     OW59579   1.012   1.088  11.234
15984SOL    HW159580   0.980   1.004  11.201
15984SOL    HW259581   0.941   1.121  11.288
15985SOL     OW59582   2.381   3.352  26.413
15985SOL    HW159583   2.391   3.447  26.424
15985SOL    HW259584   2.303   3.330  26.463
15986SOL     OW59585   3.769   0.088   6.649
15986SOL    HW159586   3.838   0.077   6.715
15986SOL    HW259587   3.750   4.781   6.619
15987SOL     OW59588   0.948   4.279  11.359
15987SOL    HW159589   0.883   4.242  11.419
15987SOL    HW259590   1.010   4.325  11.417
15988SOL     OW59591   3.876   4.349  19.844
15988SOL    HW159592   3.916   4.395  19.918
15988SOL    HW259593   3.841   4.419  19.789
15989SOL     OW59594   1.749   0.476  21.516
15989SOL    HW159595   1.786   0.473  21.604
15989SOL    HW259596   1.670   0.422  21.522
15990SOL     OW59597   2.912   4.085  25.974
15990SOL    HW159598   2.841   4.131  25.931
15990SOL    HW259599   2.951   4.030  25.906
15991SOL     OW59600   0.632   3.497  25.519
15991SOL    HW159601   0.599   3.425  25.572
15991SOL    HW259602   0.585   3.489  25.436
15992SOL     OW59603   3.168   2.160   7.899
15992SOL    HW159604   3.086   2.118   7.927
15992SOL    HW259605   3.236   2.100   7.928
15993SOL     OW59606   1.518   3.940   2.985
15993SOL    HW159607   1.440   3.914   2.936
15993SOL    HW259608   1.488   3.946   3.076
15994SOL     OW59609   0.393   4.745   3.280
15994SOL    HW159610   0.480   4.709   3.258
15994SOL    HW259611   0.376   0.025   3.210
15995SOL     OW59612   4.308   0.822   2.497
15995SOL    HW159613   4.226   0.872   2.496
15995SOL    HW259614   4.347   0.842   2.583
15996SOL     OW59615   0.045   4.325  11.368
15996SOL    HW159616   0.046   4.279  11.452
15996SOL    HW259617   4.735   4.327  11.343
15997SOL     OW59618   0.173   1.557   8.709
15997SOL    HW159619   0.259   1.530   8.741
15997SOL    HW259620   0.113   1.535   8.779
15998SOL     OW59621   3.914   0.598   2.855
15998SOL    HW159622   3.834   0.560   2.820
15998SOL    HW259623   3.984   0.559   2.802
15999SOL     OW59624   1.544   4.283   3.209
15999SOL    HW159625   1.611   4.264   3.144
15999SOL    HW259626   1.569   4.368   3.245
16000SOL     OW59627   2.175   0.590   5.031
16000SOL    HW159628   2.210   0.512   4.989
16000SOL    HW259629   2.196   0.579   5.124
16001SOL     OW59630   4.298   0.559  10.760
16001SOL    HW159631   4.370   0.497  10.749
16001SOL    HW259632   4.223   0.515  10.720
16002SOL     OW59633   4.037   3.506  12.447
16002SOL    HW159634   4.129   3.496  12.420
16002SOL    HW259635   4.030   3.458  12.529
16003SOL     OW59636   4.726   0.545   8.459
16003SOL    HW159637   4.701   0.463   8.500
16003SOL    HW259638   0.035   0.533   8.434
16004SOL     OW59639   3.993   1.819   7.656
16004SOL    HW159640   4.069   1.870   7.630
16004SOL    HW259641   4.008   1.799   7.748
16005SOL     OW59642   2.535   4.266  21.193
16005SOL    HW159643   2.527   4.193  21.131
16005SOL    HW259644   2.624   4.256  21.229
16006SOL     OW59645   1.947   3.337   7.624
16006SOL    HW159646   1.853   3.326   7.614
16006SOL    HW259647   1.960   3.431   7.634
16007SOL     OW59648   3.234   1.834   5.411
16007SOL    HW159649   3.233   1.844   5.507
16007SOL    HW259650   3.150   1.871   5.383
16008SOL     OW59651   1.347   0.016   6.287
16008SOL    HW159652   1.385   4.772   6.203
16008SOL    HW259653   1.392   0.097   6.310
16009SOL     OW59654   0.518   3.271   2.435
16009SOL    HW159655   0.453   3.208   2.407
16009SOL    HW259656   0.472   3.355   2.437
16010SOL     OW59657   1.930   3.361  20.702
16010SOL    HW159658   2.002   3.374  20.764
16010SOL    HW259659   1.897   3.273  20.722
16011SOL     OW59660   1.221   1.935  18.017
16011SOL    HW159661   1.245   2.025  18.040
16011SOL    HW259662   1.126   1.931  18.026
16012SOL     OW59663   2.488   1.288  21.396
16012SOL    HW159664   2.442   1.272  21.314
16012SOL    HW259665   2.420   1.281  21.463
16013SOL     OW59666   3.713   1.940  25.546
16013SOL    HW159667   3.764   1.926  25.626
16013SOL    HW259668   3.623   1.951  25.577
16014SOL     OW59669   0.268   3.217  22.831
16014SOL    HW159670   0.199   3.281  22.813
16014SOL    HW259671   0.335   3.235  22.765
16015SOL     OW59672   1.089   2.446  12.690
16015SOL    HW159673   1.140   2.451  12.771
16015SOL    HW259674   1.111   2.360  12.653
16016SOL     OW59675   2.095   3.072  19.586
16016SOL    HW159676   2.041   3.103  19.659
16016SOL    HW259677   2.037   3.074  19.510
16017SOL     OW59678   1.851   4.113   4.675
16017SOL    HW159679   1.942   4.087   4.687
16017SOL    HW259680   1.819   4.127   4.764
16018SOL     OW59681   4.234   4.145   2.720
16018SOL    HW159682   4.303   4.205   2.693
16018SOL    HW259683   4.222   4.162   2.813
16019SOL     OW59684   4.194   2.198   3.991
16019SOL    HW159685   4.227   2.212   4.080
16019SOL    HW259686   4.273   2.196   3.937
16020SOL     OW59687   3.407   2.742  17.352
16020SOL    HW159688   3.435   2.654  17.325
16020SOL    HW259689   3.346   2.769  17.283
16021SOL     OW59690   3.998   4.227  12.295
16021SOL    HW159691   3.923   4.170  12.277
16021SOL    HW259692   4.007   4.226  12.390
16022SOL     OW59693   4.361   0.408  12.349
16022SOL    HW159694   4.450   0.441  12.359
16022SOL    HW259695   4.329   0.398  12.439
16023SOL     OW59696   1.075   1.288  11.042
16023SOL    HW159697   0.983   1.313  11.038
16023SOL    HW259698   1.082   1.230  11.117
16024SOL     OW59699   4.703   2.503  11.088
16024SOL    HW159700   4.731   2.466  11.005
16024SOL    HW259701   4.744   2.449  11.155
16025SOL     OW59702   1.245   2.982  13.725
16025SOL    HW159703   1.230   3.076  13.724
16025SOL    HW259704   1.161   2.944  13.749
16026SOL     OW59705   2.341   0.205  13.749
16026SOL    HW159706   2.419   0.254  13.777
16026SOL    HW259707   2.285   0.203  13.826
16027SOL     OW59708   0.145   3.604  12.975
16027SOL    HW159709   0.076   3.569  13.031
16027SOL    HW259710   0.151   3.542  12.902
16028SOL     OW59711   1.375   0.076  11.042
16028SOL    HW159712   1.352   4.766  11.048
16028SOL    HW259713   1.443   0.089  11.108
16029SOL     OW59714   3.182   4.605  12.597
16029SOL    HW159715   3.226   4.546  12.658
16029SOL    HW259716   3.243   4.678  12.586
16030SOL     OW59717   2.369   0.079  13.181
16030SOL    HW159718   2.421   0.028  13.243
16030SOL    HW259719   2.399   0.169  13.193
16031SOL     OW59720   0.794   1.070  13.119
16031SOL    HW159721   0.835   0.989  13.090
16031SOL    HW259722   0.711   1.043  13.158
16032SOL     OW59723   2.708   4.766  13.562
16032SOL    HW159724   2.639   4.753  13.627
16032SOL    HW259725   2.751   0.065  13.590
16033SOL     OW59726   0.296   2.667  12.151
16033SOL    HW159727   0.385   2.632  12.157
16033SOL    HW259728   0.240   2.598  12.187
16034SOL     OW59729   0.747   0.988  12.725
16034SOL    HW159730   0.791   0.903  12.730
16034SOL    HW259731   0.793   1.035  12.655
16035SOL     OW59732   2.280   0.076  14.000
16035SOL    HW159733   2.239   0.100  14.084
16035SOL    HW259734   2.249   4.770  13.983
16036SOL     OW59735   0.519   3.053  13.796
16036SOL    HW159736   0.477   3.081  13.877
16036SOL    HW259737   0.465   2.980  13.765
16037SOL     OW59738   4.623   3.230  25.708
16037SOL    HW159739   4.667   3.192  25.632
16037SOL    HW259740   4.532   3.241  25.680
16038SOL     OW59741   0.713   0.583  13.285
16038SOL    HW159742   0.807   0.572  13.288
16038SOL    HW259743   0.678   0.524  13.351
16039SOL     OW59744   1.517   2.942  13.820
16039SOL    HW159745   1.435   2.947  13.771
16039SOL    HW259746   1.519   2.853  13.855
16040SOL     OW59747   1.647   2.806  10.879
16040SOL    HW159748   1.674   2.726  10.925
16040SOL    HW259749   1.618   2.775  10.793
16041SOL     OW59750   4.176   0.253  11.838
16041SOL    HW159751   4.183   0.264  11.743
16041SOL    HW259752   4.219   0.330  11.874
16042SOL     OW59753   4.641   1.505  10.814
16042SOL    HW159754   4.573   1.560  10.852
16042SOL    HW259755   4.702   1.490  10.886
16043SOL     OW59756   0.953   1.032  11.979
16043SOL    HW159757   0.924   0.966  12.041
16043SOL    HW259758   0.903   1.111  12.002
16044SOL     OW59759   4.531   0.210  12.864
16044SOL    HW159760   4.575   0.157  12.930
16044SOL    HW259761   4.441   0.217  12.893
16045SOL     OW59762   0.902   2.988  14.071
16045SOL    HW159763   0.864   3.061  14.021
16045SOL    HW259764   0.996   3.001  14.063
16046SOL     OW59765   0.159   4.635  13.135
16046SOL    HW159766   0.235   4.610  13.188
16046SOL    HW259767   0.090   4.654  13.199
16047SOL     OW59768   1.030   1.998  12.788
16047SOL    HW159769   0.957   2.042  12.831
16047SOL    HW259770   1.087   1.971  12.860
16048SOL     OW59771   4.769   0.331  13.742
16048SOL    HW159772   4.675   0.325  13.757
16048SOL    HW259773   0.004   0.424  13.729
16049SOL     OW59774   3.263   0.794  10.990
16049SOL    HW159775   3.321   0.836  11.055
16049SOL    HW259776   3.305   0.811  10.906
16050SOL     OW59777   4.139   3.092   2.611
16050SOL    HW159778   4.217   3.147   2.596
16050SOL    HW259779   4.083   3.110   2.536
16051SOL     OW59780   1.678   4.652  12.547
16051SOL    HW159781   1.611   4.604  12.596
16051SOL    HW259782   1.758   4.640  12.597
16052SOL     OW59783   1.349   1.219  11.608
16052SOL    HW159784   1.412   1.264  11.552
16052SOL    HW259785   1.326   1.283  11.675
16053SOL     OW59786   2.776   4.577  12.039
16053SOL    HW159787   2.750   4.575  12.131
16053SOL    HW259788   2.829   4.656  12.030
16054SOL     OW59789   0.548   1.915  12.981
16054SOL    HW159790   0.609   1.862  12.930
16054SOL    HW259791   0.568   1.893  13.073
16055SOL     OW59792   1.721   1.571  10.860
16055SOL    HW159793   1.626   1.578  10.872
16055SOL    HW259794   1.749   1.507  10.925
16056SOL     OW59795   2.896   4.737  13.952
16056SOL    HW159796   2.985   4.737  13.919
16056SOL    HW259797   2.849   0.017  13.896
16057SOL     OW59798   2.736   4.456  11.397
16057SOL    HW159799   2.676   4.511  11.345
16057SOL    HW259800   2.818   4.458  11.348
16058SOL     OW59801   2.701   4.640  12.536
16058SOL    HW159802   2.629   4.674  12.589
16058SOL    HW259803   2.774   4.631  12.597
16059SOL     OW59804   1.339   1.434  11.770
16059SOL    HW159805   1.281   1.504  11.741
16059SOL    HW259806   1.427   1.469  11.754
16060SOL     OW59807   0.234   0.769  10.570
16060SOL    HW159808   0.295   0.784  10.642
16060SOL    HW259809   0.197   0.855  10.551
16061SOL     OW59810   1.135   0.814  14.076
16061SOL    HW159811   1.041   0.824  14.093
16061SOL    HW259812   1.177   0.880  14.132
16062SOL     OW59813   4.446   1.408  13.544
16062SOL    HW159814   4.392   1.472  13.589
16062SOL    HW259815   4.439   1.329  13.597
16063SOL     OW59816   0.953   0.036  14.597
16063SOL    HW159817   1.016   0.025  14.669
16063SOL    HW259818   0.972   0.124  14.562
16064SOL     OW59819   0.956   1.478  13.867
16064SOL    HW159820   0.999   1.558  13.837
16064SOL    HW259821   0.904   1.506  13.943
16065SOL     OW59822   0.764   4.760  13.459
16065SOL    HW159823   0.836   4.714  13.416
16065SOL    HW259824   0.797   0.067  13.472
16066SOL     OW59825   0.194   2.185  14.914
16066SOL    HW159826   0.196   2.253  14.847
16066SOL    HW259827   0.177   2.104  14.867
16067SOL     OW59828   1.029   0.260  14.282
16067SOL    HW159829   1.116   0.291  14.257
16067SOL    HW259830   1.030   0.260  14.378
16068SOL     OW59831   1.063   1.248  13.724
16068SOL    HW159832   1.024   1.315  13.781
16068SOL    HW259833   1.061   1.288  13.637
16069SOL     OW59834   1.035   4.717  13.722
16069SOL    HW159835   1.029   4.726  13.627
16069SOL    HW259836   0.984   0.008  13.756
16070SOL     OW59837   1.388   0.644  13.266
16070SOL    HW159838   1.429   0.709  13.324
16070SOL    HW259839   1.460   0.589  13.236
16071SOL     OW59840   4.529   1.005  11.210
16071SOL    HW159841   4.605   1.032  11.261
16071SOL    HW259842   4.546   0.913  11.188
16072SOL     OW59843   1.940   0.480  12.679
16072SOL    HW159844   1.895   0.564  12.680
16072SOL    HW259845   2.033   0.503  12.675
16073SOL     OW59846   1.379   1.268  13.672
16073SOL    HW159847   1.315   1.338  13.683
16073SOL    HW259848   1.453   1.295  13.726
16074SOL     OW59849   1.229   0.441  13.327
16074SOL    HW159850   1.290   0.510  13.301
16074SOL    HW259851   1.283   0.376  13.372
16075SOL     OW59852   0.124   1.507  13.292
16075SOL    HW159853   0.046   1.523  13.345
16075SOL    HW259854   0.197   1.532  13.348
16076SOL     OW59855   1.121   0.070  14.821
16076SOL    HW159856   1.198   0.019  14.798
16076SOL    HW259857   1.155   0.159  14.834
16077SOL     OW59858   2.969   0.126  13.593
16077SOL    HW159859   2.987   0.117  13.687
16077SOL    HW259860   2.904   0.196  13.588
16078SOL     OW59861   0.819   0.587  13.647
16078SOL    HW159862   0.887   0.631  13.597
16078SOL    HW259863   0.823   0.628  13.734
16079SOL     OW59864   1.997   0.094  12.881
16079SOL    HW159865   2.039   0.179  12.895
16079SOL    HW259866   2.023   0.042  12.958
16080SOL     OW59867   1.604   3.101  15.536
16080SOL    HW159868   1.606   3.035  15.467
16080SOL    HW259869   1.653   3.061  15.608
16081SOL     OW59870   0.637   1.625  14.418
16081SOL    HW159871   0.598   1.622  14.331
16081SOL    HW259872   0.724   1.587  14.407
16082SOL     OW59873   0.916   0.407  14.085
16082SOL    HW159874   0.942   0.364  14.166
16082SOL    HW259875   0.985   0.387  14.022
16083SOL     OW59876   1.252   0.048  13.268
16083SOL    HW159877   1.276   0.092  13.350
16083SOL    HW259878   1.293   0.101  13.200
16084SOL     OW59879   0.082   2.137  15.256
16084SOL    HW159880   0.175   2.162  15.261
16084SOL    HW259881   0.046   2.162  15.340
16085SOL     OW59882   3.150   4.702  13.251
16085SOL    HW159883   3.209   4.666  13.317
16085SOL    HW259884   3.063   4.702  13.293
16086SOL     OW59885   2.565   2.247  13.313
16086SOL    HW159886   2.594   2.334  13.340
16086SOL    HW259887   2.611   2.231  13.230
16087SOL     OW59888   1.599   0.518  13.185
16087SOL    HW159889   1.676   0.556  13.227
16087SOL    HW259890   1.611   0.423  13.195
16088SOL     OW59891   1.609   3.923  14.583
16088SOL    HW159892   1.678   3.941  14.519
16088SOL    HW259893   1.646   3.948  14.667
16089SOL     OW59894   0.976   1.140  13.326
16089SOL    HW159895   0.912   1.122  13.257
16089SOL    HW259896   0.962   1.071  13.390
16090SOL     OW59897   0.040   0.283  13.340
16090SOL    HW159898   4.745   0.270  13.286
16090SOL    HW259899   0.023   0.365  13.387
16091SOL     OW59900   4.780   4.222  14.864
16091SOL    HW159901   4.701   4.274  14.878
16091SOL    HW259902   4.751   4.151  14.807
16092SOL     OW59903   1.807   4.395  14.467
16092SOL    HW159904   1.794   4.412  14.560
16092SOL    HW259905   1.867   4.321  14.464
16093SOL     OW59906   0.649   2.345  14.295
16093SOL    HW159907   0.727   2.291  14.309
16093SOL    HW259908   0.583   2.308  14.353
16094SOL     OW59909   0.781   0.315  15.642
16094SOL    HW159910   0.868   0.354  15.653
16094SOL    HW259911   0.792   0.224  15.671
16095SOL     OW59912   2.149   1.545  16.029
16095SOL    HW159913   2.089   1.477  15.999
16095SOL    HW259914   2.126   1.622  15.978
16096SOL     OW59915   2.452   0.817  16.827
16096SOL    HW159916   2.468   0.753  16.758
16096SOL    HW259917   2.455   0.902  16.784
16097SOL     OW59918   0.717   1.427  15.761
16097SOL    HW159919   0.703   1.453  15.670
16097SOL    HW259920   0.659   1.352  15.775
16098SOL     OW59921   2.630   0.382  16.611
16098SOL    HW159922   2.709   0.422  16.648
16098SOL    HW259923   2.644   0.384  16.517
16099SOL     OW59924   1.269   0.656  14.812
16099SOL    HW159925   1.233   0.573  14.781
16099SOL    HW259926   1.266   0.713  14.736
16100SOL     OW59927   1.735   1.513  15.632
16100SOL    HW159928   1.827   1.487  15.628
16100SOL    HW259929   1.687   1.431  15.620
16101SOL     OW59930   1.156   0.828  14.985
16101SOL    HW159931   1.069   0.806  14.951
16101SOL    HW259932   1.217   0.789  14.923
16102SOL     OW59933   1.987   1.373  16.219
16102SOL    HW159934   2.001   1.337  16.131
16102SOL    HW259935   1.950   1.460  16.204
16103SOL     OW59936   0.287   1.415  15.797
16103SOL    HW159937   0.360   1.407  15.858
16103SOL    HW259938   0.209   1.405  15.851
16104SOL     OW59939   1.154   1.169  15.181
16104SOL    HW159940   1.115   1.198  15.264
16104SOL    HW259941   1.131   1.077  15.174
16105SOL     OW59942   1.236   0.955  16.595
16105SOL    HW159943   1.263   0.973  16.505
16105SOL    HW259944   1.140   0.962  16.592
16106SOL     OW59945   1.156   1.025  15.485
16106SOL    HW159946   1.121   1.086  15.550
16106SOL    HW259947   1.084   1.011  15.424
16107SOL     OW59948   1.561   2.130  16.694
16107SOL    HW159949   1.597   2.043  16.677
16107SOL    HW259950   1.537   2.163  16.608
16108SOL     OW59951   1.879   1.041  16.003
16108SOL    HW159952   1.958   1.070  15.958
16108SOL    HW259953   1.862   0.953  15.970
16109SOL     OW59954   0.324   0.718  17.338
16109SOL    HW159955   0.303   0.766  17.258
16109SOL    HW259956   0.391   0.771  17.381
16110SOL     OW59957   2.511   0.670  15.810
16110SOL    HW159958   2.589   0.621  15.783
16110SOL    HW259959   2.537   0.715  15.890
16111SOL     OW59960   1.109   3.263  16.832
16111SOL    HW159961   1.169   3.198  16.870
16111SOL    HW259962   1.167   3.325  16.787
16112SOL     OW59963   1.028   0.450  15.671
16112SOL    HW159964   1.043   0.490  15.757
16112SOL    HW259965   1.095   0.488  15.615
16113SOL     OW59966   3.427   0.993  16.097
16113SOL    HW159967   3.353   1.052  16.079
16113SOL    HW259968   3.493   1.018  16.033
16114SOL     OW59969   1.287   0.294  14.828
16114SOL    HW159970   1.268   0.342  14.909
16114SOL    HW259971   1.256   0.352  14.758
16115SOL     OW59972   2.543   2.301  16.758
16115SOL    HW159973   2.596   2.267  16.686
16115SOL    HW259974   2.456   2.314  16.720
16116SOL     OW59975   1.539   1.308  16.295
16116SOL    HW159976   1.560   1.279  16.205
16116SOL    HW259977   1.444   1.298  16.302
16117SOL     OW59978   2.178   0.248  15.097
16117SOL    HW159979   2.237   0.184  15.059
16117SOL    HW259980   2.166   0.313  15.028
16118SOL     OW59981   1.034   1.248  16.691
16118SOL    HW159982   1.073   1.216  16.773
16118SOL    HW259983   1.020   1.170  16.638
16119SOL     OW59984   1.244   1.482  14.702
16119SOL    HW159985   1.318   1.470  14.761
16119SOL    HW259986   1.186   1.543  14.748
16120SOL     OW59987   1.157   1.536  16.319
16120SOL    HW159988   1.185   1.445  16.326
16120SOL    HW259989   1.127   1.546  16.229
16121SOL     OW59990   2.652   2.295  17.012
16121SOL    HW159991   2.597   2.370  17.035
16121SOL    HW259992   2.620   2.268  16.926
16122SOL     OW59993   1.756   1.207  15.376
16122SOL    HW159994   1.707   1.230  15.296
16122SOL    HW259995   1.848   1.219  15.352
16123SOL     OW59996   0.386   2.082  14.645
16123SOL    HW159997   0.294   2.062  14.658
16123SOL    HW259998   0.431   2.045  14.721
16124SOL     OW59999   0.393   0.052  17.139
16124SOL    HW160000   0.466   0.082  17.086
16124SOL    HW260001   0.338   0.003  17.078
16125SOL     OW60002   2.120   0.712  15.470
16125SOL    HW160003   2.179   0.675  15.536
16125SOL    HW260004   2.112   0.643  15.404
16126SOL     OW60005   1.335   1.918  16.643
16126SOL    HW160006   1.287   1.872  16.573
16126SOL    HW260007   1.427   1.896  16.627
16127SOL     OW60008   2.718   0.514  15.756
16127SOL    HW160009   2.810   0.495  15.742
16127SOL    HW260010   2.672   0.434  15.730
16128SOL     OW60011   0.077   0.803  14.633
16128SOL    HW160012   0.124   0.742  14.577
16128SOL    HW260013   4.776   0.759  14.652
16129SOL     OW60014   4.121   1.956  10.450
16129SOL    HW160015   4.140   2.048  10.466
16129SOL    HW260016   4.205   1.918  10.423
16130SOL     OW60017   2.164   1.716  16.415
16130SOL    HW160018   2.187   1.795  16.365
16130SOL    HW260019   2.217   1.647  16.375
16131SOL     OW60020   0.792   0.587  16.966
16131SOL    HW160021   0.855   0.638  16.915
16131SOL    HW260022   0.829   0.499  16.969
16132SOL     OW60023   2.828   3.362  18.195
16132SOL    HW160024   2.876   3.405  18.123
16132SOL    HW260025   2.803   3.277  18.159
16133SOL     OW60026   4.319   4.401  15.858
16133SOL    HW160027   4.269   4.323  15.835
16133SOL    HW260028   4.393   4.401  15.796
16134SOL     OW60029   2.084   1.130  15.791
16134SOL    HW160030   2.177   1.133  15.815
16134SOL    HW260031   2.081   1.073  15.714
16135SOL     OW60032   3.108   2.880   8.337
16135SOL    HW160033   3.180   2.820   8.357
16135SOL    HW260034   3.029   2.830   8.356
16136SOL     OW60035   3.235   3.623  19.016
16136SOL    HW160036   3.316   3.674  19.007
16136SOL    HW260037   3.255   3.539  18.977
16137SOL     OW60038   0.844   0.058  26.291
16137SOL    HW160039   0.818   0.117  26.362
16137SOL    HW260040   0.789   0.082  26.217
16138SOL     OW60041   2.300   0.166  15.353
16138SOL    HW160042   2.258   0.204  15.276
16138SOL    HW260043   2.280   0.227  15.424
16139SOL     OW60044   0.747   2.323  23.139
16139SOL    HW160045   0.785   2.283  23.218
16139SOL    HW260046   0.656   2.339  23.162
16140SOL     OW60047   3.890   4.272  17.385
16140SOL    HW160048   3.920   4.273  17.476
16140SOL    HW260049   3.970   4.258  17.334
16141SOL     OW60050   0.597   3.365  18.183
16141SOL    HW160051   0.650   3.410  18.249
16141SOL    HW260052   0.660   3.310  18.137
16142SOL     OW60053   3.704   0.948  23.542
16142SOL    HW160054   3.680   0.864  23.581
16142SOL    HW260055   3.718   0.929  23.449
16143SOL     OW60056   0.829   2.534  15.775
16143SOL    HW160057   0.829   2.628  15.793
16143SOL    HW260058   0.897   2.499  15.832
16144SOL     OW60059   3.815   3.145  16.008
16144SOL    HW160060   3.851   3.230  16.032
16144SOL    HW260061   3.881   3.107  15.949
16145SOL     OW60062   1.794   0.630  16.187
16145SOL    HW160063   1.842   0.705  16.222
16145SOL    HW260064   1.791   0.567  16.259
16146SOL     OW60065   4.367   1.039   5.937
16146SOL    HW160066   4.354   0.945   5.948
16146SOL    HW260067   4.289   1.078   5.976
16147SOL     OW60068   0.220   4.273  17.011
16147SOL    HW160069   0.181   4.346  17.059
16147SOL    HW260070   0.180   4.278  16.924
16148SOL     OW60071   3.663   4.055  17.378
16148SOL    HW160072   3.674   4.150  17.389
16148SOL    HW260073   3.573   4.038  17.407
16149SOL     OW60074   3.018   3.812  17.472
16149SOL    HW160075   2.965   3.738  17.441
16149SOL    HW260076   3.049   3.854  17.392
16150SOL     OW60077   1.543   0.847  16.473
16150SOL    HW160078   1.548   0.812  16.384
16150SOL    HW260079   1.561   0.941  16.463
16151SOL     OW60080   2.409   1.611  15.926
16151SOL    HW160081   2.459   1.538  15.891
16151SOL    HW260082   2.328   1.571  15.959
16152SOL     OW60083   2.997   2.893  19.725
16152SOL    HW160084   3.066   2.836  19.691
16152SOL    HW260085   2.928   2.834  19.754
16153SOL     OW60086   4.444   0.152  17.773
16153SOL    HW160087   4.378   0.158  17.703
16153SOL    HW260088   4.455   0.243  17.802
16154SOL     OW60089   0.520   1.014  15.617
16154SOL    HW160090   0.493   0.928  15.584
16154SOL    HW260091   0.453   1.074  15.584
16155SOL     OW60092   1.134   3.610   5.827
16155SOL    HW160093   1.120   3.702   5.849
16155SOL    HW260094   1.141   3.608   5.731
16156SOL     OW60095   3.036   4.577  17.954
16156SOL    HW160096   3.080   4.492  17.963
16156SOL    HW260097   3.076   4.617  17.877
16157SOL     OW60098   2.420   3.794   2.368
16157SOL    HW160099   2.498   3.740   2.380
16157SOL    HW260100   2.361   3.739   2.317
16158SOL     OW60101   3.451   1.298   3.665
16158SOL    HW160102   3.425   1.356   3.594
16158SOL    HW260103   3.542   1.276   3.647
16159SOL     OW60104   1.686   4.731  18.217
16159SOL    HW160105   1.630   4.748  18.292
16159SOL    HW260106   1.696   0.033  18.174
16160SOL     OW60107   1.156   4.434  28.432
16160SOL    HW160108   1.179   4.527  28.436
16160SOL    HW260109   1.171   4.402  28.521
16161SOL     OW60110   1.206   2.198  18.081
16161SOL    HW160111   1.190   2.223  17.990
16161SOL    HW260112   1.123   2.215  18.125
16162SOL     OW60113   0.294   0.824  17.057
16162SOL    HW160114   0.237   0.898  17.035
16162SOL    HW260115   0.363   0.826  16.991
16163SOL     OW60116   4.138   0.386  17.750
16163SOL    HW160117   4.161   0.319  17.686
16163SOL    HW260118   4.171   0.468  17.711
16164SOL     OW60119   1.148   1.623  17.450
16164SOL    HW160120   1.182   1.644  17.364
16164SOL    HW260121   1.220   1.579  17.495
16165SOL     OW60122   1.472   1.636  22.816
16165SOL    HW160123   1.425   1.667  22.738
16165SOL    HW260124   1.564   1.637  22.791
16166SOL     OW60125   1.090   2.168  17.029
16166SOL    HW160126   1.019   2.224  16.998
16166SOL    HW260127   1.134   2.140  16.949
16167SOL     OW60128   0.827   1.038  17.943
16167SOL    HW160129   0.808   1.111  17.883
16167SOL    HW260130   0.865   0.971  17.887
16168SOL     OW60131   3.367   2.715  27.949
16168SOL    HW160132   3.332   2.784  28.005
16168SOL    HW260133   3.295   2.652  27.940
16169SOL     OW60134   3.661   1.040  19.355
16169SOL    HW160135   3.659   1.015  19.263
16169SOL    HW260136   3.727   1.110  19.360
16170SOL     OW60137   1.039   2.573  26.496
16170SOL    HW160138   1.115   2.523  26.466
16170SOL    HW260139   0.977   2.506  26.526
16171SOL     OW60140   1.386   2.551  18.290
16171SOL    HW160141   1.331   2.602  18.230
16171SOL    HW260142   1.435   2.492  18.233
16172SOL     OW60143   4.382   4.601   2.420
16172SOL    HW160144   4.310   4.556   2.376
16172SOL    HW260145   4.345   4.631   2.502
16173SOL     OW60146   4.759   1.755  17.454
16173SOL    HW160147   0.070   1.764  17.469
16173SOL    HW260148   4.732   1.837  17.414
16174SOL     OW60149   2.271   1.502  17.554
16174SOL    HW160150   2.335   1.433  17.573
16174SOL    HW260151   2.225   1.471  17.476
16175SOL     OW60152   1.072   3.248  17.358
16175SOL    HW160153   1.111   3.191  17.292
16175SOL    HW260154   1.034   3.320  17.308
16176SOL     OW60155   2.240   3.539  10.185
16176SOL    HW160156   2.320   3.518  10.137
16176SOL    HW260157   2.243   3.634  10.198
16177SOL     OW60158   1.899   4.515  18.121
16177SOL    HW160159   1.949   4.596  18.119
16177SOL    HW260160   1.858   4.514  18.208
16178SOL     OW60161   3.627   4.695  17.367
16178SOL    HW160162   3.691   4.637  17.408
16178SOL    HW260163   3.542   4.655  17.386
16179SOL     OW60164   2.158   1.983  16.304
16179SOL    HW160165   2.063   1.994  16.291
16179SOL    HW260166   2.192   1.966  16.216
16180SOL     OW60167   1.358   2.369  16.597
16180SOL    HW160168   1.383   2.454  16.560
16180SOL    HW260169   1.412   2.306  16.549
16181SOL     OW60170   3.558   0.971   3.242
16181SOL    HW160171   3.537   0.900   3.182
16181SOL    HW260172   3.654   0.972   3.246
16182SOL     OW60173   2.591   4.582  20.005
16182SOL    HW160174   2.560   4.527  19.933
16182SOL    HW260175   2.579   4.672  19.974
16183SOL     OW60176   1.618   1.172  16.047
16183SOL    HW160177   1.692   1.113  16.059
16183SOL    HW260178   1.642   1.225  15.971
16184SOL     OW60179   0.515   0.606   0.810
16184SOL    HW160180   0.543   0.681   0.757
16184SOL    HW260181   0.546   0.529   0.762
16185SOL     OW60182   2.743   2.778   6.293
16185SOL    HW160183   2.711   2.868   6.293
16185SOL    HW260184   2.792   2.770   6.375
16186SOL     OW60185   2.022   0.554   8.561
16186SOL    HW160186   2.105   0.549   8.609
16186SOL    HW260187   1.955   0.542   8.628
16187SOL     OW60188   1.211   0.694  10.314
16187SOL    HW160189   1.239   0.621  10.257
16187SOL    HW260190   1.151   0.745  10.259
16188SOL     OW60191   2.564   0.164   6.761
16188SOL    HW160192   2.616   0.103   6.814
16188SOL    HW260193   2.629   0.220   6.719
16189SOL     OW60194   1.168   4.271  23.644
16189SOL    HW160195   1.091   4.238  23.689
16189SOL    HW260196   1.189   4.204  23.579
16190SOL     OW60197   3.602   1.629  17.093
16190SOL    HW160198   3.658   1.692  17.048
16190SOL    HW260199   3.526   1.619  17.036
16191SOL     OW60200   3.646   4.357  20.249
16191SOL    HW160201   3.617   4.382  20.337
16191SOL    HW260202   3.742   4.361  20.254
16192SOL     OW60203   0.008   0.118   9.502
16192SOL    HW160204   0.043   0.033   9.526
16192SOL    HW260205   0.024   0.125   9.408
16193SOL     OW60206   2.786   3.966  23.170
16193SOL    HW160207   2.861   3.970  23.111
16193SOL    HW260208   2.718   3.922  23.120
16194SOL     OW60209   0.900   0.928   1.557
16194SOL    HW160210   0.951   0.854   1.524
16194SOL    HW260211   0.952   1.005   1.533
16195SOL     OW60212   3.845   2.979   5.124
16195SOL    HW160213   3.754   3.008   5.112
16195SOL    HW260214   3.844   2.886   5.100
16196SOL     OW60215   2.794   2.215   3.648
16196SOL    HW160216   2.793   2.146   3.714
16196SOL    HW260217   2.859   2.187   3.585
16197SOL     OW60218   2.285   2.958   1.479
16197SOL    HW160219   2.255   2.977   1.568
16197SOL    HW260220   2.377   2.986   1.478
16198SOL     OW60221   3.957   2.290  10.754
16198SOL    HW160222   4.013   2.299  10.831
16198SOL    HW260223   3.950   2.195  10.740
16199SOL     OW60224   4.344   4.232  27.926
16199SOL    HW160225   4.344   4.241  27.831
16199SOL    HW260226   4.275   4.167  27.944
16200SOL     OW60227   3.274   0.751  26.310
16200SOL    HW160228   3.243   0.837  26.281
16200SOL    HW260229   3.314   0.768  26.396
16201SOL     OW60230   4.670   3.086   5.326
16201SOL    HW160231   4.626   3.129   5.399
16201SOL    HW260232   4.729   3.023   5.367
16202SOL     OW60233   2.871   0.520  16.709
16202SOL    HW160234   2.876   0.431  16.675
16202SOL    HW260235   2.850   0.574  16.633
16203SOL     OW60236   4.422   0.459   6.952
16203SOL    HW160237   4.373   0.539   6.970
16203SOL    HW260238   4.480   0.449   7.028
16204SOL     OW60239   0.946   2.773   6.487
16204SOL    HW160240   0.858   2.798   6.515
16204SOL    HW260241   0.947   2.787   6.393
16205SOL     OW60242   2.290   4.005  27.598
16205SOL    HW160243   2.196   3.990  27.589
16205SOL    HW260244   2.303   4.097  27.574
16206SOL     OW60245   0.619   0.205  26.019
16206SOL    HW160246   0.541   0.216  25.965
16206SOL    HW260247   0.683   0.163  25.961
16207SOL     OW60248   3.060   0.700  19.502
16207SOL    HW160249   2.985   0.669  19.451
16207SOL    HW260250   3.022   0.731  19.585
16208SOL     OW60251   0.733   4.702   6.209
16208SOL    HW160252   0.669   4.773   6.212
16208SOL    HW260253   0.698   4.640   6.146
16209SOL     OW60254   1.417   0.385   7.213
16209SOL    HW160255   1.468   0.344   7.142
16209SOL    HW260256   1.389   0.312   7.268
16210SOL     OW60257   3.392   2.798   3.481
16210SOL    HW160258   3.384   2.886   3.518
16210SOL    HW260259   3.310   2.784   3.434
16211SOL     OW60260   0.976   0.779   6.351
16211SOL    HW160261   0.927   0.850   6.309
16211SOL    HW260262   0.965   0.704   6.292
16212SOL     OW60263   0.596   0.025   6.733
16212SOL    HW160264   0.588   0.064   6.646
16212SOL    HW260265   0.690   0.017   6.747
16213SOL     OW60266   2.954   2.567   5.903
16213SOL    HW160267   3.001   2.564   5.819
16213SOL    HW260268   3.020   2.595   5.966
16214SOL     OW60269   4.645   3.010  24.574
16214SOL    HW160270   4.636   2.929  24.523
16214SOL    HW260271   4.737   3.034  24.565
16215SOL     OW60272   2.375   1.756   0.104
16215SOL    HW160273   2.466   1.781   0.118
16215SOL    HW260274   2.359   1.686   0.167
16216SOL     OW60275   3.899   1.821  18.083
16216SOL    HW160276   3.890   1.738  18.130
16216SOL    HW260277   3.879   1.798  17.992
16217SOL     OW60278   1.395   1.826  27.777
16217SOL    HW160279   1.327   1.870  27.828
16217SOL    HW260280   1.350   1.755  27.733
16218SOL     OW60281   3.541   0.288   6.382
16218SOL    HW160282   3.588   0.205   6.383
16218SOL    HW260283   3.519   0.304   6.474
16219SOL     OW60284   1.731   0.253  21.967
16219SOL    HW160285   1.809   0.257  22.023
16219SOL    HW260286   1.658   0.274  22.025
16220SOL     OW60287   0.730   2.195  19.808
16220SOL    HW160288   0.680   2.211  19.728
16220SOL    HW260289   0.758   2.103  19.801
16221SOL     OW60290   3.862   1.970   2.117
16221SOL    HW160291   3.771   2.000   2.125
16221SOL    HW260292   3.861   1.909   2.043
16222SOL     OW60293   1.003   1.094  19.873
16222SOL    HW160294   0.974   1.127  19.958
16222SOL    HW260295   1.025   1.173  19.823
16223SOL     OW60296   1.141   3.077  21.919
16223SOL    HW160297   1.097   3.115  21.843
16223SOL    HW260298   1.232   3.067  21.891
16224SOL     OW60299   1.563   1.513  27.959
16224SOL    HW160300   1.596   1.448  28.021
16224SOL    HW260301   1.485   1.549  28.001
16225SOL     OW60302   0.421   0.057  17.485
16225SOL    HW160303   0.426   4.776  17.556
16225SOL    HW260304   0.506   0.101  17.487
16226SOL     OW60305   3.128   3.308   3.873
16226SOL    HW160306   3.093   3.267   3.794
16226SOL    HW260307   3.200   3.252   3.899
16227SOL     OW60308   1.405   1.205  16.684
16227SOL    HW160309   1.356   1.212  16.766
16227SOL    HW260310   1.368   1.129  16.639
16228SOL     OW60311   0.093   1.298  26.187
16228SOL    HW160312   0.023   1.282  26.249
16228SOL    HW260313   0.173   1.289  26.239
16229SOL     OW60314   2.836   3.710   1.290
16229SOL    HW160315   2.754   3.676   1.326
16229SOL    HW260316   2.827   3.698   1.195
16230SOL     OW60317   4.263   0.182  10.475
16230SOL    HW160318   4.283   0.187  10.381
16230SOL    HW260319   4.197   0.113  10.482
16231SOL     OW60320   2.777   2.905  18.062
16231SOL    HW160321   2.749   2.817  18.037
16231SOL    HW260322   2.852   2.924  18.006
16232SOL     OW60323   2.901   1.790  27.727
16232SOL    HW160324   2.812   1.778  27.693
16232SOL    HW260325   2.894   1.866  27.785
16233SOL     OW60326   0.715   1.705  21.852
16233SOL    HW160327   0.808   1.722  21.837
16233SOL    HW260328   0.673   1.726  21.768
16234SOL     OW60329   0.253   0.198   5.447
16234SOL    HW160330   0.299   0.182   5.530
16234SOL    HW260331   0.242   0.111   5.409
16235SOL     OW60332   4.357   0.993  21.449
16235SOL    HW160333   4.423   0.927  21.428
16235SOL    HW260334   4.407   1.071  21.471
16236SOL     OW60335   0.421   3.866   0.228
16236SOL    HW160336   0.437   3.921   0.304
16236SOL    HW260337   0.409   3.927   0.156
16237SOL     OW60338   2.863   1.072  19.677
16237SOL    HW160339   2.776   1.062  19.638
16237SOL    HW260340   2.911   0.994  19.648
16238SOL     OW60341   4.654   1.556  22.888
16238SOL    HW160342   4.670   1.645  22.858
16238SOL    HW260343   4.559   1.545  22.881
16239SOL     OW60344   3.740   2.344   3.954
16239SOL    HW160345   3.748   2.300   3.869
16239SOL    HW260346   3.658   2.310   3.990
16240SOL     OW60347   4.081   4.282   5.854
16240SOL    HW160348   3.998   4.241   5.833
16240SOL    HW260349   4.143   4.245   5.790
16241SOL     OW60350   0.075   1.870   5.995
16241SOL    HW160351   0.123   1.855   5.914
16241SOL    HW260352   0.014   1.941   5.975
16242SOL     OW60353   2.968   1.413  24.779
16242SOL    HW160354   2.881   1.383  24.805
16242SOL    HW260355   3.004   1.341  24.726
16243SOL     OW60356   3.262   4.551  27.838
16243SOL    HW160357   3.282   4.585  27.925
16243SOL    HW260358   3.180   4.594  27.814
16244SOL     OW60359   0.632   3.301  21.751
16244SOL    HW160360   0.586   3.220  21.773
16244SOL    HW260361   0.713   3.272  21.709
16245SOL     OW60362   3.160   1.575  24.673
16245SOL    HW160363   3.178   1.557  24.581
16245SOL    HW260364   3.076   1.533  24.690
16246SOL     OW60365   4.049   2.476   9.434
16246SOL    HW160366   4.090   2.394   9.461
16246SOL    HW260367   4.013   2.513   9.515
16247SOL     OW60368   1.616   1.614  24.852
16247SOL    HW160369   1.607   1.588  24.760
16247SOL    HW260370   1.642   1.706  24.849
16248SOL     OW60371   1.534   2.264   5.990
16248SOL    HW160372   1.458   2.208   6.008
16248SOL    HW260373   1.584   2.263   6.071
16249SOL     OW60374   1.204   2.793   6.336
16249SOL    HW160375   1.245   2.852   6.273
16249SOL    HW260376   1.140   2.744   6.284
16250SOL     OW60377   2.418   1.255   7.244
16250SOL    HW160378   2.484   1.318   7.218
16250SOL    HW260379   2.345   1.308   7.276
16251SOL     OW60380   2.075   0.341   7.968
16251SOL    HW160381   2.113   0.358   7.882
16251SOL    HW260382   2.150   0.340   8.028
16252SOL     OW60383   0.367   2.825  22.996
16252SOL    HW160384   0.419   2.795  22.921
16252SOL    HW260385   0.284   2.853  22.958
16253SOL     OW60386   4.125   4.729  22.017
16253SOL    HW160387   4.187   4.664  21.983
16253SOL    HW260388   4.042   4.682  22.023
16254SOL     OW60389   0.207   2.457   1.020
16254SOL    HW160390   0.126   2.478   1.066
16254SOL    HW260391   0.198   2.502   0.936
16255SOL     OW60392   3.459   1.180  21.727
16255SOL    HW160393   3.424   1.266  21.702
16255SOL    HW260394   3.386   1.120  21.711
16256SOL     OW60395   3.268   4.727  20.697
16256SOL    HW160396   3.202   0.014  20.698
16256SOL    HW260397   3.347   4.769  20.729
16257SOL     OW60398   1.349   0.891  22.312
16257SOL    HW160399   1.340   0.796  22.308
16257SOL    HW260400   1.411   0.913  22.242
16258SOL     OW60401   0.744   1.976  20.187
16258SOL    HW160402   0.723   2.024  20.267
16258SOL    HW260403   0.681   1.904  20.185
16259SOL     OW60404   0.036   2.388  20.729
16259SOL    HW160405   0.003   2.348  20.649
16259SOL    HW260406   4.761   2.354  20.798
16260SOL     OW60407   3.927   0.099   0.679
16260SOL    HW160408   3.858   0.164   0.668
16260SOL    HW260409   4.002   0.148   0.713
16261SOL     OW60410   0.358   1.324  24.211
16261SOL    HW160411   0.314   1.280  24.283
16261SOL    HW260412   0.423   1.380  24.253
16262SOL     OW60413   0.050   1.188   0.921
16262SOL    HW160414   0.003   1.108   0.946
16262SOL    HW260415   4.766   1.242   0.878
16263SOL     OW60416   1.443   1.937  20.464
16263SOL    HW160417   1.479   2.010  20.413
16263SOL    HW260418   1.363   1.972  20.503
16264SOL     OW60419   1.257   3.199  25.988
16264SOL    HW160420   1.214   3.142  26.053
16264SOL    HW260421   1.193   3.268  25.970
16265SOL     OW60422   0.988   3.488   7.726
16265SOL    HW160423   1.019   3.407   7.768
16265SOL    HW260424   0.990   3.468   7.632
16266SOL     OW60425   3.111   4.512  21.083
16266SOL    HW160426   3.076   4.575  21.020
16266SOL    HW260427   3.181   4.467  21.036
16267SOL     OW60428   1.671   2.104   5.358
16267SOL    HW160429   1.619   2.143   5.428
16267SOL    HW260430   1.757   2.146   5.365
16268SOL     OW60431   3.066   2.517  28.155
16268SOL    HW160432   2.994   2.504  28.094
16268SOL    HW260433   3.024   2.526  28.241
16269SOL     OW60434   0.811   1.687   5.775
16269SOL    HW160435   0.807   1.616   5.839
16269SOL    HW260436   0.791   1.646   5.691
16270SOL     OW60437   1.449   4.224  19.368
16270SOL    HW160438   1.491   4.175  19.297
16270SOL    HW260439   1.356   4.220  19.348
16271SOL     OW60440   1.365   4.341  26.022
16271SOL    HW160441   1.444   4.367  25.974
16271SOL    HW260442   1.395   4.330  26.112
16272SOL     OW60443   3.527   0.597   5.869
16272SOL    HW160444   3.507   0.652   5.945
16272SOL    HW260445   3.445   0.553   5.848
16273SOL     OW60446   3.350   3.126   1.007
16273SOL    HW160447   3.366   3.206   0.956
16273SOL    HW260448   3.305   3.068   0.946
16274SOL     OW60449   2.882   2.617   0.177
16274SOL    HW160450   2.911   2.630   0.267
16274SOL    HW260451   2.912   2.529   0.154
16275SOL     OW60452   0.093   1.762   8.507
16275SOL    HW160453   0.101   1.693   8.573
16275SOL    HW260454   0.183   1.782   8.482
16276SOL     OW60455   0.270   4.680  28.014
16276SOL    HW160456   0.221   4.763  28.012
16276SOL    HW260457   0.209   4.617  28.051
16277SOL     OW60458   1.051   3.933   9.133
16277SOL    HW160459   0.957   3.925   9.118
16277SOL    HW260460   1.085   3.845   9.116
16278SOL     OW60461   3.433   1.956  25.537
16278SOL    HW160462   3.472   1.937  25.452
16278SOL    HW260463   3.358   1.897  25.543
16279SOL     OW60464   0.806   0.523   3.352
16279SOL    HW160465   0.793   0.429   3.341
16279SOL    HW260466   0.771   0.562   3.271
16280SOL     OW60467   4.353   0.212   7.978
16280SOL    HW160468   4.289   0.283   7.981
16280SOL    HW260469   4.389   0.217   7.890
16281SOL     OW60470   1.308   1.105  26.122
16281SOL    HW160471   1.305   1.129  26.029
16281SOL    HW260472   1.216   1.094  26.146
16282SOL     OW60473   3.187   2.697  17.126
16282SOL    HW160474   3.155   2.618  17.167
16282SOL    HW260475   3.245   2.666  17.056
16283SOL     OW60476   3.046   3.161   5.752
16283SOL    HW160477   2.980   3.100   5.786
16283SOL    HW260478   3.005   3.201   5.676
16284SOL     OW60479   2.747   3.674  23.589
16284SOL    HW160480   2.799   3.746  23.553
16284SOL    HW260481   2.805   3.598  23.586
16285SOL     OW60482   0.978   2.926   7.094
16285SOL    HW160483   0.970   2.966   7.180
16285SOL    HW260484   0.895   2.944   7.051
16286SOL     OW60485   2.123   1.991   8.815
16286SOL    HW160486   2.174   1.931   8.870
16286SOL    HW260487   2.186   2.057   8.787
16287SOL     OW60488   2.504   2.501  27.514
16287SOL    HW160489   2.585   2.523  27.561
16287SOL    HW260490   2.485   2.411  27.540
16288SOL     OW60491   1.999   2.941   3.028
16288SOL    HW160492   1.954   2.865   3.064
16288SOL    HW260493   2.064   2.904   2.968
16289SOL     OW60494   2.714   3.300   4.655
16289SOL    HW160495   2.649   3.310   4.585
16289SOL    HW260496   2.686   3.222   4.703
16290SOL     OW60497   1.347   0.561   4.911
16290SOL    HW160498   1.255   0.582   4.896
16290SOL    HW260499   1.373   0.509   4.835
16291SOL     OW60500   2.584   1.574   4.008
16291SOL    HW160501   2.559   1.656   3.966
16291SOL    HW260502   2.559   1.585   4.100
16292SOL     OW60503   3.674   0.768   4.757
16292SOL    HW160504   3.613   0.840   4.738
16292SOL    HW260505   3.649   0.739   4.845
16293SOL     OW60506   0.359   2.087   5.952
16293SOL    HW160507   0.381   1.997   5.974
16293SOL    HW260508   0.374   2.093   5.858
16294SOL     OW60509   2.032   2.086   2.961
16294SOL    HW160510   2.099   2.118   2.901
16294SOL    HW260511   1.955   2.139   2.942
16295SOL     OW60512   2.910   3.179  19.395
16295SOL    HW160513   2.942   3.094  19.365
16295SOL    HW260514   2.981   3.214  19.450
16296SOL     OW60515   2.291   1.606   4.490
16296SOL    HW160516   2.306   1.699   4.504
16296SOL    HW260517   2.205   1.589   4.530
16297SOL     OW60518   0.044   1.279  17.942
16297SOL    HW160519   0.065   1.217  17.873
16297SOL    HW260520   4.760   1.235  17.995
16298SOL     OW60521   4.283   1.385   4.176
16298SOL    HW160522   4.205   1.384   4.231
16298SOL    HW260523   4.264   1.325   4.104
16299SOL     OW60524   2.223   2.409   9.069
16299SOL    HW160525   2.260   2.329   9.107
16299SOL    HW260526   2.130   2.405   9.091
16300SOL     OW60527   3.037   2.968  22.582
16300SOL    HW160528   2.956   3.014  22.604
16300SOL    HW260529   3.107   3.028  22.606
16301SOL     OW60530   1.626   3.598  22.144
16301SOL    HW160531   1.602   3.674  22.090
16301SOL    HW260532   1.598   3.522  22.093
16302SOL     OW60533   2.535   4.111   7.423
16302SOL    HW160534   2.470   4.114   7.493
16302SOL    HW260535   2.618   4.129   7.466
16303SOL     OW60536   2.395   3.878  24.925
16303SOL    HW160537   2.437   3.920  24.849
16303SOL    HW260538   2.417   3.935  24.999
16304SOL     OW60539   4.094   1.805  25.430
16304SOL    HW160540   4.171   1.855  25.459
16304SOL    HW260541   4.038   1.870  25.388
16305SOL     OW60542   0.060   0.969   3.392
16305SOL    HW160543   0.143   1.001   3.356
16305SOL    HW260544   0.039   0.892   3.340
16306SOL     OW60545   3.219   0.927  20.079
16306SOL    HW160546   3.126   0.944  20.063
16306SOL    HW260547   3.242   0.989  20.149
16307SOL     OW60548   0.494   2.346   0.918
16307SOL    HW160549   0.505   2.264   0.869
16307SOL    HW260550   0.581   2.387   0.916
16308SOL     OW60551   0.557   1.569  22.004
16308SOL    HW160552   0.609   1.602  21.930
16308SOL    HW260553   0.601   1.487  22.030
16309SOL     OW60554   2.744   0.709  21.992
16309SOL    HW160555   2.698   0.765  21.929
16309SOL    HW260556   2.688   0.708  22.069
16310SOL     OW60557   2.519   4.018   2.760
16310SOL    HW160558   2.601   3.969   2.760
16310SOL    HW260559   2.545   4.108   2.740
16311SOL     OW60560   1.846   2.966   8.322
16311SOL    HW160561   1.851   2.908   8.398
16311SOL    HW260562   1.934   2.967   8.286
16312SOL     OW60563   2.571   1.102  24.467
16312SOL    HW160564   2.545   1.191  24.492
16312SOL    HW260565   2.666   1.101  24.477
16313SOL     OW60566   3.623   2.808   1.924
16313SOL    HW160567   3.645   2.844   2.010
16313SOL    HW260568   3.527   2.814   1.920
16314SOL     OW60569   2.439   0.309  26.172
16314SOL    HW160570   2.465   0.219  26.191
16314SOL    HW260571   2.433   0.313  26.077
16315SOL     OW60572   3.904   3.396  17.372
16315SOL    HW160573   3.995   3.389  17.401
16315SOL    HW260574   3.900   3.480  17.326
16316SOL     OW60575   1.037   2.395   9.021
16316SOL    HW160576   1.021   2.391   8.927
16316SOL    HW260577   1.097   2.323   9.039
16317SOL     OW60578   0.719   2.321  20.849
16317SOL    HW160579   0.699   2.415  20.853
16317SOL    HW260580   0.774   2.312  20.771
16318SOL     OW60581   0.129   1.437  10.224
16318SOL    HW160582   0.224   1.433  10.219
16318SOL    HW260583   0.100   1.451  10.134
16319SOL     OW60584   2.715   1.749   7.809
16319SOL    HW160585   2.802   1.719   7.783
16319SOL    HW260586   2.675   1.672   7.851
16320SOL     OW60587   1.025   1.472   3.060
16320SOL    HW160588   1.063   1.393   3.021
16320SOL    HW260589   1.098   1.534   3.063
16321SOL     OW60590   1.222   1.136  24.103
16321SOL    HW160591   1.207   1.229  24.087
16321SOL    HW260592   1.186   1.093  24.025
16322SOL     OW60593   2.272   1.129  21.823
16322SOL    HW160594   2.211   1.148  21.894
16322SOL    HW260595   2.358   1.143  21.861
16323SOL     OW60596   3.622   2.943   7.085
16323SOL    HW160597   3.569   2.867   7.109
16323SOL    HW260598   3.697   2.907   7.038
16324SOL     OW60599   3.830   1.477  28.312
16324SOL    HW160600   3.905   1.533  28.293
16324SOL    HW260601   3.773   1.531  28.366
16325SOL     OW60602   2.893   3.308   0.658
16325SOL    HW160603   2.849   3.251   0.595
16325SOL    HW260604   2.827   3.326   0.725
16326SOL     OW60605   1.850   4.095  18.098
16326SOL    HW160606   1.893   4.141  18.025
16326SOL    HW260607   1.820   4.013  18.059
16327SOL     OW60608   1.077   0.346   5.910
16327SOL    HW160609   1.005   0.309   5.960
16327SOL    HW260610   1.129   0.395   5.975
16328SOL     OW60611   2.286   4.693   6.915
16328SOL    HW160612   2.372   4.655   6.897
16328SOL    HW260613   2.229   4.657   6.846
16329SOL     OW60614   2.085   0.203  17.769
16329SOL    HW160615   2.037   0.192  17.687
16329SOL    HW260616   2.070   0.122  17.817
16330SOL     OW60617   0.715   0.725   3.117
16330SOL    HW160618   0.699   0.740   3.210
16330SOL    HW260619   0.673   0.799   3.073
16331SOL     OW60620   0.072   0.037   6.313
16331SOL    HW160621   4.767   0.070   6.293
16331SOL    HW260622   0.108   0.101   6.374
16332SOL     OW60623   3.346   3.014  23.921
16332SOL    HW160624   3.368   2.949  23.988
16332SOL    HW260625   3.295   3.080  23.968
16333SOL     OW60626   3.235   0.482   8.175
16333SOL    HW160627   3.206   0.515   8.260
16333SOL    HW260628   3.303   0.543   8.147
16334SOL     OW60629   2.244   1.978  27.621
16334SOL    HW160630   2.291   1.972  27.704
16334SOL    HW260631   2.175   2.042  27.636
16335SOL     OW60632   3.344   2.380  20.279
16335SOL    HW160633   3.392   2.297  20.269
16335SOL    HW260634   3.382   2.437  20.212
16336SOL     OW60635   2.492   2.538  21.401
16336SOL    HW160636   2.443   2.486  21.464
16336SOL    HW260637   2.431   2.606  21.373
16337SOL     OW60638   1.798   3.061   4.521
16337SOL    HW160639   1.849   2.993   4.565
16337SOL    HW260640   1.707   3.033   4.528
16338SOL     OW60641   1.231   0.880  21.592
16338SOL    HW160642   1.284   0.800  21.598
16338SOL    HW260643   1.187   0.874  21.507
16339SOL     OW60644   2.334   1.007   3.712
16339SOL    HW160645   2.307   0.972   3.796
16339SOL    HW260646   2.269   1.075   3.692
16340SOL     OW60647   3.399   4.201  24.766
16340SOL    HW160648   3.440   4.203  24.679
16340SOL    HW260649   3.426   4.284  24.806
16341SOL     OW60650   0.069   3.827  17.295
16341SOL    HW160651   0.097   3.907  17.252
16341SOL    HW260652   0.045   3.768  17.224
16342SOL     OW60653   1.935   0.660  11.107
16342SOL    HW160654   1.911   0.665  11.200
16342SOL    HW260655   2.027   0.686  11.105
16343SOL     OW60656   0.273   2.950  21.966
16343SOL    HW160657   0.364   2.947  21.937
16343SOL    HW260658   0.246   3.041  21.950
16344SOL     OW60659   4.211   4.481   4.078
16344SOL    HW160660   4.163   4.564   4.074
16344SOL    HW260661   4.143   4.415   4.094
16345SOL     OW60662   1.565   3.758   3.262
16345SOL    HW160663   1.558   3.713   3.347
16345SOL    HW260664   1.543   3.849   3.281
16346SOL     OW60665   3.296   0.729  20.624
16346SOL    HW160666   3.204   0.721  20.599
16346SOL    HW260667   3.301   0.686  20.709
16347SOL     OW60668   4.739   3.375   0.818
16347SOL    HW160669   4.781   3.338   0.896
16347SOL    HW260670   0.028   3.385   0.755
16348SOL     OW60671   1.023   1.202  17.567
16348SOL    HW160672   0.935   1.205  17.606
16348SOL    HW260673   1.008   1.208  17.473
16349SOL     OW60674   0.828   4.058   4.556
16349SOL    HW160675   0.827   4.075   4.651
16349SOL    HW260676   0.789   4.136   4.518
16350SOL     OW60677   1.267   4.340   3.145
16350SOL    HW160678   1.358   4.310   3.149
16350SOL    HW260679   1.269   4.427   3.187
16351SOL     OW60680   0.698   2.433  27.381
16351SOL    HW160681   0.757   2.437  27.456
16351SOL    HW260682   0.650   2.516  27.384
16352SOL     OW60683   2.574   1.981  27.496
16352SOL    HW160684   2.549   1.908  27.440
16352SOL    HW260685   2.669   1.987  27.487
16353SOL     OW60686   1.762   4.719  26.679
16353SOL    HW160687   1.671   4.732  26.651
16353SOL    HW260688   1.793   4.647  26.623
16354SOL     OW60689   4.618   0.958   2.720
16354SOL    HW160690   4.545   0.933   2.778
16354SOL    HW260691   4.585   1.034   2.673
16355SOL     OW60692   1.025   4.472   9.482
16355SOL    HW160693   0.997   4.448   9.393
16355SOL    HW260694   1.102   4.418   9.498
16356SOL     OW60695   3.927   4.147   5.516
16356SOL    HW160696   3.929   4.090   5.593
16356SOL    HW260697   3.871   4.101   5.454
16357SOL     OW60698   1.748   1.284   4.633
16357SOL    HW160699   1.736   1.284   4.728
16357SOL    HW260700   1.755   1.377   4.609
16358SOL     OW60701   2.834   2.064  24.813
16358SOL    HW160702   2.858   1.986  24.764
16358SOL    HW260703   2.886   2.059  24.894
16359SOL     OW60704   3.563   1.372  19.302
16359SOL    HW160705   3.617   1.302  19.337
16359SOL    HW260706   3.499   1.328  19.245
16360SOL     OW60707   0.877   4.268   1.301
16360SOL    HW160708   0.802   4.328   1.291
16360SOL    HW260709   0.853   4.211   1.374
16361SOL     OW60710   1.835   1.715  20.544
16361SOL    HW160711   1.828   1.726  20.450
16361SOL    HW260712   1.899   1.644  20.556
16362SOL     OW60713   0.066   3.226   1.610
16362SOL    HW160714   0.054   3.133   1.591
16362SOL    HW260715   0.103   3.227   1.698
16363SOL     OW60716   0.920   3.187  23.793
16363SOL    HW160717   0.956   3.273  23.772
16363SOL    HW260718   0.828   3.202  23.811
16364SOL     OW60719   3.907   2.955  22.703
16364SOL    HW160720   3.976   2.968  22.768
16364SOL    HW260721   3.869   3.042  22.691
16365SOL     OW60722   4.457   3.161  16.875
16365SOL    HW160723   4.551   3.177  16.867
16365SOL    HW260724   4.446   3.069  16.851
16366SOL     OW60725   1.400   2.716   7.684
16366SOL    HW160726   1.491   2.688   7.673
16366SOL    HW260727   1.350   2.635   7.690
16367SOL     OW60728   2.816   2.378  19.317
16367SOL    HW160729   2.798   2.450  19.256
16367SOL    HW260730   2.730   2.340  19.335
16368SOL     OW60731   1.062   3.668  23.335
16368SOL    HW160732   1.126   3.632  23.274
16368SOL    HW260733   1.111   3.685  23.415
16369SOL     OW60734   4.544   2.886  26.341
16369SOL    HW160735   4.526   2.857  26.431
16369SOL    HW260736   4.468   2.940  26.319
16370SOL     OW60737   0.262   3.757   4.707
16370SOL    HW160738   0.234   3.840   4.745
16370SOL    HW260739   0.269   3.774   4.613
16371SOL     OW60740   2.353   4.116   1.406
16371SOL    HW160741   2.346   4.127   1.501
16371SOL    HW260742   2.411   4.041   1.394
16372SOL     OW60743   3.748   2.989  21.320
16372SOL    HW160744   3.706   3.014  21.238
16372SOL    HW260745   3.831   2.949  21.294
16373SOL     OW60746   4.644   2.415   0.057
16373SOL    HW160747   4.702   2.343   0.030
16373SOL    HW260748   4.628   2.465  28.508
16374SOL     OW60749   1.912   2.862   1.021
16374SOL    HW160750   1.887   2.848   1.113
16374SOL    HW260751   1.999   2.902   1.026
16375SOL     OW60752   2.920   0.598   3.506
16375SOL    HW160753   2.903   0.509   3.536
16375SOL    HW260754   2.835   0.629   3.474
16376SOL     OW60755   0.823   3.314   0.329
16376SOL    HW160756   0.812   3.275   0.242
16376SOL    HW260757   0.737   3.305   0.370
16377SOL     OW60758   4.245   3.977  27.997
16377SOL    HW160759   4.297   4.020  28.065
16377SOL    HW260760   4.183   3.922  28.045
16378SOL     OW60761   1.236   4.215   7.378
16378SOL    HW160762   1.281   4.158   7.440
16378SOL    HW260763   1.147   4.179   7.373
16379SOL     OW60764   2.288   3.245   4.339
16379SOL    HW160765   2.323   3.203   4.260
16379SOL    HW260766   2.195   3.224   4.337
16380SOL     OW60767   0.809   1.610  19.239
16380SOL    HW160768   0.897   1.618  19.203
16380SOL    HW260769   0.763   1.550  19.180
16381SOL     OW60770   4.536   0.785   8.784
16381SOL    HW160771   4.628   0.783   8.755
16381SOL    HW260772   4.515   0.878   8.791
16382SOL     OW60773   2.611   1.921  18.363
16382SOL    HW160774   2.633   1.848  18.305
16382SOL    HW260775   2.602   1.880  18.450
16383SOL     OW60776   1.825   2.519  20.347
16383SOL    HW160777   1.749   2.479  20.304
16383SOL    HW260778   1.847   2.593  20.290
16384SOL     OW60779   4.412   1.891   1.404
16384SOL    HW160780   4.317   1.901   1.395
16384SOL    HW260781   4.428   1.799   1.382
16385SOL     OW60782   2.188   1.389   8.384
16385SOL    HW160783   2.187   1.482   8.407
16385SOL    HW260784   2.153   1.345   8.461
16386SOL     OW60785   1.832   0.034  24.686
16386SOL    HW160786   1.922   0.051  24.656
16386SOL    HW260787   1.801   4.745  24.630
16387SOL     OW60788   2.818   0.774  27.549
16387SOL    HW160789   2.762   0.829  27.605
16387SOL    HW260790   2.875   0.836  27.504
16388SOL     OW60791   0.926   0.063   5.583
16388SOL    HW160792   0.884   0.054   5.669
16388SOL    HW260793   0.964   0.150   5.585
16389SOL     OW60794   4.376   1.832  18.611
16389SOL    HW160795   4.320   1.809  18.685
16389SOL    HW260796   4.324   1.809  18.534
16390SOL     OW60797   0.717   0.379   1.032
16390SOL    HW160798   0.662   0.379   1.110
16390SOL    HW260799   0.796   0.428   1.058
16391SOL     OW60800   2.969   1.179  20.929
16391SOL    HW160801   2.879   1.197  20.902
16391SOL    HW260802   3.000   1.261  20.965
16392SOL     OW60803   2.364   1.080  20.016
16392SOL    HW160804   2.434   1.058  19.955
16392SOL    HW260805   2.379   1.024  20.091
16393SOL     OW60806   0.916   3.667  18.811
16393SOL    HW160807   1.005   3.650  18.783
16393SOL    HW260808   0.923   3.738  18.875
16394SOL     OW60809   4.578   1.320  25.255
16394SOL    HW160810   4.517   1.365  25.197
16394SOL    HW260811   4.527   1.250  25.295
16395SOL     OW60812   3.174   0.042   5.143
16395SOL    HW160813   3.264   0.074   5.146
16395SOL    HW260814   3.144   0.044   5.234
16396SOL     OW60815   4.185   1.455   6.783
16396SOL    HW160816   4.108   1.459   6.840
16396SOL    HW260817   4.255   1.495   6.835
16397SOL     OW60818   2.118   2.785  21.976
16397SOL    HW160819   2.167   2.733  21.912
16397SOL    HW260820   2.074   2.852  21.925
16398SOL     OW60821   0.634   2.569  21.608
16398SOL    HW160822   0.602   2.643  21.557
16398SOL    HW260823   0.556   2.515  21.622
16399SOL     OW60824   3.077   4.202  28.413
16399SOL    HW160825   2.984   4.191  28.434
16399SOL    HW260826   3.079   4.271  28.347
16400SOL     OW60827   2.983   2.975   0.931
16400SOL    HW160828   2.995   2.936   1.018
16400SOL    HW260829   3.069   2.966   0.889
16401SOL     OW60830   0.538   2.284   1.880
16401SOL    HW160831   0.452   2.315   1.907
16401SOL    HW260832   0.553   2.326   1.795
16402SOL     OW60833   0.343   0.159   5.749
16402SOL    HW160834   0.434   0.154   5.718
16402SOL    HW260835   0.344   0.110   5.832
16403SOL     OW60836   0.390   3.432   5.304
16403SOL    HW160837   0.430   3.445   5.390
16403SOL    HW260838   0.313   3.377   5.321
16404SOL     OW60839   1.014   0.902  24.973
16404SOL    HW160840   1.012   0.932  25.064
16404SOL    HW260841   1.060   0.971  24.926
16405SOL     OW60842   3.523   2.211   7.798
16405SOL    HW160843   3.448   2.165   7.835
16405SOL    HW260844   3.521   2.189   7.705
16406SOL     OW60845   2.804   0.762   7.873
16406SOL    HW160846   2.717   0.732   7.897
16406SOL    HW260847   2.854   0.681   7.858
16407SOL     OW60848   3.828   3.099  25.382
16407SOL    HW160849   3.784   3.157  25.444
16407SOL    HW260850   3.763   3.082  25.314
16408SOL     OW60851   0.764   2.373  18.015
16408SOL    HW160852   0.753   2.469  18.017
16408SOL    HW260853   0.690   2.342  17.963
16409SOL     OW60854   2.980   2.146  21.668
16409SOL    HW160855   2.944   2.069  21.712
16409SOL    HW260856   2.941   2.143  21.580
16410SOL     OW60857   4.688   0.775  25.656
16410SOL    HW160858   4.612   0.824  25.624
16410SOL    HW260859   4.756   0.842  25.666
16411SOL     OW60860   1.500   2.510   3.327
16411SOL    HW160861   1.558   2.586   3.324
16411SOL    HW260862   1.439   2.524   3.255
16412SOL     OW60863   3.328   2.635  17.996
16412SOL    HW160864   3.329   2.565  17.931
16412SOL    HW260865   3.401   2.691  17.972
16413SOL     OW60866   0.001   2.512   0.403
16413SOL    HW160867   0.003   2.595   0.450
16413SOL    HW260868   0.060   2.525   0.329
16414SOL     OW60869   4.472   3.295   1.586
16414SOL    HW160870   4.390   3.254   1.558
16414SOL    HW260871   4.472   3.381   1.544
16415SOL     OW60872   1.541   4.288  21.603
16415SOL    HW160873   1.626   4.308  21.565
16415SOL    HW260874   1.560   4.228  21.676
16416SOL     OW60875   2.356   0.207   3.709
16416SOL    HW160876   2.445   0.177   3.724
16416SOL    HW260877   2.363   0.302   3.700
16417SOL     OW60878   1.589   2.009   6.223
16417SOL    HW160879   1.573   1.921   6.187
16417SOL    HW260880   1.509   2.031   6.271
16418SOL     OW60881   0.253   2.752  24.287
16418SOL    HW160882   0.190   2.821  24.267
16418SOL    HW260883   0.300   2.784  24.364
16419SOL     OW60884   1.087   0.784   9.858
16419SOL    HW160885   0.996   0.755   9.857
16419SOL    HW260886   1.104   0.806   9.950
16420SOL     OW60887   1.956   4.432   3.030
16420SOL    HW160888   1.979   4.520   3.000
16420SOL    HW260889   1.870   4.415   2.992
16421SOL     OW60890   0.699   1.199   0.237
16421SOL    HW160891   0.680   1.272   0.178
16421SOL    HW260892   0.794   1.187   0.231
16422SOL     OW60893   0.963   0.681   5.220
16422SOL    HW160894   0.953   0.742   5.293
16422SOL    HW260895   0.875   0.645   5.207
16423SOL     OW60896   2.265   1.109   9.350
16423SOL    HW160897   2.236   1.018   9.343
16423SOL    HW260898   2.186   1.161   9.339
16424SOL     OW60899   2.405   4.650   1.274
16424SOL    HW160900   2.431   4.708   1.346
16424SOL    HW260901   2.350   4.705   1.218
16425SOL     OW60902   4.734   1.265  26.418
16425SOL    HW160903   4.745   1.359  26.436
16425SOL    HW260904   0.009   1.222  26.481
16426SOL     OW60905   4.462   3.773  25.743
16426SOL    HW160906   4.390   3.715  25.718
16426SOL    HW260907   4.424   3.860  25.742
16427SOL     OW60908   2.419   1.282  17.869
16427SOL    HW160909   2.451   1.308  17.783
16427SOL    HW260910   2.335   1.239  17.852
16428SOL     OW60911   4.409   1.502  17.772
16428SOL    HW160912   4.390   1.412  17.799
16428SOL    HW260913   4.354   1.515  17.695
16429SOL     OW60914   3.992   2.617   4.651
16429SOL    HW160915   3.965   2.533   4.688
16429SOL    HW260916   3.939   2.627   4.572
16430SOL     OW60917   3.043   0.033   3.455
16430SOL    HW160918   3.014   0.091   3.384
16430SOL    HW260919   3.134   0.011   3.432
16431SOL     OW60920   4.131   4.532  23.990
16431SOL    HW160921   4.190   4.481  23.934
16431SOL    HW260922   4.175   4.616  24.001
16432SOL     OW60923   1.809   2.557  22.176
16432SOL    HW160924   1.888   2.505  22.171
16432SOL    HW260925   1.782   2.570  22.085
16433SOL     OW60926   0.175   3.895  24.728
16433SOL    HW160927   0.264   3.859  24.726
16433SOL    HW260928   0.170   3.943  24.811
16434SOL     OW60929   4.420   1.289  22.483
16434SOL    HW160930   4.495   1.311  22.428
16434SOL    HW260931   4.390   1.372  22.518
16435SOL     OW60932   1.024   1.464  19.887
16435SOL    HW160933   0.986   1.446  19.800
16435SOL    HW260934   1.017   1.559  19.896
16436SOL     OW60935   3.765   4.338   5.914
16436SOL    HW160936   3.828   4.330   5.985
16436SOL    HW260937   3.690   4.286   5.943
16437SOL     OW60938   1.333   2.374   7.129
16437SOL    HW160939   1.254   2.330   7.098
16437SOL    HW260940   1.375   2.309   7.186
16438SOL     OW60941   4.164   3.256  15.895
16438SOL    HW160942   4.146   3.163  15.900
16438SOL    HW260943   4.096   3.290  15.837
16439SOL     OW60944   2.891   2.741  20.726
16439SOL    HW160945   2.978   2.739  20.686
16439SOL    HW260946   2.888   2.662  20.780
16440SOL     OW60947   4.602   2.762   5.135
16440SOL    HW160948   4.513   2.729   5.121
16440SOL    HW260949   4.617   2.749   5.229
16441SOL     OW60950   0.622   0.869  23.283
16441SOL    HW160951   0.616   0.774  23.273
16441SOL    HW260952   0.574   0.887  23.365
16442SOL     OW60953   0.029   3.639  27.116
16442SOL    HW160954   0.079   3.713  27.081
16442SOL    HW260955   0.052   3.566  27.059
16443SOL     OW60956   2.993   2.339   0.130
16443SOL    HW160957   2.898   2.332   0.120
16443SOL    HW260958   3.021   2.251   0.155
16444SOL     OW60959   2.429   4.474   1.697
16444SOL    HW160960   2.348   4.435   1.729
16444SOL    HW260961   2.452   4.423   1.619
16445SOL     OW60962   1.013   4.343  19.082
16445SOL    HW160963   1.006   4.374  19.173
16445SOL    HW260964   0.938   4.381  19.038
16446SOL     OW60965   3.125   1.328  27.639
16446SOL    HW160966   3.143   1.275  27.717
16446SOL    HW260967   3.211   1.356  27.608
16447SOL     OW60968   3.742   4.764   2.399
16447SOL    HW160969   3.759   4.673   2.373
16447SOL    HW260970   3.717   0.025   2.318
16448SOL     OW60971   0.873   4.550  25.933
16448SOL    HW160972   0.941   4.608  25.900
16448SOL    HW260973   0.830   4.600  26.003
16449SOL     OW60974   4.065   0.360   8.281
16449SOL    HW160975   4.077   0.267   8.303
16449SOL    HW260976   4.075   0.405   8.365
16450SOL     OW60977   1.363   0.586   8.236
16450SOL    HW160978   1.368   0.594   8.332
16450SOL    HW260979   1.358   0.676   8.204
16451SOL     OW60980   2.412   1.043  25.667
16451SOL    HW160981   2.360   1.106  25.617
16451SOL    HW260982   2.373   1.043  25.754
16452SOL     OW60983   3.239   4.261  24.343
16452SOL    HW160984   3.255   4.312  24.264
16452SOL    HW260985   3.181   4.191  24.315
16453SOL     OW60986   3.585   1.645   1.557
16453SOL    HW160987   3.619   1.707   1.493
16453SOL    HW260988   3.521   1.696   1.607
16454SOL     OW60989   0.495   3.103   5.711
16454SOL    HW160990   0.446   3.185   5.714
16454SOL    HW260991   0.480   3.069   5.622
16455SOL     OW60992   1.779   2.440   5.614
16455SOL    HW160993   1.807   2.526   5.583
16455SOL    HW260994   1.783   2.446   5.709
16456SOL     OW60995   4.207   1.857   5.275
16456SOL    HW160996   4.171   1.777   5.313
16456SOL    HW260997   4.172   1.927   5.330
16457SOL     OW60998   2.500   3.185   2.488
16457SOL    HW160999   2.416   3.206   2.529
16457SOL    HW261000   2.493   3.220   2.399
16458SOL     OW61001   2.389   2.637   1.374
16458SOL    HW161002   2.452   2.700   1.408
16458SOL    HW261003   2.432   2.552   1.382
16459SOL     OW61004   4.147   2.632  21.346
16459SOL    HW161005   4.137   2.537  21.352
16459SOL    HW261006   4.242   2.646  21.340
16460SOL     OW61007   4.475   3.408  25.037
16460SOL    HW161008   4.521   3.417  24.953
16460SOL    HW261009   4.396   3.357  25.016
16461SOL     OW61010   3.351   2.126   0.682
16461SOL    HW161011   3.299   2.191   0.633
16461SOL    HW261012   3.438   2.165   0.689
16462SOL     OW61013   3.433   1.672  21.416
16462SOL    HW161014   3.367   1.604  21.412
16462SOL    HW261015   3.391   1.744  21.463
16463SOL     OW61016   0.061   0.698  18.973
16463SOL    HW161017   4.750   0.701  18.952
16463SOL    HW261018   0.103   0.670  18.892
16464SOL     OW61019   4.100   2.080   4.419
16464SOL    HW161020   4.122   2.159   4.468
16464SOL    HW261021   4.015   2.053   4.454
16465SOL     OW61022   2.284   2.728  23.177
16465SOL    HW161023   2.270   2.651  23.233
16465SOL    HW261024   2.231   2.797  23.219
16466SOL     OW61025   1.387   0.582  20.289
16466SOL    HW161026   1.328   0.560  20.217
16466SOL    HW261027   1.455   0.514  20.286
16467SOL     OW61028   3.656   1.760  24.372
16467SOL    HW161029   3.603   1.737  24.449
16467SOL    HW261030   3.642   1.687  24.311
16468SOL     OW61031   2.859   4.050   6.179
16468SOL    HW161032   2.926   4.118   6.174
16468SOL    HW261033   2.862   4.007   6.094
16469SOL     OW61034   1.885   3.845   8.878
16469SOL    HW161035   1.919   3.934   8.873
16469SOL    HW261036   1.951   3.792   8.833
16470SOL     OW61037   0.855   2.094   0.875
16470SOL    HW161038   0.774   2.143   0.888
16470SOL    HW261039   0.875   2.058   0.961
16471SOL     OW61040   0.370   0.744  18.375
16471SOL    HW161041   0.285   0.773  18.405
16471SOL    HW261042   0.378   0.780  18.286
16472SOL     OW61043   1.433   0.137   5.676
16472SOL    HW161044   1.446   0.187   5.757
16472SOL    HW261045   1.370   0.069   5.699
16473SOL     OW61046   1.037   2.944   0.254
16473SOL    HW161047   1.085   2.955   0.172
16473SOL    HW261048   1.078   3.006   0.314
16474SOL     OW61049   0.046   0.324   9.042
16474SOL    HW161050   0.025   0.332   8.949
16474SOL    HW261051   0.061   0.414   9.071
16475SOL     OW61052   2.129   0.069   8.235
16475SOL    HW161053   2.167   0.019   8.308
16475SOL    HW261054   2.201   0.079   8.173
16476SOL     OW61055   1.708   2.969  26.139
16476SOL    HW161056   1.660   2.963  26.222
16476SOL    HW261057   1.689   2.886  26.095
16477SOL     OW61058   1.778   1.647  22.802
16477SOL    HW161059   1.799   1.642  22.709
16477SOL    HW261060   1.818   1.568  22.839
16478SOL     OW61061   4.250   1.555   0.028
16478SOL    HW161062   4.155   1.568   0.032
16478SOL    HW261063   4.279   1.565   0.119
16479SOL     OW61064   2.882   1.249   1.723
16479SOL    HW161065   2.969   1.210   1.710
16479SOL    HW261066   2.821   1.179   1.700
16480SOL     OW61067   4.314   0.987   5.100
16480SOL    HW161068   4.248   1.056   5.105
16480SOL    HW261069   4.392   1.026   5.139
16481SOL     OW61070   2.909   1.217  28.217
16481SOL    HW161071   2.964   1.198  28.293
16481SOL    HW261072   2.956   1.285  28.169
16482SOL     OW61073   1.291   3.588   0.022
16482SOL    HW161074   1.375   3.547   0.045
16482SOL    HW261075   1.291   3.591  28.458
16483SOL     OW61076   4.049   4.553  21.702
16483SOL    HW161077   4.002   4.540  21.784
16483SOL    HW261078   4.002   4.500  21.638
16484SOL     OW61079   0.861   1.274   1.138
16484SOL    HW161080   0.821   1.214   1.201
16484SOL    HW261081   0.788   1.327   1.105
16485SOL     OW61082   0.811   3.860   9.437
16485SOL    HW161083   0.870   3.936   9.435
16485SOL    HW261084   0.805   3.837   9.530
16486SOL     OW61085   0.081   4.428  10.213
16486SOL    HW161086   0.124   4.398  10.293
16486SOL    HW261087   0.094   4.523  10.212
16487SOL     OW61088   2.293   3.560  19.031
16487SOL    HW161089   2.294   3.636  19.089
16487SOL    HW261090   2.249   3.492  19.081
16488SOL     OW61091   2.821   1.567  20.434
16488SOL    HW161092   2.843   1.487  20.386
16488SOL    HW261093   2.731   1.587  20.408
16489SOL     OW61094   1.864   1.639   0.638
16489SOL    HW161095   1.840   1.553   0.673
16489SOL    HW261096   1.901   1.620   0.552
16490SOL     OW61097   0.166   4.403   5.534
16490SOL    HW161098   0.206   4.330   5.581
16490SOL    HW261099   0.144   4.467   5.602
16491SOL     OW61100   4.269   2.063   3.045
16491SOL    HW161101   4.353   2.018   3.059
16491SOL    HW261102   4.272   2.138   3.104
16492SOL     OW61103   3.808   3.516   8.852
16492SOL    HW161104   3.825   3.593   8.799
16492SOL    HW261105   3.746   3.545   8.919
16493SOL     OW61106   1.581   0.598  17.835
16493SOL    HW161107   1.639   0.673  17.844
16493SOL    HW261108   1.496   0.636  17.814
16494SOL     OW61109   3.466   4.538  20.166
16494SOL    HW161110   3.506   4.561  20.082
16494SOL    HW261111   3.517   4.463  20.196
16495SOL     OW61112   2.014   3.081   5.597
16495SOL    HW161113   2.026   3.063   5.691
16495SOL    HW261114   2.038   2.998   5.554
16496SOL     OW61115   4.671   0.653   1.439
16496SOL    HW161116   4.672   0.696   1.524
16496SOL    HW261117   4.640   0.564   1.457
16497SOL     OW61118   3.755   4.617  26.340
16497SOL    HW161119   3.730   4.566  26.262
16497SOL    HW261120   3.717   4.568  26.413
16498SOL     OW61121   0.459   4.768  16.173
16498SOL    HW161122   0.554   4.764  16.181
16498SOL    HW261123   0.441   0.075  16.142
16499SOL     OW61124   0.080   0.485   0.329
16499SOL    HW161125   0.020   0.557   0.348
16499SOL    HW261126   0.163   0.528   0.310
16500SOL     OW61127   3.563   4.453  28.002
16500SOL    HW161128   3.609   4.451  28.086
16500SOL    HW261129   3.523   4.540  27.998
16501SOL     OW61130   0.317   3.940  18.526
16501SOL    HW161131   0.253   3.870  18.540
16501SOL    HW261132   0.310   3.994  18.604
16502SOL     OW61133   3.235   3.344   8.562
16502SOL    HW161134   3.253   3.314   8.651
16502SOL    HW261135   3.159   3.401   8.570
16503SOL     OW61136   1.227   3.873  28.290
16503SOL    HW161137   1.132   3.883  28.282
16503SOL    HW261138   1.263   3.937  28.229
16504SOL     OW61139   0.554   2.342  22.664
16504SOL    HW161140   0.460   2.347  22.680
16504SOL    HW261141   0.567   2.256  22.623
16505SOL     OW61142   3.575   2.789   4.590
16505SOL    HW161143   3.490   2.770   4.549
16505SOL    HW261144   3.621   2.705   4.591
16506SOL     OW61145   3.765   1.145  10.805
16506SOL    HW161146   3.676   1.161  10.774
16506SOL    HW261147   3.789   1.060  10.766
16507SOL     OW61148   1.589   4.364  22.788
16507SOL    HW161149   1.564   4.415  22.865
16507SOL    HW261150   1.520   4.299  22.778
16508SOL     OW61151   3.175   4.694  28.272
16508SOL    HW161152   3.166   4.777  28.224
16508SOL    HW261153   3.149   4.628  28.208
16509SOL     OW61154   1.978   3.625   4.361
16509SOL    HW161155   2.007   3.693   4.421
16509SOL    HW261156   2.059   3.581   4.334
16510SOL     OW61157   2.728   0.618  19.975
16510SOL    HW161158   2.636   0.645  19.974
16510SOL    HW261159   2.745   0.585  19.887
16511SOL     OW61160   3.523   0.751  18.665
16511SOL    HW161161   3.601   0.709  18.700
16511SOL    HW261162   3.463   0.678  18.648
16512SOL     OW61163   4.683   4.589  25.036
16512SOL    HW161164   4.710   4.517  25.094
16512SOL    HW261165   4.625   4.548  24.972
16513SOL     OW61166   1.585   1.410   9.760
16513SOL    HW161167   1.654   1.431   9.696
16513SOL    HW261168   1.509   1.390   9.706
16514SOL     OW61169   4.423   0.292   2.198
16514SOL    HW161170   4.437   0.198   2.209
16514SOL    HW261171   4.499   0.322   2.148
16515SOL     OW61172   1.286   1.214   8.023
16515SOL    HW161173   1.329   1.131   8.003
16515SOL    HW261174   1.350   1.280   7.996
16516SOL     OW61175   3.618   4.298   4.532
16516SOL    HW161176   3.538   4.247   4.539
16516SOL    HW261177   3.621   4.349   4.613
16517SOL     OW61178   3.961   1.799  27.443
16517SOL    HW161179   3.994   1.789  27.353
16517SOL    HW261180   3.868   1.818  27.433
16518SOL     OW61181   0.753   1.899  19.813
16518SOL    HW161182   0.776   1.808  19.796
16518SOL    HW261183   0.658   1.897  19.826
16519SOL     OW61184   0.405   1.188  18.742
16519SOL    HW161185   0.331   1.142  18.782
16519SOL    HW261186   0.365   1.243  18.675
16520SOL     OW61187   3.124   4.068   9.075
16520SOL    HW161188   3.207   4.054   9.029
16520SOL    HW261189   3.077   3.986   9.062
16521SOL     OW61190   0.970   1.684  18.131
16521SOL    HW161191   0.878   1.703  18.149
16521SOL    HW261192   0.982   1.707  18.038
16522SOL     OW61193   4.092   0.043   9.393
16522SOL    HW161194   4.175   0.073   9.358
16522SOL    HW261195   4.115   4.759   9.458
16523SOL     OW61196   3.765   3.138  27.215
16523SOL    HW161197   3.783   3.054  27.259
16523SOL    HW261198   3.675   3.159  27.239
16524SOL     OW61199   2.042   0.035  24.903
16524SOL    HW161200   2.090   0.049  24.821
16524SOL    HW261201   1.953   0.062  24.884
16525SOL     OW61202   4.677   4.289  23.744
16525SOL    HW161203   4.744   4.333  23.691
16525SOL    HW261204   4.690   4.196  23.726
16526SOL     OW61205   1.461   2.518  18.665
16526SOL    HW161206   1.382   2.485  18.623
16526SOL    HW261207   1.531   2.460  18.635
16527SOL     OW61208   2.368   3.886  28.331
16527SOL    HW161209   2.437   3.908  28.394
16527SOL    HW261210   2.300   3.952  28.346
16528SOL     OW61211   4.502   0.494  23.412
16528SOL    HW161212   4.486   0.418  23.356
16528SOL    HW261213   4.542   0.558  23.353
16529SOL     OW61214   4.261   3.702  27.111
16529SOL    HW161215   4.346   3.702  27.067
16529SOL    HW261216   4.219   3.783  27.084
16530SOL     OW61217   3.082   1.126  26.779
16530SOL    HW161218   3.152   1.086  26.727
16530SOL    HW261219   3.112   1.214  26.797
16531SOL     OW61220   3.143   3.762   6.906
16531SOL    HW161221   3.170   3.822   6.976
16531SOL    HW261222   3.079   3.812   6.855
16532SOL     OW61223   3.442   1.478   1.002
16532SOL    HW161224   3.437   1.387   0.972
16532SOL    HW261225   3.509   1.477   1.071
16533SOL     OW61226   3.501   0.439  19.889
16533SOL    HW161227   3.434   0.501  19.862
16533SOL    HW261228   3.468   0.354  19.861
16534SOL     OW61229   4.751   1.860   4.953
16534SOL    HW161230   4.734   1.772   4.920
16534SOL    HW261231   0.053   1.885   4.914
16535SOL     OW61232   0.896   1.141   9.835
16535SOL    HW161233   0.852   1.114   9.755
16535SOL    HW261234   0.869   1.232   9.848
16536SOL     OW61235   4.570   4.610  20.432
16536SOL    HW161236   4.617   4.622  20.514
16536SOL    HW261237   4.638   4.616  20.364
16537SOL     OW61238   3.664   0.739  27.997
16537SOL    HW161239   3.691   0.716  28.086
16537SOL    HW261240   3.741   0.780  27.958
16538SOL     OW61241   1.610   3.609  21.233
16538SOL    HW161242   1.536   3.645  21.183
16538SOL    HW261243   1.672   3.580  21.167
16539SOL     OW61244   0.186   2.167  23.123
16539SOL    HW161245   0.128   2.091  23.130
16539SOL    HW261246   0.186   2.188  23.029
16540SOL     OW61247   3.433   4.205  20.574
16540SOL    HW161248   3.399   4.136  20.518
16540SOL    HW261249   3.488   4.258  20.517
16541SOL     OW61250   0.559   1.314   2.058
16541SOL    HW161251   0.604   1.297   1.976
16541SOL    HW261252   0.551   1.228   2.100
16542SOL     OW61253   1.912   4.153   6.994
16542SOL    HW161254   1.998   4.183   7.021
16542SOL    HW261255   1.851   4.214   7.036
16543SOL     OW61256   1.623   2.912  21.006
16543SOL    HW161257   1.690   2.852  20.972
16543SOL    HW261258   1.553   2.855  21.036
16544SOL     OW61259   4.052   4.251  28.031
16544SOL    HW161260   4.054   4.346  28.046
16544SOL    HW261261   4.004   4.240  27.949
16545SOL     OW61262   4.473   3.441   9.739
16545SOL    HW161263   4.405   3.402   9.684
16545SOL    HW261264   4.428   3.510   9.787
16546SOL     OW61265   2.028   4.313   5.590
16546SOL    HW161266   1.940   4.351   5.596
16546SOL    HW261267   2.015   4.220   5.610
16547SOL     OW61268   0.121   4.166   0.590
16547SOL    HW161269   0.095   4.237   0.532
16547SOL    HW261270   0.117   4.088   0.535
16548SOL     OW61271   1.653   0.141   0.534
16548SOL    HW161272   1.681   0.230   0.512
16548SOL    HW261273   1.561   0.138   0.509
16549SOL     OW61274   2.814   1.473  19.922
16549SOL    HW161275   2.818   1.517  19.836
16549SOL    HW261276   2.871   1.397  19.913
16550SOL     OW61277   3.513   2.050  23.766
16550SOL    HW161278   3.496   2.130  23.717
16550SOL    HW261279   3.455   2.055  23.842
16551SOL     OW61280   0.908   3.544  22.067
16551SOL    HW161281   0.938   3.629  22.036
16551SOL    HW261282   0.932   3.542  22.160
16552SOL     OW61283   4.237   4.117   2.350
16552SOL    HW161284   4.246   4.030   2.389
16552SOL    HW261285   4.151   4.147   2.379
16553SOL     OW61286   2.361   1.222  26.188
16553SOL    HW161287   2.275   1.252  26.160
16553SOL    HW261288   2.417   1.236  26.112
16554SOL     OW61289   1.898   0.032   0.112
16554SOL    HW161290   1.844   4.743   0.079
16554SOL    HW261291   1.843   0.110   0.106
16555SOL     OW61292   3.327   0.945   1.966
16555SOL    HW161293   3.300   0.982   2.050
16555SOL    HW261294   3.333   0.851   1.982
16556SOL     OW61295   4.516   1.630   8.520
16556SOL    HW161296   4.517   1.621   8.615
16556SOL    HW261297   4.529   1.723   8.505
16557SOL     OW61298   1.581   4.738  10.306
16557SOL    HW161299   1.585   4.643  10.301
16557SOL    HW261300   1.543   4.765  10.221
16558SOL     OW61301   1.796   0.275   3.959
16558SOL    HW161302   1.824   0.208   3.898
16558SOL    HW261303   1.872   0.291   4.014
16559SOL     OW61304   2.777   0.952  26.106
16559SOL    HW161305   2.836   0.884  26.137
16559SOL    HW261306   2.807   0.972  26.017
16560SOL     OW61307   0.849   2.039  25.056
16560SOL    HW161308   0.794   2.116  25.068
16560SOL    HW261309   0.820   1.978  25.124
16561SOL     OW61310   1.926   4.197   1.381
16561SOL    HW161311   2.013   4.234   1.393
16561SOL    HW261312   1.926   4.118   1.436
16562SOL     OW61313   0.198   4.435  19.977
16562SOL    HW161314   0.164   4.516  19.938
16562SOL    HW261315   0.293   4.448  19.981
16563SOL     OW61316   0.211   0.837   0.965
16563SOL    HW161317   0.246   0.751   0.990
16563SOL    HW261318   0.155   0.818   0.890
16564SOL     OW61319   2.190   4.119  21.592
16564SOL    HW161320   2.248   4.150  21.522
16564SOL    HW261321   2.105   4.156  21.572
16565SOL     OW61322   2.943   0.116   7.664
16565SOL    HW161323   2.926   0.138   7.572
16565SOL    HW261324   3.038   0.124   7.674
16566SOL     OW61325   1.703   0.416  20.602
16566SOL    HW161326   1.781   0.471  20.598
16566SOL    HW261327   1.641   0.465  20.656
16567SOL     OW61328   3.903   1.467   8.819
16567SOL    HW161329   3.872   1.529   8.885
16567SOL    HW261330   3.926   1.389   8.870
16568SOL     OW61331   2.647   0.158   6.437
16568SOL    HW161332   2.567   0.129   6.480
16568SOL    HW261333   2.702   0.192   6.508
16569SOL     OW61334   0.106   1.297   3.155
16569SOL    HW161335   0.097   1.240   3.078
16569SOL    HW261336   0.017   1.301   3.191
16570SOL     OW61337   3.133   0.159   1.712
16570SOL    HW161338   3.048   0.153   1.756
16570SOL    HW261339   3.121   0.226   1.644
16571SOL     OW61340   0.325   2.700  20.585
16571SOL    HW161341   0.350   2.647  20.510
16571SOL    HW261342   0.406   2.710  20.635
16572SOL     OW61343   3.120   4.423  23.901
16572SOL    HW161344   3.199   4.371  23.920
16572SOL    HW261345   3.120   4.433  23.806
16573SOL     OW61346   1.176   0.784  11.094
16573SOL    HW161347   1.084   0.800  11.074
16573SOL    HW261348   1.174   0.732  11.174
16574SOL     OW61349   0.349   3.783   7.821
16574SOL    HW161350   0.376   3.829   7.742
16574SOL    HW261351   0.426   3.786   7.878
16575SOL     OW61352   0.477   4.257  10.736
16575SOL    HW161353   0.392   4.258  10.779
16575SOL    HW261354   0.532   4.313  10.791
16576SOL     OW61355   2.295   3.892   9.663
16576SOL    HW161356   2.255   3.864   9.746
16576SOL    HW261357   2.387   3.864   9.671
16577SOL     OW61358   1.687   1.591  22.264
16577SOL    HW161359   1.682   1.502  22.229
16577SOL    HW261360   1.756   1.587  22.330
16578SOL     OW61361   3.607   2.870  21.522
16578SOL    HW161362   3.671   2.910  21.462
16578SOL    HW261363   3.647   2.877  21.608
16579SOL     OW61364   2.759   2.946   6.657
16579SOL    HW161365   2.669   2.934   6.686
16579SOL    HW261366   2.752   3.005   6.582
16580SOL     OW61367   3.144   0.638  17.198
16580SOL    HW161368   3.053   0.622  17.223
16580SOL    HW261369   3.195   0.577  17.251
16581SOL     OW61370   4.693   2.062  27.964
16581SOL    HW161371   4.694   2.032  27.873
16581SOL    HW261372   4.626   2.130  27.966
16582SOL     OW61373   0.380   0.392  24.329
16582SOL    HW161374   0.413   0.482  24.333
16582SOL    HW261375   0.357   0.372  24.420
16583SOL     OW61376   3.025   4.664  20.876
16583SOL    HW161377   3.094   4.638  20.815
16583SOL    HW261378   2.997   4.750  20.845
16584SOL     OW61379   2.561   2.323  19.376
16584SOL    HW161380   2.530   2.409  19.406
16584SOL    HW261381   2.500   2.300  19.305
16585SOL     OW61382   1.667   4.321  24.842
16585SOL    HW161383   1.758   4.292  24.839
16585SOL    HW261384   1.635   4.310  24.753
16586SOL     OW61385   1.795   0.479  19.762
16586SOL    HW161386   1.743   0.494  19.840
16586SOL    HW261387   1.886   0.479  19.793
16587SOL     OW61388   4.713   1.251   2.930
16587SOL    HW161389   4.686   1.162   2.906
16587SOL    HW261390   4.637   1.306   2.909
16588SOL     OW61391   2.424   2.101   1.876
16588SOL    HW161392   2.370   2.109   1.798
16588SOL    HW261393   2.401   2.178   1.929
16589SOL     OW61394   1.497   0.085  23.591
16589SOL    HW161395   1.559   0.115  23.525
16589SOL    HW261396   1.484   0.161  23.649
16590SOL     OW61397   0.774   2.689   7.152
16590SOL    HW161398   0.857   2.685   7.105
16590SOL    HW261399   0.780   2.620   7.217
16591SOL     OW61400   4.622   2.264   3.987
16591SOL    HW161401   4.551   2.200   3.997
16591SOL    HW261402   4.626   2.280   3.893
16592SOL     OW61403   3.253   4.264   2.604
16592SOL    HW161404   3.276   4.320   2.530
16592SOL    HW261405   3.175   4.305   2.641
16593SOL     OW61406   2.257   0.820   5.981
16593SOL    HW161407   2.299   0.774   6.054
16593SOL    HW261408   2.297   0.907   5.982
16594SOL     OW61409   4.275   0.447  24.561
16594SOL    HW161410   4.300   0.522  24.615
16594SOL    HW261411   4.358   0.412  24.528
16595SOL     OW61412   0.458   2.591  28.377
16595SOL    HW161413   0.463   2.676  28.332
16595SOL    HW261414   0.461   2.527  28.306
16596SOL     OW61415   4.615   3.863  19.746
16596SOL    HW161416   4.594   3.840  19.656
16596SOL    HW261417   4.544   3.921  19.774
16597SOL     OW61418   3.661   0.683   1.138
16597SOL    HW161419   3.748   0.721   1.125
16597SOL    HW261420   3.676   0.608   1.195
16598SOL     OW61421   4.622   0.412   0.932
16598SOL    HW161422   4.673   0.413   0.851
16598SOL    HW261423   4.543   0.461   0.911
16599SOL     OW61424   1.974   3.907   7.255
16599SOL    HW161425   1.971   3.841   7.324
16599SOL    HW261426   1.952   3.989   7.300
16600SOL     OW61427   0.668   2.928   0.059
16600SOL    HW161428   0.713   2.871   0.122
16600SOL    HW261429   0.737   2.986   0.026
16601SOL     OW61430   4.201   2.375  22.037
16601SOL    HW161431   4.132   2.373  21.972
16601SOL    HW261432   4.156   2.369  22.121
16602SOL     OW61433   4.281   0.058  22.668
16602SOL    HW161434   4.339   0.134  22.676
16602SOL    HW261435   4.291   0.029  22.578
16603SOL     OW61436   0.711   2.798  21.937
16603SOL    HW161437   0.776   2.728  21.933
16603SOL    HW261438   0.629   2.752  21.955
16604SOL     OW61439   4.665   3.955   8.081
16604SOL    HW161440   4.727   3.882   8.077
16604SOL    HW261441   4.594   3.930   8.022
16605SOL     OW61442   1.407   1.292  20.580
16605SOL    HW161443   1.396   1.340  20.663
16605SOL    HW261444   1.457   1.215  20.604
16606SOL     OW61445   4.367   1.646  28.319
16606SOL    HW161446   4.336   1.627  28.407
16606SOL    HW261447   4.382   1.560  28.279
16607SOL     OW61448   1.743   1.885  20.338
16607SOL    HW161449   1.766   1.881  20.245
16607SOL    HW261450   1.676   1.954  20.343
16608SOL     OW61451   0.588   1.832   0.173
16608SOL    HW161452   0.623   1.890   0.105
16608SOL    HW261453   0.497   1.862   0.185
16609SOL     OW61454   0.238   1.822   0.520
16609SOL    HW161455   0.293   1.896   0.543
16609SOL    HW261456   0.148   1.856   0.524
16610SOL     OW61457   4.733   2.001  22.362
16610SOL    HW161458   4.712   1.908  22.367
16610SOL    HW261459   0.043   2.003  22.335
16611SOL     OW61460   3.121   0.064   9.508
16611SOL    HW161461   3.142   0.092   9.597
16611SOL    HW261462   3.129   4.751   9.510
16612SOL     OW61463   4.139   2.221   5.771
16612SOL    HW161464   4.148   2.198   5.679
16612SOL    HW261465   4.159   2.140   5.818
16613SOL     OW61466   3.246   0.353   4.288
16613SOL    HW161467   3.198   0.434   4.308
16613SOL    HW261468   3.187   0.304   4.231
16614SOL     OW61469   4.511   3.306  27.932
16614SOL    HW161470   4.601   3.336  27.921
16614SOL    HW261471   4.470   3.373  27.987
16615SOL     OW61472   0.482   0.063  27.240
16615SOL    HW161473   0.443   4.762  27.215
16615SOL    HW261474   0.565   0.039  27.282
16616SOL     OW61475   1.164   0.056  20.077
16616SOL    HW161476   1.148   0.064  19.983
16616SOL    HW261477   1.258   0.039  20.084
16617SOL     OW61478   4.515   4.684  28.211
16617SOL    HW161479   4.434   4.644  28.179
16617SOL    HW261480   4.513   4.773  28.176
16618SOL     OW61481   1.029   1.538  20.325
16618SOL    HW161482   1.100   1.473  20.333
16618SOL    HW261483   1.074   1.621  20.310
16619SOL     OW61484   2.392   4.148  27.244
16619SOL    HW161485   2.380   4.209  27.317
16619SOL    HW261486   2.488   4.142  27.234
16620SOL     OW61487   3.927   3.375   6.856
16620SOL    HW161488   3.937   3.333   6.942
16620SOL    HW261489   4.008   3.425   6.844
16621SOL     OW61490   3.258   3.566  17.665
16621SOL    HW161491   3.342   3.522  17.681
16621SOL    HW261492   3.243   3.554  17.571
16622SOL     OW61493   0.611   0.749  21.411
16622SOL    HW161494   0.633   0.788  21.326
16622SOL    HW261495   0.542   0.686  21.390
16623SOL     OW61496   1.658   0.157  22.682
16623SOL    HW161497   1.590   0.090  22.667
16623SOL    HW261498   1.740   0.113  22.663
16624SOL     OW61499   0.117   3.141  10.391
16624SOL    HW161500   0.117   3.068  10.328
16624SOL    HW261501   0.031   3.138  10.431
16625SOL     OW61502   1.084   4.089  19.876
16625SOL    HW161503   0.989   4.098  19.875
16625SOL    HW261504   1.117   4.168  19.832
16626SOL     OW61505   1.194   4.541   0.435
16626SOL    HW161506   1.142   4.619   0.451
16626SOL    HW261507   1.235   4.556   0.350
16627SOL     OW61508   3.719   4.110  25.752
16627SOL    HW161509   3.808   4.098  25.785
16627SOL    HW261510   3.675   4.028  25.771
16628SOL     OW61511   0.935   0.508   7.967
16628SOL    HW161512   0.916   0.548   7.883
16628SOL    HW261513   0.881   0.557   8.030
16629SOL     OW61514   3.373   1.598  27.933
16629SOL    HW161515   3.394   1.655  28.006
16629SOL    HW261516   3.279   1.608  27.920
16630SOL     OW61517   2.861   1.401  25.648
16630SOL    HW161518   2.904   1.379  25.730
16630SOL    HW261519   2.814   1.321  25.623
16631SOL     OW61520   3.169   0.602  22.118
16631SOL    HW161521   3.238   0.582  22.055
16631SOL    HW261522   3.109   0.659  22.070
16632SOL     OW61523   4.570   1.252   0.533
16632SOL    HW161524   4.636   1.247   0.602
16632SOL    HW261525   4.535   1.341   0.540
16633SOL     OW61526   4.268   1.013   5.462
16633SOL    HW161527   4.321   1.092   5.454
16633SOL    HW261528   4.330   0.946   5.490
16634SOL     OW61529   1.040   1.603  28.172
16634SOL    HW161530   1.029   1.677  28.232
16634SOL    HW261531   1.029   1.525  28.228
16635SOL     OW61532   0.938   0.372   8.351
16635SOL    HW161533   0.910   0.281   8.365
16635SOL    HW261534   1.000   0.389   8.422
16636SOL     OW61535   3.145   1.133   6.262
16636SOL    HW161536   3.221   1.191   6.272
16636SOL    HW261537   3.182   1.047   6.242
16637SOL     OW61538   4.521   3.101  27.032
16637SOL    HW161539   4.456   3.078  27.098
16637SOL    HW261540   4.581   3.161  27.077
16638SOL     OW61541   0.498   0.469   5.640
16638SOL    HW161542   0.582   0.424   5.630
16638SOL    HW261543   0.458   0.464   5.553
16639SOL     OW61544   2.379   3.820  26.652
16639SOL    HW161545   2.350   3.911  26.644
16639SOL    HW261546   2.359   3.797  26.743
16640SOL     OW61547   4.082   0.860  11.224
16640SOL    HW161548   4.078   0.930  11.160
16640SOL    HW261549   4.151   0.887  11.285
16641SOL     OW61550   3.237   2.675   3.280
16641SOL    HW161551   3.148   2.644   3.260
16641SOL    HW261552   3.293   2.602   3.257
16642SOL     OW61553   0.439   2.382   4.783
16642SOL    HW161554   0.497   2.444   4.826
16642SOL    HW261555   0.376   2.437   4.736
16643SOL     OW61556   0.684   0.860  18.105
16643SOL    HW161557   0.682   0.946  18.064
16643SOL    HW261558   0.706   0.877  18.197
16644SOL     OW61559   3.505   1.310  17.631
16644SOL    HW161560   3.467   1.225  17.654
16644SOL    HW261561   3.585   1.315  17.684
16645SOL     OW61562   0.545   0.702  22.918
16645SOL    HW161563   0.457   0.664  22.907
16645SOL    HW261564   0.530   0.797  22.921
16646SOL     OW61565   4.151   0.459   8.515
16646SOL    HW161566   4.080   0.511   8.553
16646SOL    HW261567   4.217   0.523   8.489
16647SOL     OW61568   0.209   0.408   5.700
16647SOL    HW161569   0.203   0.457   5.782
16647SOL    HW261570   0.258   0.329   5.722
16648SOL     OW61571   3.580   4.223  21.608
16648SOL    HW161572   3.615   4.135  21.620
16648SOL    HW261573   3.545   4.223  21.518
16649SOL     OW61574   0.491   0.312   8.338
16649SOL    HW161575   0.434   0.246   8.300
16649SOL    HW261576   0.482   0.388   8.281
16650SOL     OW61577   1.862   0.972   6.671
16650SOL    HW161578   1.958   0.974   6.669
16650SOL    HW261579   1.836   1.062   6.650
16651SOL     OW61580   1.615   3.139  22.028
16651SOL    HW161581   1.629   3.128  22.122
16651SOL    HW261582   1.702   3.155  21.992
16652SOL     OW61583   1.075   0.828  10.143
16652SOL    HW161584   1.076   0.916  10.108
16652SOL    HW261585   0.999   0.825  10.201
16653SOL     OW61586   0.379   4.508   4.511
16653SOL    HW161587   0.378   4.602   4.492
16653SOL    HW261588   0.402   4.468   4.428
16654SOL     OW61589   0.293   2.640   9.669
16654SOL    HW161590   0.200   2.630   9.692
16654SOL    HW261591   0.321   2.718   9.716
16655SOL     OW61592   4.210   4.214  23.725
16655SOL    HW161593   4.286   4.212  23.668
16655SOL    HW261594   4.142   4.257  23.674
16656SOL     OW61595   3.633   0.913   1.992
16656SOL    HW161596   3.647   0.935   1.900
16656SOL    HW261597   3.539   0.894   1.999
16657SOL     OW61598   4.567   1.452   0.054
16657SOL    HW161599   4.630   1.465   0.125
16657SOL    HW261600   4.622   1.445  28.507
16658SOL     OW61601   1.853   1.964   5.818
16658SOL    HW161602   1.873   1.923   5.902
16658SOL    HW261603   1.850   2.057   5.837
16659SOL     OW61604   4.729   2.482   7.562
16659SOL    HW161605   0.012   2.415   7.541
16659SOL    HW261606   4.722   2.478   7.658
16660SOL     OW61607   1.693   2.628   3.905
16660SOL    HW161608   1.753   2.700   3.925
16660SOL    HW261609   1.681   2.583   3.989
16661SOL     OW61610   0.954   3.393   8.631
16661SOL    HW161611   0.906   3.365   8.553
16661SOL    HW261612   0.988   3.479   8.610
16662SOL     OW61613   1.319   1.353   3.437
16662SOL    HW161614   1.357   1.432   3.476
16662SOL    HW261615   1.265   1.315   3.506
16663SOL     OW61616   2.325   4.180  19.263
16663SOL    HW161617   2.261   4.113  19.237
16663SOL    HW261618   2.273   4.248  19.305
16664SOL     OW61619   2.988   3.734  10.034
16664SOL    HW161620   3.037   3.814  10.016
16664SOL    HW261621   2.993   3.724  10.129
16665SOL     OW61622   2.312   3.908   2.576
16665SOL    HW161623   2.395   3.935   2.613
16665SOL    HW261624   2.335   3.859   2.497
16666SOL     OW61625   3.647   3.868  23.597
16666SOL    HW161626   3.634   3.962  23.606
16666SOL    HW261627   3.602   3.830  23.673
16667SOL     OW61628   0.467   2.177   7.176
16667SOL    HW161629   0.519   2.113   7.225
16667SOL    HW261630   0.388   2.129   7.150
16668SOL     OW61631   3.411   3.596  23.883
16668SOL    HW161632   3.338   3.618  23.942
16668SOL    HW261633   3.464   3.676  23.881
16669SOL     OW61634   3.680   1.701   9.470
16669SOL    HW161635   3.693   1.674   9.562
16669SOL    HW261636   3.668   1.795   9.474
16670SOL     OW61637   2.213   2.224   6.344
16670SOL    HW161638   2.210   2.170   6.265
16670SOL    HW261639   2.302   2.214   6.377
16671SOL     OW61640   3.125   2.194  26.672
16671SOL    HW161641   3.099   2.286  26.665
16671SOL    HW261642   3.155   2.171  26.584
16672SOL     OW61643   1.577   0.584  10.761
16672SOL    HW161644   1.567   0.675  10.788
16672SOL    HW261645   1.613   0.540  10.838
16673SOL     OW61646   3.659   0.492  28.342
16673SOL    HW161647   3.710   0.520  28.419
16673SOL    HW261648   3.585   0.443  28.379
16674SOL     OW61649   3.314   3.610  28.013
16674SOL    HW161650   3.330   3.518  28.034
16674SOL    HW261651   3.222   3.613  27.988
16675SOL     OW61652   0.300   1.343  17.884
16675SOL    HW161653   0.285   1.339  17.790
16675SOL    HW261654   0.213   1.337  17.923
16676SOL     OW61655   0.608   1.012  21.241
16676SOL    HW161656   0.640   1.045  21.324
16676SOL    HW261657   0.627   1.081  21.178
16677SOL     OW61658   0.130   1.727  27.998
16677SOL    HW161659   0.117   1.759  28.087
16677SOL    HW261660   0.068   1.777  27.946
16678SOL     OW61661   4.077   1.595   0.357
16678SOL    HW161662   4.132   1.674   0.362
16678SOL    HW261663   3.990   1.624   0.383
16679SOL     OW61664   2.780   3.753   7.225
16679SOL    HW161665   2.695   3.714   7.245
16679SOL    HW261666   2.838   3.719   7.293
16680SOL     OW61667   4.561   2.453   4.751
16680SOL    HW161668   4.526   2.400   4.823
16680SOL    HW261669   4.519   2.417   4.672
16681SOL     OW61670   2.406   4.749  18.843
16681SOL    HW161671   2.467   4.680  18.868
16681SOL    HW261672   2.461   0.035  18.804
16682SOL     OW61673   1.878   1.351   8.820
16682SOL    HW161674   1.926   1.320   8.897
16682SOL    HW261675   1.816   1.414   8.855
16683SOL     OW61676   2.880   0.556  16.267
16683SOL    HW161677   2.965   0.552  16.224
16683SOL    HW261678   2.823   0.598  16.203
16684SOL     OW61679   3.343   4.018  22.366
16684SOL    HW161680   3.370   3.993  22.454
16684SOL    HW261681   3.258   3.977  22.353
16685SOL     OW61682   3.858   3.281   9.790
16685SOL    HW161683   3.818   3.367   9.802
16685SOL    HW261684   3.952   3.296   9.801
16686SOL     OW61685   4.283   3.417  27.194
16686SOL    HW161686   4.359   3.453  27.150
16686SOL    HW261687   4.250   3.489  27.248
16687SOL     OW61688   0.683   3.460  26.491
16687SOL    HW161689   0.619   3.473  26.560
16687SOL    HW261690   0.697   3.365  26.490
16688SOL     OW61691   4.412   1.828  10.084
16688SOL    HW161692   4.493   1.816  10.133
16688SOL    HW261693   4.414   1.760  10.017
16689SOL     OW61694   0.454   3.134   4.736
16689SOL    HW161695   0.378   3.151   4.681
16689SOL    HW261696   0.419   3.094   4.815
16690SOL     OW61697   3.364   2.109   4.760
16690SOL    HW161698   3.293   2.047   4.779
16690SOL    HW261699   3.324   2.174   4.701
16691SOL     OW61700   2.701   0.924  28.002
16691SOL    HW161701   2.632   0.858  27.991
16691SOL    HW261702   2.660   1.005  27.972
16692SOL     OW61703   3.974   4.520  19.113
16692SOL    HW161704   3.911   4.499  19.183
16692SOL    HW261705   4.013   4.603  19.141
16693SOL     OW61706   1.054   3.107  10.780
16693SOL    HW161707   1.098   3.192  10.791
16693SOL    HW261708   0.961   3.128  10.785
16694SOL     OW61709   4.362   2.065   5.934
16694SOL    HW161710   4.395   2.129   5.998
16694SOL    HW261711   4.337   1.989   5.988
16695SOL     OW61712   2.354   2.954   4.950
16695SOL    HW161713   2.292   2.988   4.885
16695SOL    HW261714   2.355   3.021   5.018
16696SOL     OW61715   0.394   2.322  27.878
16696SOL    HW161716   0.405   2.236  27.920
16696SOL    HW261717   0.322   2.310  27.817
16697SOL     OW61718   4.452   0.309  22.797
16697SOL    HW161719   4.472   0.294  22.705
16697SOL    HW261720   4.518   0.372  22.826
16698SOL     OW61721   4.424   2.773  18.918
16698SOL    HW161722   4.335   2.799  18.894
16698SOL    HW261723   4.414   2.724  18.999
16699SOL     OW61724   4.414   2.447  19.335
16699SOL    HW161725   4.381   2.357  19.327
16699SOL    HW261726   4.390   2.474  19.423
16700SOL     OW61727   3.197   3.830  27.126
16700SOL    HW161728   3.185   3.899  27.062
16700SOL    HW261729   3.287   3.841  27.156
16701SOL     OW61730   0.371   0.901  26.442
16701SOL    HW161731   0.280   0.916  26.467
16701SOL    HW261732   0.376   0.807  26.423
16702SOL     OW61733   1.224   4.666  27.610
16702SOL    HW161734   1.249   4.574  27.617
16702SOL    HW261735   1.132   4.669  27.637
16703SOL     OW61736   1.181   4.585   3.231
16703SOL    HW161737   1.227   4.665   3.255
16703SOL    HW261738   1.098   4.615   3.194
16704SOL     OW61739   1.664   1.080   1.454
16704SOL    HW161740   1.691   0.989   1.469
16704SOL    HW261741   1.651   1.116   1.542
16705SOL     OW61742   2.858   1.500  23.839
16705SOL    HW161743   2.832   1.587  23.810
16705SOL    HW261744   2.797   1.440  23.795
16706SOL     OW61745   1.457   3.919  26.404
16706SOL    HW161746   1.549   3.945  26.400
16706SOL    HW261747   1.413   3.993  26.448
16707SOL     OW61748   0.228   2.771   5.582
16707SOL    HW161749   0.217   2.685   5.541
16707SOL    HW261750   0.173   2.830   5.530
16708SOL     OW61751   0.606   4.611   3.845
16708SOL    HW161752   0.662   4.535   3.863
16708SOL    HW261753   0.537   4.606   3.911
16709SOL     OW61754   0.934   3.366   8.318
16709SOL    HW161755   0.966   3.346   8.230
16709SOL    HW261756   0.863   3.429   8.304
16710SOL     OW61757   0.828   4.012  28.242
16710SOL    HW161758   0.756   3.979  28.296
16710SOL    HW261759   0.844   3.942  28.178
16711SOL     OW61760   3.643   0.000  20.198
16711SOL    HW161761   3.616   4.758  20.286
16711SOL    HW261762   3.703   0.074  20.210
16712SOL     OW61763   3.928   3.330   2.258
16712SOL    HW161764   3.889   3.413   2.284
16712SOL    HW261765   3.888   3.310   2.174
16713SOL     OW61766   0.655   0.877   8.825
16713SOL    HW161767   0.611   0.898   8.743
16713SOL    HW261768   0.732   0.934   8.826
16714SOL     OW61769   4.697   0.098   7.527
16714SOL    HW161770   4.711   0.123   7.618
16714SOL    HW261771   4.659   0.010   7.532
16715SOL     OW61772   4.098   0.722  28.468
16715SOL    HW161773   4.109   0.744   0.029
16715SOL    HW261774   4.187   0.704  28.436
16716SOL     OW61775   2.962   1.651   7.710
16716SOL    HW161776   3.028   1.631   7.644
16716SOL    HW261777   3.011   1.683   7.786
16717SOL     OW61778   2.903   1.432  24.221
16717SOL    HW161779   2.932   1.495  24.155
16717SOL    HW261780   2.963   1.358  24.211
16718SOL     OW61781   1.307   1.114   9.787
16718SOL    HW161782   1.255   1.169   9.728
16718SOL    HW261783   1.323   1.034   9.737
16719SOL     OW61784   4.011   0.477  23.105
16719SOL    HW161785   4.095   0.493  23.061
16719SOL    HW261786   3.981   0.394  23.069
16720SOL     OW61787   3.798   3.717  27.693
16720SOL    HW161788   3.784   3.812  27.689
16720SOL    HW261789   3.873   3.701  27.636
16721SOL     OW61790   0.646   3.405  24.044
16721SOL    HW161791   0.602   3.474  24.094
16721SOL    HW261792   0.575   3.349  24.014
16722SOL     OW61793   4.611   2.030  18.274
16722SOL    HW161794   4.613   1.935  18.274
16722SOL    HW261795   4.548   2.052  18.205
16723SOL     OW61796   0.130   2.260   4.994
16723SOL    HW161797   0.225   2.265   4.982
16723SOL    HW261798   0.094   2.308   4.920
16724SOL     OW61799   1.474   0.420   8.999
16724SOL    HW161800   1.545   0.464   8.953
16724SOL    HW261801   1.448   0.482   9.068
16725SOL     OW61802   0.065   2.451  25.096
16725SOL    HW161803   0.089   2.414  25.180
16725SOL    HW261804   0.142   2.502  25.070
16726SOL     OW61805   3.491   0.479   6.207
16726SOL    HW161806   3.527   0.412   6.265
16726SOL    HW261807   3.409   0.505   6.248
16727SOL     OW61808   3.105   3.366  20.076
16727SOL    HW161809   3.119   3.461  20.067
16727SOL    HW261810   3.010   3.355  20.071
16728SOL     OW61811   4.470   1.928   1.093
16728SOL    HW161812   4.509   1.847   1.126
16728SOL    HW261813   4.412   1.957   1.163
16729SOL     OW61814   2.282   0.615  20.673
16729SOL    HW161815   2.348   0.669  20.629
16729SOL    HW261816   2.249   0.670  20.744
16730SOL     OW61817   2.996   0.933   0.901
16730SOL    HW161818   2.993   0.893   0.815
16730SOL    HW261819   3.081   0.906   0.937
16731SOL     OW61820   0.725   2.227  12.747
16731SOL    HW161821   0.773   2.190  12.821
16731SOL    HW261822   0.659   2.161  12.726
16732SOL     OW61823   2.625   1.988  25.753
16732SOL    HW161824   2.609   2.052  25.685
16732SOL    HW261825   2.596   2.031  25.834
16733SOL     OW61826   3.395   1.712   2.730
16733SOL    HW161827   3.321   1.698   2.671
16733SOL    HW261828   3.448   1.779   2.688
16734SOL     OW61829   3.434   0.502  18.895
16734SOL    HW161830   3.423   0.517  18.801
16734SOL    HW261831   3.349   0.471  18.925
16735SOL     OW61832   1.073   4.519  22.936
16735SOL    HW161833   1.009   4.564  22.991
16735SOL    HW261834   1.142   4.492  22.996
16736SOL     OW61835   4.441   0.105   7.181
16736SOL    HW161836   4.488   0.188   7.188
16736SOL    HW261837   4.365   0.116   7.238
16737SOL     OW61838   4.693   3.684   3.686
16737SOL    HW161839   4.762   3.648   3.742
16737SOL    HW261840   4.651   3.608   3.648
16738SOL     OW61841   1.995   2.024   6.120
16738SOL    HW161842   2.000   2.109   6.076
16738SOL    HW261843   1.950   2.043   6.203
16739SOL     OW61844   2.402   0.990   0.649
16739SOL    HW161845   2.409   1.059   0.715
16739SOL    HW261846   2.308   0.984   0.630
16740SOL     OW61847   1.728   4.665  21.738
16740SOL    HW161848   1.819   4.687  21.758
16740SOL    HW261849   1.733   4.589  21.680
16741SOL     OW61850   1.326   0.460  18.998
16741SOL    HW161851   1.291   0.505  18.921
16741SOL    HW261852   1.316   0.524  19.069
16742SOL     OW61853   1.279   1.463  22.274
16742SOL    HW161854   1.199   1.488  22.227
16742SOL    HW261855   1.251   1.451  22.364
16743SOL     OW61856   1.216   1.718  17.205
16743SOL    HW161857   1.176   1.795  17.165
16743SOL    HW261858   1.279   1.687  17.141
16744SOL     OW61859   4.564   3.325   5.503
16744SOL    HW161860   4.526   3.378   5.573
16744SOL    HW261861   4.537   3.236   5.524
16745SOL     OW61862   3.226   3.159   1.851
16745SOL    HW161863   3.156   3.155   1.786
16745SOL    HW261864   3.181   3.174   1.934
16746SOL     OW61865   0.984   2.027   8.497
16746SOL    HW161866   1.069   2.053   8.463
16746SOL    HW261867   0.950   1.965   8.433
16747SOL     OW61868   0.716   1.296   7.651
16747SOL    HW161869   0.686   1.306   7.561
16747SOL    HW261870   0.772   1.218   7.649
16748SOL     OW61871   3.456   2.419   8.061
16748SOL    HW161872   3.432   2.420   7.968
16748SOL    HW261873   3.417   2.499   8.097
16749SOL     OW61874   0.571   2.204   3.068
16749SOL    HW161875   0.558   2.139   2.998
16749SOL    HW261876   0.652   2.177   3.110
16750SOL     OW61877   3.609   0.971   1.040
16750SOL    HW161878   3.673   0.933   1.100
16750SOL    HW261879   3.603   0.909   0.968
16751SOL     OW61880   3.764   1.368   2.235
16751SOL    HW161881   3.730   1.304   2.172
16751SOL    HW261882   3.839   1.324   2.276
16752SOL     OW61883   3.484   4.215  20.069
16752SOL    HW161884   3.540   4.250  20.139
16752SOL    HW261885   3.518   4.254  19.989
16753SOL     OW61886   0.506   0.622   6.773
16753SOL    HW161887   0.597   0.594   6.781
16753SOL    HW261888   0.498   0.696   6.832
16754SOL     OW61889   3.068   0.850   6.904
16754SOL    HW161890   3.099   0.862   6.815
16754SOL    HW261891   2.982   0.892   6.905
16755SOL     OW61892   0.371   4.437  22.174
16755SOL    HW161893   0.371   4.458  22.081
16755SOL    HW261894   0.443   4.375  22.185
16756SOL     OW61895   2.240   1.497   6.022
16756SOL    HW161896   2.146   1.512   6.025
16756SOL    HW261897   2.274   1.536   6.103
16757SOL     OW61898   3.068   1.412   5.454
16757SOL    HW161899   3.067   1.434   5.361
16757SOL    HW261900   3.160   1.403   5.476
16758SOL     OW61901   4.046   0.306  21.369
16758SOL    HW161902   4.038   0.334  21.461
16758SOL    HW261903   4.029   0.211  21.372
16759SOL     OW61904   0.620   4.108  26.314
16759SOL    HW161905   0.552   4.164  26.350
16759SOL    HW261906   0.573   4.039  26.267
16760SOL     OW61907   2.561   4.379  25.099
16760SOL    HW161908   2.577   4.296  25.054
16760SOL    HW261909   2.636   4.390  25.157
16761SOL     OW61910   0.221   1.701   0.787
16761SOL    HW161911   0.218   1.733   0.697
16761SOL    HW261912   0.269   1.768   0.834
16762SOL     OW61913   0.373   3.654  24.312
16762SOL    HW161914   0.397   3.563  24.329
16762SOL    HW261915   0.388   3.665  24.218
16763SOL     OW61916   3.477   3.429   7.109
16763SOL    HW161917   3.500   3.336   7.113
16763SOL    HW261918   3.468   3.447   7.016
16764SOL     OW61919   3.414   2.936   2.261
16764SOL    HW161920   3.437   3.026   2.239
16764SOL    HW261921   3.433   2.886   2.181
16765SOL     OW61922   1.261   4.549  24.386
16765SOL    HW161923   1.197   4.507  24.444
16765SOL    HW261924   1.213   4.622  24.346
16766SOL     OW61925   0.783   1.875  20.537
16766SOL    HW161926   0.742   1.790  20.555
16766SOL    HW261927   0.708   1.934  20.525
16767SOL     OW61928   2.595   1.247  19.702
16767SOL    HW161929   2.540   1.321  19.677
16767SOL    HW261930   2.631   1.214  19.620
16768SOL     OW61931   1.364   2.068  24.235
16768SOL    HW161932   1.457   2.048  24.236
16768SOL    HW261933   1.348   2.101  24.146
16769SOL     OW61934   3.866   4.246  23.017
16769SOL    HW161935   3.812   4.173  22.986
16769SOL    HW261936   3.956   4.215  23.007
16770SOL     OW61937   3.735   1.873  24.824
16770SOL    HW161938   3.820   1.831  24.811
16770SOL    HW261939   3.727   1.935  24.752
16771SOL     OW61940   0.648   1.563  22.344
16771SOL    HW161941   0.715   1.497  22.362
16771SOL    HW261942   0.662   1.586  22.252
16772SOL     OW61943   1.966   2.831   0.086
16772SOL    HW161944   2.059   2.846   0.104
16772SOL    HW261945   1.921   2.861   0.166
16773SOL     OW61946   0.113   3.279   2.993
16773SOL    HW161947   0.072   3.213   2.937
16773SOL    HW261948   0.196   3.239   3.020
16774SOL     OW61949   4.053   3.848  26.509
16774SOL    HW161950   3.969   3.885  26.482
16774SOL    HW261951   4.079   3.791  26.436
16775SOL     OW61952   1.233   3.986   6.643
16775SOL    HW161953   1.172   4.053   6.613
16775SOL    HW261954   1.203   3.906   6.600
16776SOL     OW61955   3.930   3.341  27.218
16776SOL    HW161956   3.870   3.269  27.236
16776SOL    HW261957   3.984   3.310  27.145
16777SOL     OW61958   4.042   0.516   2.215
16777SOL    HW161959   4.002   0.471   2.141
16777SOL    HW261960   4.045   0.608   2.189
16778SOL     OW61961   2.510   3.539   6.245
16778SOL    HW161962   2.577   3.600   6.277
16778SOL    HW261963   2.447   3.533   6.318
16779SOL     OW61964   2.635   4.565  18.912
16779SOL    HW161965   2.608   4.477  18.884
16779SOL    HW261966   2.666   4.552  19.001
16780SOL     OW61967   0.732   2.089  26.134
16780SOL    HW161968   0.778   2.042  26.064
16780SOL    HW261969   0.795   2.093  26.206
16781SOL     OW61970   1.937   3.065  27.498
16781SOL    HW161971   1.846   3.067  27.469
16781SOL    HW261972   1.970   3.154  27.481
16782SOL     OW61973   3.680   1.433  24.254
16782SOL    HW161974   3.710   1.502  24.195
16782SOL    HW261975   3.685   1.353  24.202
16783SOL     OW61976   1.990   2.742  23.581
16783SOL    HW161977   1.926   2.798  23.624
16783SOL    HW261978   2.020   2.793  23.505
16784SOL     OW61979   3.931   2.346  10.480
16784SOL    HW161980   4.019   2.319  10.453
16784SOL    HW261981   3.933   2.341  10.575
16785SOL     OW61982   2.766   4.303  20.177
16785SOL    HW161983   2.834   4.370  20.191
16785SOL    HW261984   2.782   4.271  20.088
16786SOL     OW61985   0.704   0.695  21.649
16786SOL    HW161986   0.765   0.764  21.674
16786SOL    HW261987   0.667   0.724  21.565
16787SOL     OW61988   0.929   1.751   6.964
16787SOL    HW161989   0.935   1.761   6.869
16787SOL    HW261990   0.882   1.830   6.994
16788SOL     OW61991   4.093   1.873   1.292
16788SOL    HW161992   4.079   1.893   1.384
16788SOL    HW261993   4.026   1.809   1.270
16789SOL     OW61994   0.524   4.627   8.309
16789SOL    HW161995   0.570   4.609   8.228
16789SOL    HW261996   0.516   4.722   8.312
16790SOL     OW61997   2.887   4.152  23.432
16790SOL    HW161998   2.825   4.224  23.415
16790SOL    HW261999   2.887   4.101  23.351
16791SOL     OW62000   0.186   1.913   1.879
16791SOL    HW162001   0.226   1.986   1.833
16791SOL    HW262002   0.093   1.937   1.885
16792SOL     OW62003   3.222   1.927  27.868
16792SOL    HW162004   3.277   2.005  27.862
16792SOL    HW262005   3.147   1.955  27.920
16793SOL     OW62006   0.483   3.432  17.763
16793SOL    HW162007   0.481   3.396  17.675
16793SOL    HW262008   0.527   3.516  17.754
16794SOL     OW62009   1.832   2.777  17.866
16794SOL    HW162010   1.758   2.745  17.918
16794SOL    HW262011   1.816   2.871  17.859
16795SOL     OW62012   3.182   0.754   0.729
16795SOL    HW162013   3.192   0.733   0.822
16795SOL    HW262014   3.260   0.716   0.687
16796SOL     OW62015   3.766   1.014  26.546
16796SOL    HW162016   3.800   0.939  26.595
16796SOL    HW262017   3.769   0.985  26.455
16797SOL     OW62018   1.423   3.772  10.076
16797SOL    HW162019   1.477   3.826  10.019
16797SOL    HW262020   1.460   3.785  10.164
16798SOL     OW62021   3.622   2.630  27.941
16798SOL    HW162022   3.533   2.664  27.936
16798SOL    HW262023   3.669   2.676  27.871
16799SOL     OW62024   2.579   2.831  27.453
16799SOL    HW162025   2.657   2.882  27.475
16799SOL    HW262026   2.613   2.752  27.411
16800SOL     OW62027   1.844   2.793   5.202
16800SOL    HW162028   1.760   2.797   5.156
16800SOL    HW262029   1.859   2.882   5.232
16801SOL     OW62030   1.412   3.569   7.112
16801SOL    HW162031   1.469   3.557   7.036
16801SOL    HW262032   1.408   3.482   7.152
16802SOL     OW62033   2.453   2.092  18.226
16802SOL    HW162034   2.481   2.012  18.272
16802SOL    HW262035   2.391   2.133  18.286
16803SOL     OW62036   2.202   4.113   9.515
16803SOL    HW162037   2.227   4.034   9.563
16803SOL    HW262038   2.272   4.125   9.451
16804SOL     OW62039   0.420   0.265   2.231
16804SOL    HW162040   0.331   0.257   2.198
16804SOL    HW262041   0.410   0.286   2.324
16805SOL     OW62042   0.865   0.324   5.363
16805SOL    HW162043   0.901   0.293   5.446
16805SOL    HW262044   0.792   0.380   5.388
16806SOL     OW62045   4.028   0.817   3.920
16806SOL    HW162046   4.047   0.731   3.955
16806SOL    HW262047   3.972   0.859   3.986
16807SOL     OW62048   4.009   4.452  20.050
16807SOL    HW162049   4.084   4.449  20.110
16807SOL    HW262050   3.984   4.545  20.048
16808SOL     OW62051   1.132   2.836  13.266
16808SOL    HW162052   1.196   2.866  13.331
16808SOL    HW262053   1.055   2.814  13.318
16809SOL     OW62054   4.188   3.727  20.365
16809SOL    HW162055   4.125   3.668  20.323
16809SOL    HW262056   4.256   3.741  20.299
16810SOL     OW62057   1.061   4.066   5.146
16810SOL    HW162058   1.146   4.033   5.117
16810SOL    HW262059   0.998   4.005   5.109
16811SOL     OW62060   2.474   3.188  21.067
16811SOL    HW162061   2.460   3.272  21.110
16811SOL    HW262062   2.568   3.172  21.076
16812SOL     OW62063   4.519   0.362   7.656
16812SOL    HW162064   4.498   0.319   7.573
16812SOL    HW262065   4.615   0.360   7.660
16813SOL     OW62066   4.710   3.087  26.280
16813SOL    HW162067   0.013   3.069  26.319
16813SOL    HW262068   4.653   3.019  26.316
16814SOL     OW62069   1.534   2.887   0.745
16814SOL    HW162070   1.447   2.914   0.776
16814SOL    HW262071   1.516   2.823   0.676
16815SOL     OW62072   0.227   2.273  22.121
16815SOL    HW162073   0.204   2.180  22.121
16815SOL    HW262074   0.237   2.295  22.213
16816SOL     OW62075   3.974   3.599  20.238
16816SOL    HW162076   3.908   3.532  20.257
16816SOL    HW262077   3.927   3.682  20.243
16817SOL     OW62078   0.163   4.692   6.910
16817SOL    HW162079   0.173   4.761   6.846
16817SOL    HW262080   0.164   4.611   6.859
16818SOL     OW62081   0.409   1.544  22.506
16818SOL    HW162082   0.488   1.545  22.452
16818SOL    HW262083   0.340   1.578  22.449
16819SOL     OW62084   1.897   3.234   2.263
16819SOL    HW162085   1.920   3.147   2.296
16819SOL    HW262086   1.959   3.250   2.192
16820SOL     OW62087   4.213   2.249  11.765
16820SOL    HW162088   4.123   2.225  11.745
16820SOL    HW262089   4.208   2.296  11.849
16821SOL     OW62090   4.174   1.382   7.860
16821SOL    HW162091   4.118   1.312   7.828
16821SOL    HW262092   4.203   1.428   7.781
16822SOL     OW62093   4.481   0.802  24.556
16822SOL    HW162094   4.397   0.832  24.590
16822SOL    HW262095   4.535   0.881  24.552
16823SOL     OW62096   3.682   1.808  21.475
16823SOL    HW162097   3.720   1.729  21.512
16823SOL    HW262098   3.594   1.783  21.449
16824SOL     OW62099   1.590   2.032   5.760
16824SOL    HW162100   1.612   1.972   5.832
16824SOL    HW262101   1.674   2.070   5.734
16825SOL     OW62102   4.761   3.838  26.696
16825SOL    HW162103   4.692   3.771  26.688
16825SOL    HW262104   4.715   3.921  26.687
16826SOL     OW62105   1.077   4.570  21.147
16826SOL    HW162106   0.995   4.544  21.188
16826SOL    HW262107   1.100   4.496  21.090
16827SOL     OW62108   3.205   1.835  25.664
16827SOL    HW162109   3.135   1.851  25.601
16827SOL    HW262110   3.169   1.862  25.748
16828SOL     OW62111   0.608   3.401  21.354
16828SOL    HW162112   0.610   3.332  21.287
16828SOL    HW262113   0.623   3.482  21.305
16829SOL     OW62114   1.906   0.340   4.438
16829SOL    HW162115   1.976   0.327   4.374
16829SOL    HW262116   1.943   0.402   4.502
16830SOL     OW62117   2.315   4.685   5.509
16830SOL    HW162118   2.265   4.628   5.566
16830SOL    HW262119   2.400   4.693   5.552
16831SOL     OW62120   3.357   2.430   5.119
16831SOL    HW162121   3.338   2.344   5.082
16831SOL    HW262122   3.356   2.416   5.214
16832SOL     OW62123   0.577   1.149   6.597
16832SOL    HW162124   0.581   1.245   6.596
16832SOL    HW262125   0.617   1.123   6.514
16833SOL     OW62126   0.112   3.236  19.899
16833SOL    HW162127   0.204   3.256  19.880
16833SOL    HW262128   0.072   3.223  19.813
16834SOL     OW62129   3.427   2.461   7.141
16834SOL    HW162130   3.438   2.393   7.207
16834SOL    HW262131   3.339   2.445   7.105
16835SOL     OW62132   3.231   4.176  26.896
16835SOL    HW162133   3.169   4.249  26.891
16835SOL    HW262134   3.309   4.212  26.936
16836SOL     OW62135   1.797   2.341  25.472
16836SOL    HW162136   1.853   2.333  25.550
16836SOL    HW262137   1.808   2.433  25.445
16837SOL     OW62138   4.256   0.384   2.402
16837SOL    HW162139   4.168   0.347   2.396
16837SOL    HW262140   4.303   0.347   2.327
16838SOL     OW62141   0.974   3.597  22.345
16838SOL    HW162142   0.946   3.684  22.372
16838SOL    HW262143   1.069   3.603  22.339
16839SOL     OW62144   0.072   2.866   2.911
16839SOL    HW162145   0.038   2.954   2.927
16839SOL    HW262146   0.002   2.821   2.864
16840SOL     OW62147   3.787   4.331   8.378
16840SOL    HW162148   3.852   4.275   8.421
16840SOL    HW262149   3.820   4.342   8.289
16841SOL     OW62150   0.251   1.474  11.494
16841SOL    HW162151   0.330   1.494  11.545
16841SOL    HW262152   0.208   1.558  11.483
16842SOL     OW62153   3.338   4.398   7.615
16842SOL    HW162154   3.414   4.371   7.563
16842SOL    HW262155   3.341   4.343   7.693
16843SOL     OW62156   4.439   0.419  27.004
16843SOL    HW162157   4.433   0.330  26.968
16843SOL    HW262158   4.529   0.446  26.988
16844SOL     OW62159   1.408   2.133  25.471
16844SOL    HW162160   1.352   2.203  25.440
16844SOL    HW262161   1.416   2.148  25.565
16845SOL     OW62162   4.476   0.698  10.168
16845SOL    HW162163   4.475   0.628  10.232
16845SOL    HW262164   4.535   0.763  10.204
16846SOL     OW62165   3.882   2.340   8.701
16846SOL    HW162166   3.863   2.333   8.608
16846SOL    HW262167   3.796   2.342   8.743
16847SOL     OW62168   4.363   0.143  18.827
16847SOL    HW162169   4.376   0.117  18.736
16847SOL    HW262170   4.319   0.228  18.822
16848SOL     OW62171   3.172   4.583  25.846
16848SOL    HW162172   3.261   4.548  25.845
16848SOL    HW262173   3.120   4.516  25.801
16849SOL     OW62174   3.146   1.053  23.450
16849SOL    HW162175   3.231   1.036  23.490
16849SOL    HW262176   3.161   1.129  23.393
16850SOL     OW62177   3.740   2.445  23.416
16850SOL    HW162178   3.736   2.377  23.350
16850SOL    HW262179   3.833   2.453  23.437
16851SOL     OW62180   2.016   4.207   6.667
16851SOL    HW162181   2.089   4.151   6.694
16851SOL    HW262182   1.938   4.154   6.685
16852SOL     OW62183   2.717   1.781   9.134
16852SOL    HW162184   2.811   1.768   9.146
16852SOL    HW262185   2.700   1.753   9.044
16853SOL     OW62186   2.537   1.713   7.092
16853SOL    HW162187   2.625   1.751   7.081
16853SOL    HW262188   2.479   1.788   7.093
16854SOL     OW62189   4.590   3.457  21.447
16854SOL    HW162190   4.616   3.365  21.445
16854SOL    HW262191   4.604   3.484  21.538
16855SOL     OW62192   1.446   3.273  27.464
16855SOL    HW162193   1.375   3.307  27.518
16855SOL    HW262194   1.427   3.306  27.376
16856SOL     OW62195   0.159   4.390  21.026
16856SOL    HW162196   0.106   4.326  21.073
16856SOL    HW262197   0.107   4.412  20.949
16857SOL     OW62198   2.845   0.007  21.299
16857SOL    HW162199   2.813   0.047  21.218
16857SOL    HW262200   2.774   0.021  21.362
16858SOL     OW62201   1.868   1.049  21.946
16858SOL    HW162202   1.858   1.047  21.851
16858SOL    HW262203   1.863   0.957  21.972
16859SOL     OW62204   2.884   3.840   5.318
16859SOL    HW162205   2.933   3.810   5.242
16859SOL    HW262206   2.904   3.933   5.326
16860SOL     OW62207   3.899   3.660  26.096
16860SOL    HW162208   3.819   3.708  26.117
16860SOL    HW262209   3.888   3.575  26.139
16861SOL     OW62210   1.121   0.432   7.442
16861SOL    HW162211   1.025   0.432   7.443
16861SOL    HW262212   1.144   0.352   7.395
16862SOL     OW62213   1.032   1.998   5.528
16862SOL    HW162214   0.993   2.012   5.614
16862SOL    HW262215   1.083   1.918   5.537
16863SOL     OW62216   1.736   3.595   4.147
16863SOL    HW162217   1.781   3.585   4.063
16863SOL    HW262218   1.805   3.587   4.212
16864SOL     OW62219   0.997   2.508  24.309
16864SOL    HW162220   0.916   2.538  24.267
16864SOL    HW262221   1.002   2.415  24.289
16865SOL     OW62222   2.838   0.611   6.293
16865SOL    HW162223   2.874   0.522   6.299
16865SOL    HW262224   2.751   0.604   6.333
16866SOL     OW62225   1.118   0.070   1.865
16866SOL    HW162226   1.180   0.112   1.925
16866SOL    HW262227   1.107   4.764   1.900
16867SOL     OW62228   0.284   4.128   5.235
16867SOL    HW162229   0.320   4.060   5.178
16867SOL    HW262230   0.321   4.108   5.321
16868SOL     OW62231   1.025   3.808  24.054
16868SOL    HW162232   0.944   3.832  24.009
16868SOL    HW262233   1.002   3.812  24.147
16869SOL     OW62234   0.962   0.777   0.915
16869SOL    HW162235   0.938   0.700   0.967
16869SOL    HW262236   1.053   0.760   0.888
16870SOL     OW62237   3.676   0.943  19.778
16870SOL    HW162238   3.594   0.905  19.809
16870SOL    HW262239   3.668   0.940  19.682
16871SOL     OW62240   4.471   1.179  11.004
16871SOL    HW162241   4.477   1.102  11.060
16871SOL    HW262242   4.417   1.240  11.054
16872SOL     OW62243   4.173   4.428   0.044
16872SOL    HW162244   4.247   4.488   0.056
16872SOL    HW262245   4.190   4.357   0.105
16873SOL     OW62246   0.224   0.168  18.590
16873SOL    HW162247   0.261   0.190  18.675
16873SOL    HW262248   0.297   0.178  18.529
16874SOL     OW62249   4.279   0.895  23.719
16874SOL    HW162250   4.332   0.815  23.717
16874SOL    HW262251   4.264   0.916  23.627
16875SOL     OW62252   3.070   3.504  27.958
16875SOL    HW162253   3.071   3.459  28.043
16875SOL    HW262254   3.046   3.436  27.896
16876SOL     OW62255   0.017   2.339   0.697
16876SOL    HW162256   4.747   2.280   0.644
16876SOL    HW262257   0.061   2.282   0.761
16877SOL     OW62258   2.979   3.285  20.613
16877SOL    HW162259   2.928   3.331  20.546
16877SOL    HW262260   3.060   3.336  20.620
16878SOL     OW62261   1.541   4.545  12.296
16878SOL    HW162262   1.535   4.619  12.357
16878SOL    HW262263   1.546   4.468  12.352
16879SOL     OW62264   4.471   2.703   1.615
16879SOL    HW162265   4.474   2.650   1.535
16879SOL    HW262266   4.523   2.781   1.595
16880SOL     OW62267   2.006   1.060   8.438
16880SOL    HW162268   1.967   1.143   8.413
16880SOL    HW262269   2.002   1.059   8.534
16881SOL     OW62270   4.348   2.610  26.394
16881SOL    HW162271   4.257   2.638  26.398
16881SOL    HW262272   4.359   2.577  26.305
16882SOL     OW62273   1.613   2.633  10.625
16882SOL    HW162274   1.607   2.576  10.549
16882SOL    HW262275   1.616   2.574  10.700
16883SOL     OW62276   0.833   4.399   3.306
16883SOL    HW162277   0.865   4.469   3.362
16883SOL    HW262278   0.822   4.324   3.365
16884SOL     OW62279   0.971   4.330  10.415
16884SOL    HW162280   1.045   4.353  10.358
16884SOL    HW262281   0.952   4.411  10.463
16885SOL     OW62282   2.937   3.456  26.005
16885SOL    HW162283   2.964   3.534  26.053
16885SOL    HW262284   2.946   3.480  25.913
16886SOL     OW62285   4.657   4.017   2.553
16886SOL    HW162286   4.677   3.939   2.501
16886SOL    HW262287   4.715   4.011   2.629
16887SOL     OW62288   0.044   2.044   1.442
16887SOL    HW162289   0.115   1.988   1.474
16887SOL    HW262290   4.747   2.007   1.481
16888SOL     OW62291   2.162   3.395   9.781
16888SOL    HW162292   2.090   3.440   9.825
16888SOL    HW262293   2.232   3.459   9.779
16889SOL     OW62294   4.041   0.691   7.537
16889SOL    HW162295   4.034   0.597   7.522
16889SOL    HW262296   3.953   0.717   7.564
16890SOL     OW62297   1.653   4.753  24.930
16890SOL    HW162298   1.737   4.743  24.885
16890SOL    HW262299   1.589   4.720  24.867
16891SOL     OW62300   4.090   4.402  23.582
16891SOL    HW162301   4.040   4.449  23.515
16891SOL    HW262302   4.178   4.439  23.578
16892SOL     OW62303   2.093   2.711  26.047
16892SOL    HW162304   2.059   2.783  25.993
16892SOL    HW262305   2.035   2.709  26.123
16893SOL     OW62306   2.839   1.779  27.241
16893SOL    HW162307   2.905   1.710  27.256
16893SOL    HW262308   2.871   1.853  27.291
16894SOL     OW62309   3.155   0.371  21.582
16894SOL    HW162310   3.182   0.280  21.589
16894SOL    HW262311   3.231   0.421  21.610
16895SOL     OW62312   1.731   1.901  22.784
16895SOL    HW162313   1.758   1.810  22.799
16895SOL    HW262314   1.779   1.927  22.705
16896SOL     OW62315   4.158   0.788  23.464
16896SOL    HW162316   4.211   0.709  23.468
16896SOL    HW262317   4.071   0.758  23.436
16897SOL     OW62318   3.676   0.579  27.195
16897SOL    HW162319   3.729   0.519  27.248
16897SOL    HW262320   3.698   0.557  27.105
16898SOL     OW62321   2.165   3.370  17.473
16898SOL    HW162322   2.160   3.416  17.389
16898SOL    HW262323   2.257   3.344  17.480
16899SOL     OW62324   0.526   3.314   3.404
16899SOL    HW162325   0.602   3.372   3.399
16899SOL    HW262326   0.469   3.355   3.469
16900SOL     OW62327   1.716   2.720  19.906
16900SOL    HW162328   1.719   2.783  19.978
16900SOL    HW262329   1.795   2.666  19.918
16901SOL     OW62330   3.668   0.776   0.564
16901SOL    HW162331   3.733   0.843   0.540
16901SOL    HW262332   3.586   0.808   0.526
16902SOL     OW62333   1.271   1.921   1.443
16902SOL    HW162334   1.239   1.866   1.372
16902SOL    HW262335   1.284   1.860   1.516
16903SOL     OW62336   3.024   3.484   5.119
16903SOL    HW162337   2.967   3.467   5.044
16903SOL    HW262338   3.024   3.579   5.128
16904SOL     OW62339   0.361   0.472  26.196
16904SOL    HW162340   0.371   0.377  26.198
16904SOL    HW262341   0.310   0.489  26.116
16905SOL     OW62342   3.082   0.121   2.253
16905SOL    HW162343   3.020   0.084   2.191
16905SOL    HW262344   3.111   0.047   2.306
16906SOL     OW62345   4.603   3.635   2.925
16906SOL    HW162346   4.620   3.677   3.009
16906SOL    HW262347   4.546   3.561   2.947
16907SOL     OW62348   1.183   1.391   2.748
16907SOL    HW162349   1.264   1.383   2.698
16907SOL    HW262350   1.187   1.319   2.811
16908SOL     OW62351   0.592   1.201  10.065
16908SOL    HW162352   0.603   1.208   9.970
16908SOL    HW262353   0.668   1.247  10.102
16909SOL     OW62354   2.584   4.453  18.602
16909SOL    HW162355   2.608   4.403  18.679
16909SOL    HW262356   2.495   4.425  18.581
16910SOL     OW62357   3.324   3.635  21.204
16910SOL    HW162358   3.264   3.707  21.219
16910SOL    HW262359   3.388   3.669  21.141
16911SOL     OW62360   0.664   2.934  26.314
16911SOL    HW162361   0.577   2.901  26.337
16911SOL    HW262362   0.716   2.921  26.393
16912SOL     OW62363   2.313   3.288  20.329
16912SOL    HW162364   2.319   3.272  20.424
16912SOL    HW262365   2.219   3.296  20.312
16913SOL     OW62366   3.257   1.428  23.660
16913SOL    HW162367   3.203   1.358  23.697
16913SOL    HW262368   3.321   1.382  23.605
16914SOL     OW62369   3.038   1.316   7.236
16914SOL    HW162370   3.020   1.256   7.308
16914SOL    HW262371   3.115   1.365   7.264
16915SOL     OW62372   2.824   0.737  11.409
16915SOL    HW162373   2.894   0.776  11.357
16915SOL    HW262374   2.827   0.784  11.492
16916SOL     OW62375   3.650   2.211  21.325
16916SOL    HW162376   3.698   2.183  21.403
16916SOL    HW262377   3.565   2.241  21.358
16917SOL     OW62378   0.106   3.633  25.515
16917SOL    HW162379   0.069   3.552  25.551
16917SOL    HW262380   0.033   3.695  25.517
16918SOL     OW62381   4.375   1.865  24.455
16918SOL    HW162382   4.368   1.954  24.488
16918SOL    HW262383   4.294   1.822  24.485
16919SOL     OW62384   0.825   1.269   7.237
16919SOL    HW162385   0.773   1.327   7.293
16919SOL    HW262386   0.912   1.268   7.277
16920SOL     OW62387   4.642   3.534  21.715
16920SOL    HW162388   4.560   3.564  21.754
16920SOL    HW262389   4.695   3.505  21.789
16921SOL     OW62390   4.353   1.210   0.884
16921SOL    HW162391   4.280   1.195   0.824
16921SOL    HW262392   4.402   1.128   0.884
16922SOL     OW62393   0.395   4.079  24.502
16922SOL    HW162394   0.398   3.984  24.515
16922SOL    HW262395   0.382   4.114  24.590
16923SOL     OW62396   3.063   2.893  27.256
16923SOL    HW162397   3.144   2.852  27.225
16923SOL    HW262398   3.002   2.883  27.183
16924SOL     OW62399   4.147   4.171  18.708
16924SOL    HW162400   4.174   4.100  18.766
16924SOL    HW262401   4.227   4.223  18.694
16925SOL     OW62402   0.375   3.444  23.906
16925SOL    HW162403   0.396   3.355  23.879
16925SOL    HW262404   0.339   3.485  23.827
16926SOL     OW62405   1.684   0.838  20.902
16926SOL    HW162406   1.774   0.864  20.880
16926SOL    HW262407   1.669   0.759  20.850
16927SOL     OW62408   2.884   3.061   9.825
16927SOL    HW162409   2.814   3.123   9.804
16927SOL    HW262410   2.851   3.012   9.901
16928SOL     OW62411   1.315   3.274   8.442
16928SOL    HW162412   1.316   3.369   8.448
16928SOL    HW262413   1.403   3.250   8.414
16929SOL     OW62414   2.295   2.595  27.935
16929SOL    HW162415   2.220   2.567  27.988
16929SOL    HW262416   2.349   2.516  27.927
16930SOL     OW62417   4.026   2.239  12.022
16930SOL    HW162418   4.048   2.307  12.087
16930SOL    HW262419   4.105   2.185  12.018
16931SOL     OW62420   1.775   2.562   8.669
16931SOL    HW162421   1.728   2.587   8.748
16931SOL    HW262422   1.861   2.535   8.699
16932SOL     OW62423   2.114   3.316   5.567
16932SOL    HW162424   2.083   3.228   5.588
16932SOL    HW262425   2.146   3.310   5.477
16933SOL     OW62426   0.424   2.445  24.308
16933SOL    HW162427   0.355   2.388  24.273
16933SOL    HW262428   0.397   2.463  24.398
16934SOL     OW62429   2.796   3.749  22.545
16934SOL    HW162430   2.877   3.736  22.496
16934SOL    HW262431   2.781   3.843  22.542
16935SOL     OW62432   1.501   4.513   1.232
16935SOL    HW162433   1.581   4.469   1.203
16935SOL    HW262434   1.457   4.450   1.288
16936SOL     OW62435   3.013   3.326  27.311
16936SOL    HW162436   3.041   3.398  27.254
16936SOL    HW262437   3.038   3.354  27.399
16937SOL     OW62438   2.534   0.698  23.109
16937SOL    HW162439   2.609   0.684  23.166
16937SOL    HW262440   2.562   0.767  23.048
16938SOL     OW62441   3.611   2.265   4.929
16938SOL    HW162442   3.523   2.231   4.948
16938SOL    HW262443   3.595   2.350   4.888
16939SOL     OW62444   3.351   0.011   4.113
16939SOL    HW162445   3.273   0.067   4.109
16939SOL    HW262446   3.367   4.782   4.207
16940SOL     OW62447   0.085   4.092  21.901
16940SOL    HW162448   0.159   4.148  21.878
16940SOL    HW262449   0.080   4.028  21.829
16941SOL     OW62450   3.313   3.739  22.022
16941SOL    HW162451   3.292   3.686  22.099
16941SOL    HW262452   3.382   3.798  22.051
16942SOL     OW62453   2.665   2.910  11.108
16942SOL    HW162454   2.754   2.928  11.078
16942SOL    HW262455   2.676   2.844  11.176
16943SOL     OW62456   0.967   3.409   0.696
16943SOL    HW162457   1.009   3.454   0.622
16943SOL    HW262458   0.883   3.380   0.662
16944SOL     OW62459   0.094   0.132   9.220
16944SOL    HW162460   0.087   0.196   9.149
16944SOL    HW262461   0.109   0.049   9.176
16945SOL     OW62462   1.323   1.008  11.017
16945SOL    HW162463   1.251   1.021  11.079
16945SOL    HW262464   1.383   1.080  11.035
16946SOL     OW62465   2.622   2.315   1.101
16946SOL    HW162466   2.531   2.285   1.106
16946SOL    HW262467   2.673   2.234   1.099
16947SOL     OW62468   1.787   2.134   3.517
16947SOL    HW162469   1.820   2.047   3.496
16947SOL    HW262470   1.857   2.193   3.489
16948SOL     OW62471   1.576   3.938   9.891
16948SOL    HW162472   1.616   4.022   9.916
16948SOL    HW262473   1.565   3.944   9.797
16949SOL     OW62474   2.034   0.240   9.057
16949SOL    HW162475   1.947   0.239   9.018
16949SOL    HW262476   2.031   0.312   9.120
16950SOL     OW62477   2.893   1.311   8.399
16950SOL    HW162478   2.918   1.314   8.492
16950SOL    HW262479   2.959   1.254   8.358
16951SOL     OW62480   4.455   3.148  25.920
16951SOL    HW162481   4.443   3.243  25.912
16951SOL    HW262482   4.418   3.126  26.005
16952SOL     OW62483   2.719   1.074  20.058
16952SOL    HW162484   2.685   1.064  20.147
16952SOL    HW262485   2.642   1.073  20.002
16953SOL     OW62486   3.731   3.521  18.481
16953SOL    HW162487   3.806   3.478  18.440
16953SOL    HW262488   3.676   3.449  18.512
16954SOL     OW62489   1.961   4.717  26.249
16954SOL    HW162490   1.999   4.675  26.326
16954SOL    HW262491   1.973   4.653  26.178
16955SOL     OW62492   0.295   1.238  26.367
16955SOL    HW162493   0.376   1.287  26.356
16955SOL    HW262494   0.244   1.290  26.431
16956SOL     OW62495   0.031   3.223  25.010
16956SOL    HW162496   4.771   3.296  25.054
16956SOL    HW262497   0.061   3.260  24.926
16957SOL     OW62498   2.757   4.458  27.227
16957SOL    HW162499   2.736   4.399  27.299
16957SOL    HW262500   2.676   4.506  27.211
16958SOL     OW62501   3.020   0.031  11.281
16958SOL    HW162502   2.926   0.012  11.290
16958SOL    HW262503   3.064   4.736  11.316
16959SOL     OW62504   2.831   2.209   5.165
16959SOL    HW162505   2.765   2.277   5.179
16959SOL    HW262506   2.785   2.141   5.116
16960SOL     OW62507   3.643   1.108  28.421
16960SOL    HW162508   3.612   1.192  28.388
16960SOL    HW262509   3.685   1.066  28.346
16961SOL     OW62510   0.537   2.028   6.227
16961SOL    HW162511   0.573   2.031   6.316
16961SOL    HW262512   0.471   1.958   6.231
16962SOL     OW62513   3.705   3.565   2.238
16962SOL    HW162514   3.707   3.532   2.148
16962SOL    HW262515   3.733   3.656   2.230
16963SOL     OW62516   0.516   0.536  18.326
16963SOL    HW162517   0.444   0.597  18.343
16963SOL    HW262518   0.533   0.545  18.232
16964SOL     OW62519   2.569   4.176  19.887
16964SOL    HW162520   2.637   4.147  19.827
16964SOL    HW262521   2.540   4.097  19.933
16965SOL     OW62522   4.775   3.207   7.124
16965SOL    HW162523   4.779   3.257   7.206
16965SOL    HW262524   0.042   3.127   7.143
16966SOL     OW62525   3.543   4.095   0.075
16966SOL    HW162526   3.625   4.144   0.076
16966SOL    HW262527   3.479   4.153   0.116
16967SOL     OW62528   0.268   2.195  21.706
16967SOL    HW162529   0.354   2.161  21.732
16967SOL    HW262530   0.206   2.130  21.739
16968SOL     OW62531   4.738   2.988   1.562
16968SOL    HW162532   4.782   2.909   1.532
16968SOL    HW262533   4.668   3.003   1.499
16969SOL     OW62534   3.553   1.195  20.273
16969SOL    HW162535   3.596   1.116  20.305
16969SOL    HW262536   3.624   1.252  20.246
16970SOL     OW62537   1.069   2.648  26.123
16970SOL    HW162538   1.046   2.713  26.190
16970SOL    HW262539   0.993   2.647  26.065
16971SOL     OW62540   2.268   0.106  24.721
16971SOL    HW162541   2.217   0.135  24.646
16971SOL    HW262542   2.275   0.183  24.777
16972SOL     OW62543   1.879   0.638  11.384
16972SOL    HW162544   1.843   0.708  11.439
16972SOL    HW262545   1.927   0.582  11.444
16973SOL     OW62546   1.760   4.511   1.140
16973SOL    HW162547   1.777   4.573   1.070
16973SOL    HW262548   1.806   4.547   1.216
16974SOL     OW62549   3.077   4.197  20.207
16974SOL    HW162550   3.041   4.109  20.216
16974SOL    HW262551   3.068   4.217  20.114
16975SOL     OW62552   4.292   2.958  27.142
16975SOL    HW162553   4.264   3.001  27.061
16975SOL    HW262554   4.252   2.871  27.137
16976SOL     OW62555   4.264   2.513  18.897
16976SOL    HW162556   4.195   2.580  18.894
16976SOL    HW262557   4.250   2.460  18.819
16977SOL     OW62558   4.311   4.711  24.299
16977SOL    HW162559   4.283   4.751  24.217
16977SOL    HW262560   4.315   0.002  24.361
16978SOL     OW62561   1.871   3.462  27.955
16978SOL    HW162562   1.822   3.493  27.879
16978SOL    HW262563   1.890   3.542  28.005
16979SOL     OW62564   1.041   2.047  25.488
16979SOL    HW162565   1.066   2.065  25.579
16979SOL    HW262566   1.052   2.130  25.443
16980SOL     OW62567   4.376   0.728   5.763
16980SOL    HW162568   4.353   0.660   5.699
16980SOL    HW262569   4.411   0.679   5.837
16981SOL     OW62570   0.014   1.394   9.188
16981SOL    HW162571   0.001   1.336   9.263
16981SOL    HW262572   0.002   1.482   9.223
16982SOL     OW62573   2.032   1.135  20.281
16982SOL    HW162574   2.026   1.228  20.300
16982SOL    HW262575   1.964   1.120  20.215
16983SOL     OW62576   1.152   0.699   0.541
16983SOL    HW162577   1.108   0.617   0.563
16983SOL    HW262578   1.190   0.683   0.454
16984SOL     OW62579   2.063   2.094  22.085
16984SOL    HW162580   2.155   2.068  22.092
16984SOL    HW262581   2.021   2.020  22.040
16985SOL     OW62582   3.780   0.772   7.557
16985SOL    HW162583   3.750   0.858   7.585
16985SOL    HW262584   3.703   0.715   7.564
16986SOL     OW62585   1.157   4.250   8.488
16986SOL    HW162586   1.172   4.157   8.475
16986SOL    HW262587   1.227   4.293   8.438
16987SOL     OW62588   3.346   3.870   6.462
16987SOL    HW162589   3.255   3.901   6.459
16987SOL    HW262590   3.340   3.783   6.502
16988SOL     OW62591   0.270   1.793   8.840
16988SOL    HW162592   0.212   1.720   8.816
16988SOL    HW262593   0.276   1.846   8.761
16989SOL     OW62594   4.681   1.559   2.879
16989SOL    HW162595   4.603   1.532   2.928
16989SOL    HW262596   4.682   1.655   2.888
16990SOL     OW62597   4.056   0.674   3.076
16990SOL    HW162598   4.011   0.650   2.995
16990SOL    HW262599   4.035   0.604   3.137
16991SOL     OW62600   1.012   1.209  18.576
16991SOL    HW162601   1.007   1.114  18.568
16991SOL    HW262602   1.047   1.238  18.491
16992SOL     OW62603   3.717   2.786  17.446
16992SOL    HW162604   3.680   2.870  17.416
16992SOL    HW262605   3.793   2.811  17.498
16993SOL     OW62606   2.954   2.402  18.636
16993SOL    HW162607   2.990   2.393  18.724
16993SOL    HW262608   2.941   2.496  18.624
16994SOL     OW62609   3.765   2.597   8.154
16994SOL    HW162610   3.688   2.641   8.117
16994SOL    HW262611   3.740   2.505   8.157
16995SOL     OW62612   2.167   2.317   4.761
16995SOL    HW162613   2.119   2.399   4.750
16995SOL    HW262614   2.168   2.302   4.856
16996SOL     OW62615   1.054   0.222  20.277
16996SOL    HW162616   1.127   0.261  20.326
16996SOL    HW262617   1.096   0.163  20.214
16997SOL     OW62618   2.174   4.022  18.859
16997SOL    HW162619   2.265   4.042  18.879
16997SOL    HW262620   2.179   3.949  18.796
16998SOL     OW62621   1.286   2.613  27.767
16998SOL    HW162622   1.357   2.549  27.756
16998SOL    HW262623   1.206   2.566  27.744
16999SOL     OW62624   0.258   4.413  27.547
16999SOL    HW162625   0.272   4.364  27.465
16999SOL    HW262626   0.173   4.455  27.535
17000SOL     OW62627   4.183   1.040  24.023
17000SOL    HW162628   4.273   1.010  24.012
17000SOL    HW262629   4.136   1.005  23.948
17001SOL     OW62630   2.038   4.150  28.081
17001SOL    HW162631   1.989   4.181  28.157
17001SOL    HW262632   2.087   4.226  28.051
17002SOL     OW62633   2.803   3.887   4.202
17002SOL    HW162634   2.851   3.854   4.278
17002SOL    HW262635   2.726   3.929   4.239
17003SOL     OW62636   0.497   2.677   2.970
17003SOL    HW162637   0.554   2.605   2.998
17003SOL    HW262638   0.473   2.655   2.880
17004SOL     OW62639   2.638   2.873  25.297
17004SOL    HW162640   2.729   2.855  25.320
17004SOL    HW262641   2.597   2.787  25.290
17005SOL     OW62642   2.131   2.762  19.749
17005SOL    HW162643   2.113   2.820  19.823
17005SOL    HW262644   2.200   2.807  19.700
17006SOL     OW62645   2.548   1.767   6.088
17006SOL    HW162646   2.575   1.687   6.134
17006SOL    HW262647   2.601   1.837   6.128
17007SOL     OW62648   0.518   2.725   8.185
17007SOL    HW162649   0.555   2.697   8.269
17007SOL    HW262650   0.517   2.645   8.132
17008SOL     OW62651   1.206   2.226  27.582
17008SOL    HW162652   1.161   2.229  27.497
17008SOL    HW262653   1.268   2.154  27.574
17009SOL     OW62654   1.789   4.042  27.981
17009SOL    HW162655   1.864   4.064  28.036
17009SOL    HW262656   1.819   4.057  27.891
17010SOL     OW62657   2.306   1.705  19.314
17010SOL    HW162658   2.345   1.785  19.349
17010SOL    HW262659   2.379   1.659  19.273
17011SOL     OW62660   4.664   1.354  25.793
17011SOL    HW162661   4.618   1.420  25.741
17011SOL    HW262662   4.756   1.376  25.783
17012SOL     OW62663   4.078   3.464   6.170
17012SOL    HW162664   4.128   3.535   6.212
17012SOL    HW262665   3.987   3.486   6.187
17013SOL     OW62666   2.464   1.882   1.008
17013SOL    HW162667   2.417   1.800   1.019
17013SOL    HW262668   2.547   1.868   1.054
17014SOL     OW62669   0.560   0.191  10.296
17014SOL    HW162670   0.572   0.243  10.216
17014SOL    HW262671   0.594   0.246  10.366
17015SOL     OW62672   2.146   2.926   6.809
17015SOL    HW162673   2.088   2.934   6.734
17015SOL    HW262674   2.159   3.015   6.840
17016SOL     OW62675   4.760   4.452  22.603
17016SOL    HW162676   4.682   4.497  22.568
17016SOL    HW262677   0.004   4.505  22.678
17017SOL     OW62678   1.460   2.393   2.856
17017SOL    HW162679   1.499   2.446   2.926
17017SOL    HW262680   1.425   2.316   2.901
17018SOL     OW62681   3.238   2.009   2.309
17018SOL    HW162682   3.232   1.969   2.395
17018SOL    HW262683   3.321   2.056   2.309
17019SOL     OW62684   3.195   3.123  20.913
17019SOL    HW162685   3.191   3.212  20.948
17019SOL    HW262686   3.174   3.133  20.820
17020SOL     OW62687   3.414   1.279  26.623
17020SOL    HW162688   3.453   1.257  26.539
17020SOL    HW262689   3.415   1.374  26.626
17021SOL     OW62690   4.721   4.681  20.807
17021SOL    HW162691   0.016   4.721  20.768
17021SOL    HW262692   4.648   4.735  20.776
17022SOL     OW62693   0.060   4.607  27.736
17022SOL    HW162694   0.094   4.691  27.764
17022SOL    HW262695   0.043   4.559  27.817
17023SOL     OW62696   1.560   4.581   9.878
17023SOL    HW162697   1.644   4.580   9.924
17023SOL    HW262698   1.582   4.563   9.787
17024SOL     OW62699   4.312   0.886   0.698
17024SOL    HW162700   4.390   0.931   0.667
17024SOL    HW262701   4.317   0.799   0.658
17025SOL     OW62702   2.846   3.077   2.717
17025SOL    HW162703   2.912   3.085   2.648
17025SOL    HW262704   2.791   3.155   2.705
17026SOL     OW62705   3.649   0.137  25.335
17026SOL    HW162706   3.644   0.159  25.428
17026SOL    HW262707   3.740   0.112  25.322
17027SOL     OW62708   2.735   2.399  25.036
17027SOL    HW162709   2.703   2.488  25.022
17027SOL    HW262710   2.683   2.366  25.109
17028SOL     OW62711   1.081   1.590   0.551
17028SOL    HW162712   1.038   1.613   0.633
17028SOL    HW262713   1.073   1.494   0.546
17029SOL     OW62714   3.589   4.630  19.949
17029SOL    HW162715   3.638   4.620  19.867
17029SOL    HW262716   3.634   4.700  19.996
17030SOL     OW62717   3.624   4.013  26.870
17030SOL    HW162718   3.617   3.925  26.906
17030SOL    HW262719   3.552   4.019  26.807
17031SOL     OW62720   1.359   0.819  28.172
17031SOL    HW162721   1.414   0.841  28.097
17031SOL    HW262722   1.335   0.728  28.158
17032SOL     OW62723   1.623   2.008   2.545
17032SOL    HW162724   1.573   2.045   2.472
17032SOL    HW262725   1.711   2.045   2.535
17033SOL     OW62726   3.690   1.032  21.677
17033SOL    HW162727   3.660   0.991  21.595
17033SOL    HW262728   3.610   1.067  21.717
17034SOL     OW62729   4.605   0.265   4.871
17034SOL    HW162730   4.635   0.351   4.900
17034SOL    HW262731   4.509   0.271   4.874
17035SOL     OW62732   1.418   3.930  22.600
17035SOL    HW162733   1.408   3.835  22.599
17035SOL    HW262734   1.408   3.956  22.508
17036SOL     OW62735   1.201   3.290   9.007
17036SOL    HW162736   1.219   3.274   9.099
17036SOL    HW262737   1.286   3.307   8.968
17037SOL     OW62738   3.318   0.480   7.279
17037SOL    HW162739   3.273   0.419   7.221
17037SOL    HW262740   3.273   0.470   7.363
17038SOL     OW62741   3.392   4.693   2.187
17038SOL    HW162742   3.347   4.763   2.138
17038SOL    HW262743   3.396   4.725   2.277
17039SOL     OW62744   0.286   2.776  27.960
17039SOL    HW162745   0.376   2.766  27.931
17039SOL    HW262746   0.264   2.867  27.939
17040SOL     OW62747   1.633   3.802   8.756
17040SOL    HW162748   1.716   3.816   8.803
17040SOL    HW262749   1.620   3.882   8.706
17041SOL     OW62750   1.896   2.739   8.502
17041SOL    HW162751   1.948   2.697   8.433
17041SOL    HW262752   1.831   2.673   8.527
17042SOL     OW62753   3.530   4.207   4.181
17042SOL    HW162754   3.437   4.185   4.180
17042SOL    HW262755   3.537   4.275   4.249
17043SOL     OW62756   2.312   2.619  25.001
17043SOL    HW162757   2.296   2.695  24.946
17043SOL    HW262758   2.388   2.576  24.961
17044SOL     OW62759   3.101   4.366  11.034
17044SOL    HW162760   3.113   4.272  11.020
17044SOL    HW262761   3.182   4.405  11.002
17045SOL     OW62762   0.005   1.003   5.861
17045SOL    HW162763   4.748   0.958   5.935
17045SOL    HW262764   0.030   1.089   5.895
17046SOL     OW62765   2.154   3.135  21.601
17046SOL    HW162766   2.244   3.158  21.576
17046SOL    HW262767   2.161   3.108  21.692
17047SOL     OW62768   3.494   3.147  21.523
17047SOL    HW162769   3.463   3.146  21.432
17047SOL    HW262770   3.438   3.084  21.568
17048SOL     OW62771   0.548   2.988  23.955
17048SOL    HW162772   0.580   2.967  23.867
17048SOL    HW262773   0.517   2.905  23.990
17049SOL     OW62774   2.257   0.584   6.350
17049SOL    HW162775   2.233   0.555   6.262
17049SOL    HW262776   2.256   0.679   6.345
17050SOL     OW62777   1.114   4.437  20.080
17050SOL    HW162778   1.103   4.490  20.159
17050SOL    HW262779   1.200   4.396  20.090
17051SOL     OW62780   2.924   3.789  20.769
17051SOL    HW162781   2.851   3.822  20.715
17051SOL    HW262782   3.002   3.829  20.731
17052SOL     OW62783   1.219   2.760   0.519
17052SOL    HW162784   1.153   2.785   0.584
17052SOL    HW262785   1.223   2.834   0.459
17053SOL     OW62786   1.700   0.777  24.395
17053SOL    HW162787   1.746   0.700  24.362
17053SOL    HW262788   1.646   0.744  24.467
17054SOL     OW62789   1.922   4.355   9.842
17054SOL    HW162790   1.939   4.399   9.759
17054SOL    HW262791   1.998   4.297   9.854
17055SOL     OW62792   1.529   4.296   1.933
17055SOL    HW162793   1.509   4.228   1.998
17055SOL    HW262794   1.537   4.249   1.851
17056SOL     OW62795   1.728   2.934  25.676
17056SOL    HW162796   1.686   3.007  25.630
17056SOL    HW262797   1.745   2.869  25.607
17057SOL     OW62798   3.897   0.875  21.376
17057SOL    HW162799   3.928   0.938  21.311
17057SOL    HW262800   3.920   0.790  21.339
17058SOL     OW62801   0.564   2.025   2.857
17058SOL    HW162802   0.586   1.933   2.845
17058SOL    HW262803   0.586   2.065   2.773
17059SOL     OW62804   1.879   0.971  25.383
17059SOL    HW162805   1.868   1.003  25.472
17059SOL    HW262806   1.950   0.907  25.389
17060SOL     OW62807   4.494   3.099   8.468
17060SOL    HW162808   4.436   3.174   8.461
17060SOL    HW262809   4.487   3.055   8.384
17061SOL     OW62810   3.630   1.696   9.181
17061SOL    HW162811   3.572   1.634   9.138
17061SOL    HW262812   3.628   1.671   9.274
17062SOL     OW62813   4.690   2.291   3.724
17062SOL    HW162814   4.758   2.341   3.770
17062SOL    HW262815   4.673   2.341   3.644
17063SOL     OW62816   3.284   4.694   8.800
17063SOL    HW162817   3.285   4.712   8.894
17063SOL    HW262818   3.225   4.760   8.763
17064SOL     OW62819   0.954   3.899   0.556
17064SOL    HW162820   0.864   3.891   0.526
17064SOL    HW262821   0.971   3.816   0.601
17065SOL     OW62822   1.658   3.827   5.863
17065SOL    HW162823   1.646   3.790   5.950
17065SOL    HW262824   1.599   3.777   5.807
17066SOL     OW62825   4.160   1.850  16.971
17066SOL    HW162826   4.167   1.764  16.931
17066SOL    HW262827   4.152   1.911  16.897
17067SOL     OW62828   1.904   1.161   1.934
17067SOL    HW162829   1.920   1.084   1.988
17067SOL    HW262830   1.991   1.197   1.919
17068SOL     OW62831   2.795   0.832  10.206
17068SOL    HW162832   2.767   0.880  10.129
17068SOL    HW262833   2.754   0.877  10.280
17069SOL     OW62834   0.610   4.317  25.049
17069SOL    HW162835   0.537   4.281  25.099
17069SOL    HW262836   0.651   4.380  25.109
17070SOL     OW62837   4.424   4.440  21.885
17070SOL    HW162838   4.379   4.369  21.838
17070SOL    HW262839   4.451   4.500  21.816
17071SOL     OW62840   2.029   1.027   5.826
17071SOL    HW162841   1.987   1.109   5.852
17071SOL    HW262842   1.985   1.002   5.745
17072SOL     OW62843   0.614   0.424  28.174
17072SOL    HW162844   0.606   0.330  28.164
17072SOL    HW262845   0.651   0.437  28.261
17073SOL     OW62846   4.031   4.511  27.535
17073SOL    HW162847   3.988   4.493  27.452
17073SOL    HW262848   4.017   4.605  27.550
17074SOL     OW62849   4.590   2.000  26.410
17074SOL    HW162850   4.533   2.062  26.456
17074SOL    HW262851   4.637   2.055  26.347
17075SOL     OW62852   4.252   3.030   2.858
17075SOL    HW162853   4.162   3.023   2.889
17075SOL    HW262854   4.249   3.098   2.791
17076SOL     OW62855   1.866   2.264  27.302
17076SOL    HW162856   1.839   2.355  27.289
17076SOL    HW262857   1.846   2.220  27.220
17077SOL     OW62858   1.111   0.041  26.275
17077SOL    HW162859   1.016   0.056  26.281
17077SOL    HW262860   1.137   0.084  26.193
17078SOL     OW62861   2.027   1.273   7.593
17078SOL    HW162862   2.045   1.301   7.503
17078SOL    HW262863   2.075   1.336   7.647
17079SOL     OW62864   2.472   2.969  23.899
17079SOL    HW162865   2.442   2.983  23.810
17079SOL    HW262866   2.536   2.897  23.892
17080SOL     OW62867   3.624   3.914  27.387
17080SOL    HW162868   3.642   4.008  27.399
17080SOL    HW262869   3.530   3.906  27.401
17081SOL     OW62870   2.530   2.334   3.704
17081SOL    HW162871   2.615   2.312   3.740
17081SOL    HW262872   2.467   2.290   3.760
17082SOL     OW62873   4.174   3.625   7.615
17082SOL    HW162874   4.230   3.701   7.602
17082SOL    HW262875   4.219   3.572   7.680
17083SOL     OW62876   0.503   4.132   7.769
17083SOL    HW162877   0.464   4.205   7.722
17083SOL    HW262878   0.478   4.146   7.860
17084SOL     OW62879   4.016   2.733   5.563
17084SOL    HW162880   4.073   2.661   5.589
17084SOL    HW262881   3.936   2.690   5.532
17085SOL     OW62882   3.181   4.602  11.853
17085SOL    HW162883   3.250   4.667  11.837
17085SOL    HW262884   3.123   4.610  11.777
17086SOL     OW62885   3.110   1.381  28.152
17086SOL    HW162886   3.099   1.426  28.067
17086SOL    HW262887   3.204   1.371  28.162
17087SOL     OW62888   4.435   1.497  27.495
17087SOL    HW162889   4.346   1.486  27.460
17087SOL    HW262890   4.485   1.425  27.455
17088SOL     OW62891   2.072   0.809   8.348
17088SOL    HW162892   2.045   0.895   8.380
17088SOL    HW262893   2.040   0.747   8.413
17089SOL     OW62894   0.816   3.464  19.882
17089SOL    HW162895   0.778   3.496  19.800
17089SOL    HW262896   0.841   3.543  19.930
17090SOL     OW62897   3.909   2.888   8.049
17090SOL    HW162898   3.980   2.952   8.046
17090SOL    HW262899   3.831   2.940   8.072
17091SOL     OW62900   1.309   0.834   8.163
17091SOL    HW162901   1.219   0.867   8.157
17091SOL    HW262902   1.360   0.895   8.110
17092SOL     OW62903   1.548   0.180  22.232
17092SOL    HW162904   1.476   0.135  22.274
17092SOL    HW262905   1.533   0.273  22.250
17093SOL     OW62906   2.666   3.663  20.434
17093SOL    HW162907   2.679   3.674  20.340
17093SOL    HW262908   2.670   3.751  20.470
17094SOL     OW62909   3.839   1.744  10.847
17094SOL    HW162910   3.790   1.826  10.840
17094SOL    HW262911   3.931   1.772  10.843
17095SOL     OW62912   0.645   3.770   5.838
17095SOL    HW162913   0.715   3.735   5.782
17095SOL    HW262914   0.642   3.710   5.912
17096SOL     OW62915   0.873   0.692   5.943
17096SOL    HW162916   0.922   0.760   5.989
17096SOL    HW262917   0.864   0.622   6.007
17097SOL     OW62918   0.527   0.045  24.808
17097SOL    HW162919   0.603   0.095  24.837
17097SOL    HW262920   0.541   4.740  24.846
17098SOL     OW62921   2.493   2.624  25.305
17098SOL    HW162922   2.543   2.548  25.333
17098SOL    HW262923   2.458   2.601  25.220
17099SOL     OW62924   2.364   3.034  20.021
17099SOL    HW162925   2.280   2.992  20.040
17099SOL    HW262926   2.420   3.008  20.094
17100SOL     OW62927   3.510   0.442   6.985
17100SOL    HW162928   3.494   0.464   7.077
17100SOL    HW262929   3.529   0.348   6.986
17101SOL     OW62930   4.414   3.559   0.674
17101SOL    HW162931   4.459   3.480   0.644
17101SOL    HW262932   4.374   3.533   0.757
17102SOL     OW62933   1.062   2.386  22.915
17102SOL    HW162934   1.118   2.390  22.993
17102SOL    HW262935   1.117   2.420  22.844
17103SOL     OW62936   1.674   2.416  22.366
17103SOL    HW162937   1.580   2.430  22.355
17103SOL    HW262938   1.711   2.435  22.280
17104SOL     OW62939   0.399   4.500  24.340
17104SOL    HW162940   0.332   4.563  24.367
17104SOL    HW262941   0.357   4.447  24.273
17105SOL     OW62942   3.284   2.481  20.809
17105SOL    HW162943   3.321   2.476  20.721
17105SOL    HW262944   3.359   2.464  20.867
17106SOL     OW62945   3.546   1.472  26.990
17106SOL    HW162946   3.502   1.555  27.006
17106SOL    HW262947   3.637   1.489  27.012
17107SOL     OW62948   2.232   4.209   3.655
17107SOL    HW162949   2.141   4.209   3.627
17107SOL    HW262950   2.235   4.267   3.730
17108SOL     OW62951   1.341   1.934   9.294
17108SOL    HW162952   1.399   2.010   9.298
17108SOL    HW262953   1.314   1.929   9.202
17109SOL     OW62954   3.768   4.161  22.121
17109SOL    HW162955   3.802   4.164  22.031
17109SOL    HW262956   3.842   4.128  22.173
17110SOL     OW62957   0.523   4.695  10.082
17110SOL    HW162958   0.613   4.705  10.114
17110SOL    HW262959   0.481   4.641  10.148
17111SOL     OW62960   0.453   1.939   4.434
17111SOL    HW162961   0.441   1.874   4.503
17111SOL    HW262962   0.365   1.962   4.406
17112SOL     OW62963   4.231   0.743   7.375
17112SOL    HW162964   4.274   0.657   7.369
17112SOL    HW262965   4.154   0.727   7.429
17113SOL     OW62966   0.768   4.104   3.746
17113SOL    HW162967   0.686   4.072   3.709
17113SOL    HW262968   0.811   4.025   3.780
17114SOL     OW62969   0.037   0.875  24.860
17114SOL    HW162970   4.767   0.940  24.813
17114SOL    HW262971   0.079   0.824  24.790
17115SOL     OW62972   2.529   3.006   9.909
17115SOL    HW162973   2.559   3.089   9.870
17115SOL    HW262974   2.561   3.010   9.999
17116SOL     OW62975   2.500   3.498  18.805
17116SOL    HW162976   2.497   3.402  18.809
17116SOL    HW262977   2.412   3.525  18.832
17117SOL     OW62978   0.796   0.279  11.224
17117SOL    HW162979   0.861   0.349  11.219
17117SOL    HW262980   0.844   0.200  11.198
17118SOL     OW62981   3.219   0.440  20.103
17118SOL    HW162982   3.268   0.512  20.064
17118SOL    HW262983   3.234   0.449  20.198
17119SOL     OW62984   0.794   4.215   1.786
17119SOL    HW162985   0.708   4.249   1.761
17119SOL    HW262986   0.835   4.288   1.833
17120SOL     OW62987   2.715   2.511   2.797
17120SOL    HW162988   2.803   2.548   2.804
17120SOL    HW262989   2.726   2.418   2.818
17121SOL     OW62990   1.161   2.816  27.595
17121SOL    HW162991   1.209   2.899  27.585
17121SOL    HW262992   1.215   2.765  27.655
17122SOL     OW62993   2.091   3.975   8.263
17122SOL    HW162994   2.047   3.893   8.286
17122SOL    HW262995   2.153   3.989   8.334
17123SOL     OW62996   2.629   0.854  19.144
17123SOL    HW162997   2.667   0.909  19.213
17123SOL    HW262998   2.634   0.765  19.180
17124SOL     OW62999   3.535   4.402   7.994
17124SOL    HW163000   3.464   4.467   7.992
17124SOL    HW263001   3.503   4.333   8.053
17125SOL     OW63002   2.462   3.417  27.288
17125SOL    HW163003   2.514   3.387  27.363
17125SOL    HW263004   2.398   3.477  27.325
17126SOL     OW63005   4.449   1.881   7.646
17126SOL    HW163006   4.384   1.857   7.712
17126SOL    HW263007   4.459   1.975   7.655
17127SOL     OW63008   0.639   0.484  22.786
17127SOL    HW163009   0.613   0.573  22.811
17127SOL    HW263010   0.613   0.475  22.695
17128SOL     OW63011   0.732   2.071   0.150
17128SOL    HW163012   0.649   2.055   0.195
17128SOL    HW263013   0.749   2.164   0.165
17129SOL     OW63014   1.395   0.317   8.458
17129SOL    HW163015   1.324   0.269   8.500
17129SOL    HW263016   1.364   0.407   8.454
17130SOL     OW63017   3.423   0.492  24.115
17130SOL    HW163018   3.348   0.528  24.065
17130SOL    HW263019   3.488   0.473  24.048
17131SOL     OW63020   0.370   3.160   8.387
17131SOL    HW163021   0.376   3.065   8.392
17131SOL    HW263022   0.291   3.182   8.436
17132SOL     OW63023   4.683   4.422   1.934
17132SOL    HW163024   4.677   4.396   2.026
17132SOL    HW263025   4.776   4.442   1.922
17133SOL     OW63026   1.362   2.981  27.585
17133SOL    HW163027   1.345   3.023  27.670
17133SOL    HW263028   1.369   3.054  27.524
17134SOL     OW63029   0.222   0.266  17.268
17134SOL    HW163030   0.213   0.340  17.329
17134SOL    HW263031   0.219   0.307  17.181
17135SOL     OW63032   1.234   4.505   1.572
17135SOL    HW163033   1.188   4.589   1.570
17135SOL    HW263034   1.190   4.452   1.505
17136SOL     OW63035   1.975   3.037   4.208
17136SOL    HW163036   1.962   3.114   4.262
17136SOL    HW263037   1.901   2.980   4.228
17137SOL     OW63038   2.173   2.413  25.110
17137SOL    HW163039   2.214   2.490  25.070
17137SOL    HW263040   2.204   2.413  25.200
17138SOL     OW63041   2.938   4.110   5.317
17138SOL    HW163042   2.987   4.150   5.245
17138SOL    HW263043   2.985   4.136   5.396
17139SOL     OW63044   0.303   2.020   9.829
17139SOL    HW163045   0.336   1.930   9.825
17139SOL    HW263046   0.283   2.035   9.922
17140SOL     OW63047   3.644   1.985  20.379
17140SOL    HW163048   3.695   2.046  20.431
17140SOL    HW263049   3.591   1.937  20.442
17141SOL     OW63050   0.356   1.195   4.152
17141SOL    HW163051   0.387   1.166   4.238
17141SOL    HW263052   0.271   1.152   4.142
17142SOL     OW63053   0.498   2.127  27.193
17142SOL    HW163054   0.472   2.211  27.232
17142SOL    HW263055   0.497   2.144  27.099
17143SOL     OW63056   2.970   4.312   6.235
17143SOL    HW163057   3.059   4.279   6.247
17143SOL    HW263058   2.930   4.307   6.321
17144SOL     OW63059   2.179   2.930   1.089
17144SOL    HW163060   2.180   2.864   1.158
17144SOL    HW263061   2.158   3.012   1.135
17145SOL     OW63062   3.766   3.344   0.393
17145SOL    HW163063   3.682   3.379   0.363
17145SOL    HW263064   3.812   3.420   0.429
17146SOL     OW63065   3.775   2.326   3.453
17146SOL    HW163066   3.778   2.416   3.487
17146SOL    HW263067   3.682   2.303   3.456
17147SOL     OW63068   3.877   3.833  19.937
17147SOL    HW163069   3.957   3.868  19.973
17147SOL    HW263070   3.808   3.891  19.970
17148SOL     OW63071   0.429   3.489   8.319
17148SOL    HW163072   0.401   3.398   8.334
17148SOL    HW263073   0.524   3.486   8.325
17149SOL     OW63074   1.643   0.229  12.317
17149SOL    HW163075   1.682   0.297  12.372
17149SOL    HW263076   1.550   0.252  12.313
17150SOL     OW63077   0.593   0.179   2.578
17150SOL    HW163078   0.631   0.259   2.614
17150SOL    HW263079   0.519   0.159   2.636
17151SOL     OW63080   2.318   2.253  11.379
17151SOL    HW163081   2.303   2.230  11.287
17151SOL    HW263082   2.413   2.245  11.390
17152SOL     OW63083   0.248   0.764   7.004
17152SOL    HW163084   0.197   0.844   7.003
17152SOL    HW263085   0.338   0.793   6.988
17153SOL     OW63086   2.753   3.389  23.832
17153SOL    HW163087   2.806   3.469  23.833
17153SOL    HW263088   2.672   3.414  23.875
17154SOL     OW63089   0.332   3.754   8.635
17154SOL    HW163090   0.362   3.825   8.692
17154SOL    HW263091   0.309   3.799   8.553
17155SOL     OW63092   1.057   2.862   1.155
17155SOL    HW163093   1.131   2.852   1.214
17155SOL    HW263094   1.016   2.945   1.181
17156SOL     OW63095   1.393   3.374   1.123
17156SOL    HW163096   1.434   3.459   1.107
17156SOL    HW263097   1.326   3.393   1.189
17157SOL     OW63098   1.068   0.915   8.249
17157SOL    HW163099   1.114   0.958   8.321
17157SOL    HW263100   1.037   0.832   8.286
17158SOL     OW63101   0.326   0.495   8.144
17158SOL    HW163102   0.282   0.542   8.214
17158SOL    HW263103   0.255   0.453   8.094
17159SOL     OW63104   0.874   4.402   4.927
17159SOL    HW163105   0.861   4.416   4.833
17159SOL    HW263106   0.846   4.483   4.968
17160SOL     OW63107   1.610   3.043   8.717
17160SOL    HW163108   1.677   3.111   8.709
17160SOL    HW263109   1.592   3.038   8.810
17161SOL     OW63110   3.440   1.919  22.414
17161SOL    HW163111   3.454   1.919  22.509
17161SOL    HW263112   3.356   1.963  22.403
17162SOL     OW63113   0.900   0.134  27.998
17162SOL    HW163114   0.923   0.130  28.090
17162SOL    HW263115   0.940   0.215  27.967
17163SOL     OW63116   2.420   1.947  26.273
17163SOL    HW163117   2.506   1.918  26.304
17163SOL    HW263118   2.358   1.911  26.336
17164SOL     OW63119   0.289   4.761  27.685
17164SOL    HW163120   0.295   4.683  27.630
17164SOL    HW263121   0.356   0.038  27.650
17165SOL     OW63122   0.816   2.666  26.999
17165SOL    HW163123   0.819   2.747  27.050
17165SOL    HW263124   0.783   2.694  26.913
17166SOL     OW63125   2.740   1.413   2.759
17166SOL    HW163126   2.743   1.318   2.760
17166SOL    HW263127   2.805   1.440   2.824
17167SOL     OW63128   1.673   1.597  25.334
17167SOL    HW163129   1.661   1.544  25.255
17167SOL    HW263130   1.587   1.597  25.376
17168SOL     OW63131   0.487   2.994   8.052
17168SOL    HW163132   0.574   2.996   8.091
17168SOL    HW263133   0.441   2.925   8.100
17169SOL     OW63134   1.028   2.131   5.140
17169SOL    HW163135   1.030   2.206   5.081
17169SOL    HW263136   1.103   2.078   5.113
17170SOL     OW63137   0.784   1.427   8.681
17170SOL    HW163138   0.695   1.458   8.665
17170SOL    HW263139   0.817   1.484   8.750
17171SOL     OW63140   4.111   0.956  24.587
17171SOL    HW163141   4.055   1.032  24.571
17171SOL    HW263142   4.133   0.923  24.500
17172SOL     OW63143   4.111   2.115  18.631
17172SOL    HW163144   4.095   2.050  18.562
17172SOL    HW263145   4.051   2.090  18.702
17173SOL     OW63146   4.687   3.256  21.724
17173SOL    HW163147   4.649   3.226  21.642
17173SOL    HW263148   4.768   3.300  21.699
17174SOL     OW63149   2.876   0.295   8.899
17174SOL    HW163150   2.810   0.358   8.928
17174SOL    HW263151   2.846   0.211   8.934
17175SOL     OW63152   3.571   0.146   6.963
17175SOL    HW163153   3.567   0.052   6.983
17175SOL    HW263154   3.648   0.177   7.011
17176SOL     OW63155   2.702   4.727   5.504
17176SOL    HW163156   2.666   4.672   5.574
17176SOL    HW263157   2.661   0.030   5.518
17177SOL     OW63158   1.663   2.752  25.993
17177SOL    HW163159   1.731   2.717  25.935
17177SOL    HW263160   1.629   2.675  26.039
17178SOL     OW63161   1.620   0.590   1.732
17178SOL    HW163162   1.570   0.622   1.807
17178SOL    HW263163   1.634   0.497   1.750
17179SOL     OW63164   4.571   2.032   5.669
17179SOL    HW163165   4.486   1.994   5.646
17179SOL    HW263166   4.551   2.124   5.689
17180SOL     OW63167   3.366   4.344  12.555
17180SOL    HW163168   3.428   4.380  12.618
17180SOL    HW263169   3.404   4.364  12.469
17181SOL     OW63170   3.335   1.228   2.960
17181SOL    HW163171   3.419   1.273   2.957
17181SOL    HW263172   3.353   1.141   2.924
17182SOL     OW63173   2.915   1.069   4.382
17182SOL    HW163174   2.912   1.078   4.287
17182SOL    HW263175   2.829   1.036   4.406
17183SOL     OW63176   3.090   2.345   8.498
17183SOL    HW163177   3.065   2.361   8.407
17183SOL    HW263178   3.185   2.354   8.498
17184SOL     OW63179   4.160   3.324   3.682
17184SOL    HW163180   4.071   3.289   3.690
17184SOL    HW263181   4.182   3.352   3.771
17185SOL     OW63182   1.369   1.619  25.370
17185SOL    HW163183   1.425   1.625  25.292
17185SOL    HW263184   1.328   1.705  25.378
17186SOL     OW63185   0.421   2.861  25.631
17186SOL    HW163186   0.488   2.843  25.697
17186SOL    HW263187   0.356   2.791  25.643
17187SOL     OW63188   2.557   2.158  11.706
17187SOL    HW163189   2.467   2.181  11.733
17187SOL    HW263190   2.607   2.161  11.787
17188SOL     OW63191   4.566   1.108   5.146
17188SOL    HW163192   4.611   1.093   5.229
17188SOL    HW263193   4.604   1.189   5.112
17189SOL     OW63194   2.648   2.651   6.741
17189SOL    HW163195   2.676   2.666   6.831
17189SOL    HW263196   2.656   2.737   6.700
17190SOL     OW63197   4.234   4.043  26.588
17190SOL    HW163198   4.278   4.025  26.505
17190SOL    HW263199   4.173   3.970  26.599
17191SOL     OW63200   0.410   4.263   9.857
17191SOL    HW163201   0.449   4.248   9.771
17191SOL    HW263202   0.450   4.197   9.914
17192SOL     OW63203   4.257   1.007   9.426
17192SOL    HW163204   4.193   0.959   9.479
17192SOL    HW263205   4.336   0.955   9.430
17193SOL     OW63206   4.638   0.234   6.893
17193SOL    HW163207   4.645   0.293   6.968
17193SOL    HW263208   4.616   0.290   6.819
17194SOL     OW63209   0.479   4.732  27.878
17194SOL    HW163210   0.440   4.776  27.803
17194SOL    HW263211   0.405   4.694  27.925
17195SOL     OW63212   4.025   2.558   5.946
17195SOL    HW163213   3.968   2.632   5.927
17195SOL    HW263214   4.068   2.539   5.863
17196SOL     OW63215   3.961   0.803   9.258
17196SOL    HW163216   4.053   0.826   9.248
17196SOL    HW263217   3.947   0.732   9.194
17197SOL     OW63218   2.330   3.764   6.089
17197SOL    HW163219   2.424   3.776   6.099
17197SOL    HW263220   2.321   3.695   6.023
17198SOL     OW63221   4.508   4.394  27.586
17198SOL    HW163222   4.457   4.327  27.540
17198SOL    HW263223   4.447   4.431  27.650
17199SOL     OW63224   3.120   3.365  26.887
17199SOL    HW163225   3.205   3.375  26.930
17199SOL    HW263226   3.094   3.455  26.864
17200SOL     OW63227   0.165   0.579  23.770
17200SOL    HW163228   0.174   0.511  23.837
17200SOL    HW263229   0.140   0.531  23.691
17201SOL     OW63230   4.017   2.726   0.551
17201SOL    HW163231   3.944   2.788   0.540
17201SOL    HW263232   4.090   2.767   0.503
17202SOL     OW63233   1.076   1.060  26.222
17202SOL    HW163234   1.051   1.112  26.145
17202SOL    HW263235   1.029   0.978  26.213
17203SOL     OW63236   0.766   1.645  11.098
17203SOL    HW163237   0.798   1.672  11.012
17203SOL    HW263238   0.786   1.719  11.156
17204SOL     OW63239   0.933   3.440   8.911
17204SOL    HW163240   0.970   3.423   8.825
17204SOL    HW263241   1.008   3.461   8.966
17205SOL     OW63242   3.105   1.296   3.863
17205SOL    HW163243   3.122   1.324   3.953
17205SOL    HW263244   3.186   1.316   3.816
17206SOL     OW63245   2.990   4.457   7.101
17206SOL    HW163246   3.080   4.451   7.136
17206SOL    HW263247   2.936   4.470   7.179
17207SOL     OW63248   0.242   3.051  20.178
17207SOL    HW163249   0.152   3.042  20.210
17207SOL    HW263250   0.257   2.971  20.127
17208SOL     OW63251   1.076   1.966   1.710
17208SOL    HW163252   1.021   1.969   1.789
17208SOL    HW263253   1.165   1.981   1.742
17209SOL     OW63254   2.319   0.624   4.363
17209SOL    HW163255   2.380   0.552   4.380
17209SOL    HW263256   2.268   0.631   4.443
17210SOL     OW63257   4.095   1.147  11.376
17210SOL    HW163258   4.074   1.090  11.450
17210SOL    HW263259   4.050   1.230  11.395
17211SOL     OW63260   0.518   1.150   1.596
17211SOL    HW163261   0.441   1.206   1.608
17211SOL    HW263262   0.588   1.211   1.573
17212SOL     OW63263   2.374   4.589  24.376
17212SOL    HW163264   2.421   4.557  24.299
17212SOL    HW263265   2.441   4.596  24.444
17213SOL     OW63266   2.900   1.232   4.840
17213SOL    HW163267   2.880   1.152   4.889
17213SOL    HW263268   2.818   1.281   4.840
17214SOL     OW63269   0.616   1.421  27.311
17214SOL    HW163270   0.540   1.364  27.325
17214SOL    HW263271   0.686   1.380  27.361
17215SOL     OW63272   0.686   4.571  10.444
17215SOL    HW163273   0.725   4.628  10.378
17215SOL    HW263274   0.760   4.540  10.496
17216SOL     OW63275   3.267   2.585   7.647
17216SOL    HW163276   3.213   2.610   7.721
17216SOL    HW263277   3.207   2.540   7.587
17217SOL     OW63278   0.829   4.149  11.574
17217SOL    HW163279   0.876   4.179  11.651
17217SOL    HW263280   0.738   4.143  11.601
17218SOL     OW63281   2.004   0.361   6.193
17218SOL    HW163282   2.000   0.288   6.132
17218SOL    HW263283   2.059   0.426   6.149
17219SOL     OW63284   4.086   1.994  23.520
17219SOL    HW163285   4.034   2.070  23.547
17219SOL    HW263286   4.084   1.997  23.424
17220SOL     OW63287   3.662   0.941  27.583
17220SOL    HW163288   3.683   0.932  27.490
17220SOL    HW263289   3.576   0.899  27.592
17221SOL     OW63290   1.222   0.577   7.118
17221SOL    HW163291   1.168   0.572   7.197
17221SOL    HW263292   1.263   0.491   7.111
17222SOL     OW63293   1.270   2.178  12.977
17222SOL    HW163294   1.185   2.134  12.973
17222SOL    HW263295   1.314   2.136  13.051
17223SOL     OW63296   0.055   2.477  13.554
17223SOL    HW163297   0.118   2.423  13.505
17223SOL    HW263298   0.057   2.441  13.643
17224SOL     OW63299   0.715   2.854  12.337
17224SOL    HW163300   0.718   2.789  12.406
17224SOL    HW263301   0.724   2.803  12.256
17225SOL     OW63302   0.764   2.111  13.453
17225SOL    HW163303   0.847   2.135  13.494
17225SOL    HW263304   0.785   2.101  13.360
17226SOL     OW63305   2.636   2.212   9.466
17226SOL    HW163306   2.623   2.208   9.560
17226SOL    HW263307   2.612   2.125   9.435
17227SOL     OW63308   1.466   2.526  13.088
17227SOL    HW163309   1.388   2.505  13.037
17227SOL    HW263310   1.503   2.440  13.112
17228SOL     OW63311   1.683   2.928  12.839
17228SOL    HW163312   1.610   2.933  12.901
17228SOL    HW263313   1.710   2.836  12.841
17229SOL     OW63314   3.960   3.138  12.769
17229SOL    HW163315   3.864   3.132  12.767
17229SOL    HW263316   3.983   3.133  12.861
17230SOL     OW63317   0.481   2.392  11.959
17230SOL    HW163318   0.525   2.477  11.967
17230SOL    HW263319   0.504   2.346  12.040
17231SOL     OW63320   1.240   1.257  18.723
17231SOL    HW163321   1.304   1.238  18.655
17231SOL    HW263322   1.155   1.235  18.684
17232SOL     OW63323   0.094   2.594  28.053
17232SOL    HW163324   0.189   2.594  28.063
17232SOL    HW263325   0.076   2.668  27.995
17233SOL     OW63326   0.705   2.861  13.789
17233SOL    HW163327   0.649   2.936  13.811
17233SOL    HW263328   0.681   2.794  13.852
17234SOL     OW63329   2.417   3.663  12.930
17234SOL    HW163330   2.470   3.628  13.002
17234SOL    HW263331   2.470   3.733  12.893
17235SOL     OW63332   1.192   2.260  12.348
17235SOL    HW163333   1.277   2.228  12.317
17235SOL    HW263334   1.176   2.210  12.428
17236SOL     OW63335   1.290   1.533  13.645
17236SOL    HW163336   1.211   1.551  13.594
17236SOL    HW263337   1.361   1.538  13.580
17237SOL     OW63338   0.757   2.736  13.024
17237SOL    HW163339   0.848   2.766  13.014
17237SOL    HW263340   0.713   2.809  13.067
17238SOL     OW63341   1.313   2.648  11.977
17238SOL    HW163342   1.366   2.574  11.948
17238SOL    HW263343   1.355   2.677  12.058
17239SOL     OW63344   0.903   1.390  12.387
17239SOL    HW163345   0.901   1.451  12.460
17239SOL    HW263346   0.992   1.353  12.389
17240SOL     OW63347   1.154   2.188  12.610
17240SOL    HW163348   1.230   2.138  12.578
17240SOL    HW263349   1.103   2.124  12.660
17241SOL     OW63350   2.679   3.157  14.440
17241SOL    HW163351   2.705   3.069  14.410
17241SOL    HW263352   2.587   3.164  14.417
17242SOL     OW63353   1.911   2.611  24.248
17242SOL    HW163354   1.939   2.593  24.159
17242SOL    HW263355   1.831   2.663  24.238
17243SOL     OW63356   1.438   2.533  12.720
17243SOL    HW163357   1.376   2.475  12.765
17243SOL    HW263358   1.517   2.527  12.773
17244SOL     OW63359   0.948   3.495  11.353
17244SOL    HW163360   0.995   3.451  11.423
17244SOL    HW263361   0.874   3.539  11.396
17245SOL     OW63362   1.069   1.816  13.304
17245SOL    HW163363   1.146   1.873  13.297
17245SOL    HW263364   1.093   1.751  13.370
17246SOL     OW63365   1.622   2.356  12.837
17246SOL    HW163366   1.539   2.327  12.799
17246SOL    HW263367   1.615   2.334  12.930
17247SOL     OW63368   3.811   2.911  11.907
17247SOL    HW163369   3.850   2.854  11.972
17247SOL    HW263370   3.844   2.998  11.928
17248SOL     OW63371   3.936   4.146   2.430
17248SOL    HW163372   3.909   4.120   2.518
17248SOL    HW263373   3.874   4.102   2.372
17249SOL     OW63374   1.941   2.235  13.734
17249SOL    HW163375   1.895   2.153  13.754
17249SOL    HW263376   1.995   2.251  13.811
17250SOL     OW63377   0.126   2.692  13.726
17250SOL    HW163378   0.121   2.629  13.654
17250SOL    HW263379   0.051   2.670  13.782
17251SOL     OW63380   1.779   1.522  12.989
17251SOL    HW163381   1.845   1.452  12.996
17251SOL    HW263382   1.815   1.581  12.922
17252SOL     OW63383   0.833   1.896  13.852
17252SOL    HW163384   0.807   1.880  13.761
17252SOL    HW263385   0.923   1.865  13.857
17253SOL     OW63386   1.118   3.872  13.977
17253SOL    HW163387   1.162   3.902  13.897
17253SOL    HW263388   1.035   3.918  13.977
17254SOL     OW63389   0.642   2.739  13.557
17254SOL    HW163390   0.582   2.668  13.582
17254SOL    HW263391   0.686   2.762  13.639
17255SOL     OW63392   0.935   2.379  12.908
17255SOL    HW163393   0.948   2.401  12.816
17255SOL    HW263394   0.985   2.445  12.956
17256SOL     OW63395   0.667   1.796  12.743
17256SOL    HW163396   0.739   1.784  12.805
17256SOL    HW263397   0.648   1.708  12.711
17257SOL     OW63398   0.780   2.226  13.769
17257SOL    HW163399   0.855   2.185  13.727
17257SOL    HW263400   0.784   2.196  13.860
17258SOL     OW63401   0.799   2.233  15.067
17258SOL    HW163402   0.856   2.262  14.996
17258SOL    HW263403   0.798   2.307  15.128
17259SOL     OW63404   0.058   2.404  12.752
17259SOL    HW163405   0.061   2.466  12.824
17259SOL    HW263406   0.142   2.359  12.755
17260SOL     OW63407   2.767   1.814  14.898
17260SOL    HW163408   2.855   1.778  14.886
17260SOL    HW263409   2.755   1.818  14.993
17261SOL     OW63410   2.192   2.106  13.657
17261SOL    HW163411   2.112   2.152  13.632
17261SOL    HW263412   2.213   2.053  13.581
17262SOL     OW63413   0.975   3.207  13.709
17262SOL    HW163414   0.964   3.242  13.797
17262SOL    HW263415   0.947   3.278  13.651
17263SOL     OW63416   4.773   0.802  12.392
17263SOL    HW163417   0.028   0.735  12.449
17263SOL    HW263418   4.705   0.843  12.445
17264SOL     OW63419   0.057   2.186  14.555
17264SOL    HW163420   0.006   2.212  14.478
17264SOL    HW263421   0.121   2.255  14.566
17265SOL     OW63422   1.599   1.636  14.371
17265SOL    HW163423   1.691   1.662  14.375
17265SOL    HW263424   1.551   1.713  14.402
17266SOL     OW63425   0.557   2.195  13.080
17266SOL    HW163426   0.570   2.109  13.038
17266SOL    HW263427   0.646   2.223  13.102
17267SOL     OW63428   1.602   2.257  13.096
17267SOL    HW163429   1.522   2.206  13.112
17267SOL    HW263430   1.617   2.303  13.178
17268SOL     OW63431   2.188   1.375  14.210
17268SOL    HW163432   2.272   1.379  14.164
17268SOL    HW263433   2.135   1.444  14.170
17269SOL     OW63434   0.477   1.447  15.153
17269SOL    HW163435   0.434   1.528  15.180
17269SOL    HW263436   0.459   1.386  15.224
17270SOL     OW63437   1.989   3.286  12.875
17270SOL    HW163438   2.067   3.263  12.925
17270SOL    HW263439   1.930   3.328  12.938
17271SOL     OW63440   1.002   2.545  14.302
17271SOL    HW163441   1.014   2.468  14.247
17271SOL    HW263442   0.960   2.609  14.245
17272SOL     OW63443   0.864   2.737  14.147
17272SOL    HW163444   0.864   2.828  14.119
17272SOL    HW263445   0.792   2.697  14.098
17273SOL     OW63446   4.566   2.006  15.947
17273SOL    HW163447   4.566   2.022  16.041
17273SOL    HW263448   4.540   2.089  15.908
17274SOL     OW63449   2.847   2.419  14.583
17274SOL    HW163450   2.785   2.345  14.584
17274SOL    HW263451   2.915   2.393  14.645
17275SOL     OW63452   0.940   3.058  15.036
17275SOL    HW163453   0.991   2.977  15.046
17275SOL    HW263454   0.860   3.030  14.991
17276SOL     OW63455   2.620   2.058  14.324
17276SOL    HW163456   2.580   1.991  14.268
17276SOL    HW263457   2.651   2.125  14.264
17277SOL     OW63458   0.364   2.186  12.514
17277SOL    HW163459   0.331   2.202  12.602
17277SOL    HW263460   0.450   2.147  12.528
17278SOL     OW63461   2.310   1.779  13.284
17278SOL    HW163462   2.315   1.821  13.199
17278SOL    HW263463   2.381   1.715  13.284
17279SOL     OW63464   1.990   3.363  13.937
17279SOL    HW163465   2.008   3.276  13.901
17279SOL    HW263466   1.902   3.384  13.905
17280SOL     OW63467   2.731   2.351  15.482
17280SOL    HW163468   2.826   2.338  15.479
17280SOL    HW263469   2.696   2.265  15.505
17281SOL     OW63470   0.948   3.792  14.393
17281SOL    HW163471   0.968   3.708  14.435
17281SOL    HW263472   0.875   3.773  14.334
17282SOL     OW63473   0.879   4.413  15.809
17282SOL    HW163474   0.818   4.440  15.740
17282SOL    HW263475   0.884   4.318  15.800
17283SOL     OW63476   0.500   2.581  16.570
17283SOL    HW163477   0.581   2.632  16.560
17283SOL    HW263478   0.530   2.491  16.583
17284SOL     OW63479   3.453   0.357  17.422
17284SOL    HW163480   3.490   0.280  17.379
17284SOL    HW263481   3.391   0.392  17.359
17285SOL     OW63482   2.073   2.642  16.299
17285SOL    HW163483   2.114   2.650  16.386
17285SOL    HW263484   1.981   2.660  16.315
17286SOL     OW63485   0.829   4.706  27.557
17286SOL    HW163486   0.790   4.778  27.606
17286SOL    HW263487   0.831   4.633  27.618
17287SOL     OW63488   0.155   4.391  15.014
17287SOL    HW163489   0.141   4.349  15.099
17287SOL    HW263490   0.125   4.326  14.950
17288SOL     OW63491   2.007   2.210  16.106
17288SOL    HW163492   1.951   2.288  16.105
17288SOL    HW263493   1.969   2.154  16.173
17289SOL     OW63494   0.445   0.774  15.560
17289SOL    HW163495   0.406   0.749  15.644
17289SOL    HW263496   0.371   0.776  15.499
17290SOL     OW63497   4.156   4.261  17.295
17290SOL    HW163498   4.176   4.208  17.372
17290SOL    HW263499   4.224   4.238  17.232
17291SOL     OW63500   1.980   1.438  15.599
17291SOL    HW163501   1.966   1.429  15.505
17291SOL    HW263502   2.074   1.426  15.610
17292SOL     OW63503   2.532   1.188  27.201
17292SOL    HW163504   2.461   1.138  27.160
17292SOL    HW263505   2.528   1.165  27.294
17293SOL     OW63506   0.212   1.592  14.973
17293SOL    HW163507   0.141   1.621  14.916
17293SOL    HW263508   0.218   1.498  14.958
17294SOL     OW63509   1.317   2.147  15.982
17294SOL    HW163510   1.223   2.165  15.977
17294SOL    HW263511   1.338   2.107  15.897
17295SOL     OW63512   0.880   2.739  14.948
17295SOL    HW163513   0.813   2.761  15.012
17295SOL    HW263514   0.963   2.751  14.994
17296SOL     OW63515   4.679   1.698  13.682
17296SOL    HW163516   4.612   1.664  13.742
17296SOL    HW263517   4.706   1.781  13.722
17297SOL     OW63518   1.279   2.165  14.888
17297SOL    HW163519   1.283   2.218  14.968
17297SOL    HW263520   1.338   2.208  14.827
17298SOL     OW63521   0.688   2.037  14.226
17298SOL    HW163522   0.604   2.073  14.198
17298SOL    HW263523   0.674   2.013  14.318
17299SOL     OW63524   0.531   1.605  14.134
17299SOL    HW163525   0.553   1.696  14.113
17299SOL    HW263526   0.439   1.596  14.108
17300SOL     OW63527   1.875   1.967  15.197
17300SOL    HW163528   1.891   1.879  15.164
17300SOL    HW263529   1.961   1.999  15.224
17301SOL     OW63530   0.252   0.216  15.057
17301SOL    HW163531   0.230   0.211  14.964
17301SOL    HW263532   0.183   0.167  15.101
17302SOL     OW63533   0.250   0.325  23.155
17302SOL    HW163534   0.298   0.286  23.228
17302SOL    HW263535   0.307   0.314  23.079
17303SOL     OW63536   0.967   0.989  16.521
17303SOL    HW163537   0.880   0.997  16.559
17303SOL    HW263538   0.970   0.900  16.486
17304SOL     OW63539   0.221   0.716  14.874
17304SOL    HW163540   0.253   0.629  14.849
17304SOL    HW263541   0.184   0.751  14.793
17305SOL     OW63542   4.151   4.494  17.392
17305SOL    HW163543   4.185   4.419  17.344
17305SOL    HW263544   4.112   4.457  17.471
17306SOL     OW63545   2.559   4.433  16.913
17306SOL    HW163546   2.505   4.379  16.972
17306SOL    HW263547   2.647   4.426  16.950
17307SOL     OW63548   2.840   4.649  17.226
17307SOL    HW163549   2.802   4.719  17.173
17307SOL    HW263550   2.779   4.638  17.299
17308SOL     OW63551   2.275   1.522  16.648
17308SOL    HW163552   2.196   1.568  16.677
17308SOL    HW263553   2.330   1.591  16.610
17309SOL     OW63554   1.423   1.935   3.757
17309SOL    HW163555   1.400   1.845   3.733
17309SOL    HW263556   1.350   1.988   3.724
17310SOL     OW63557   1.439   2.023  17.003
17310SOL    HW163558   1.421   2.102  16.952
17310SOL    HW263559   1.371   1.962  16.978
17311SOL     OW63560   1.764   2.516  17.152
17311SOL    HW163561   1.764   2.536  17.245
17311SOL    HW263562   1.742   2.599  17.109
17312SOL     OW63563   1.664   1.197  18.088
17312SOL    HW163564   1.729   1.135  18.123
17312SOL    HW263565   1.705   1.229  18.007
17313SOL     OW63566   4.114   2.272  25.396
17313SOL    HW163567   4.094   2.362  25.420
17313SOL    HW263568   4.124   2.226  25.479
17314SOL     OW63569   0.930   2.245  18.181
17314SOL    HW163570   0.923   2.153  18.155
17314SOL    HW263571   0.867   2.290  18.124
17315SOL     OW63572   1.858   0.445  15.463
17315SOL    HW163573   1.768   0.415  15.456
17315SOL    HW263574   1.904   0.401  15.392
17316SOL     OW63575   3.354   2.152  18.093
17316SOL    HW163576   3.420   2.205  18.049
17316SOL    HW263577   3.289   2.134  18.025
17317SOL     OW63578   1.472   2.298  16.875
17317SOL    HW163579   1.495   2.234  16.808
17317SOL    HW263580   1.551   2.349  16.888
17318SOL     OW63581   0.971   1.922  17.179
17318SOL    HW163582   1.024   1.928  17.259
17318SOL    HW263583   1.013   1.982  17.118
17319SOL     OW63584   1.709   2.271  17.275
17319SOL    HW163585   1.718   2.352  17.224
17319SOL    HW263586   1.715   2.201  17.209
17320SOL     OW63587   1.439   2.304  18.192
17320SOL    HW163588   1.358   2.277  18.148
17320SOL    HW263589   1.465   2.227  18.243
17321SOL     OW63590   0.128   1.165  17.476
17321SOL    HW163591   0.198   1.105  17.452
17321SOL    HW263592   0.099   1.202  17.393
17322SOL     OW63593   1.489   2.665  21.606
17322SOL    HW163594   1.487   2.571  21.590
17322SOL    HW263595   1.426   2.679  21.678
17323SOL     OW63596   2.501   0.048  17.209
17323SOL    HW163597   2.465   4.778  17.137
17323SOL    HW263598   2.426   0.065  17.266
17324SOL     OW63599   4.072   2.997  15.949
17324SOL    HW163600   4.038   2.909  15.933
17324SOL    HW263601   4.147   2.983  16.008
17325SOL     OW63602   1.757   1.849   4.158
17325SOL    HW163603   1.683   1.819   4.104
17325SOL    HW263604   1.718   1.905   4.225
17326SOL     OW63605   0.010   3.441  27.636
17326SOL    HW163606   0.008   3.399  27.722
17326SOL    HW263607   0.014   3.369  27.574
17327SOL     OW63608   0.270   2.796  16.895
17327SOL    HW163609   0.286   2.866  16.959
17327SOL    HW263610   0.353   2.788  16.848
17328SOL     OW63611   2.521   0.636  16.626
17328SOL    HW163612   2.589   0.683  16.578
17328SOL    HW263613   2.542   0.543  16.613
17329SOL     OW63614   2.799   1.074  21.781
17329SOL    HW163615   2.851   1.053  21.858
17329SOL    HW263616   2.760   1.159  21.800
17330SOL     OW63617   4.403   3.695  28.422
17330SOL    HW163618   4.439   3.636  28.488
17330SOL    HW263619   4.422   3.653  28.339
17331SOL     OW63620   2.147   0.328  26.350
17331SOL    HW163621   2.067   0.305  26.304
17331SOL    HW263622   2.205   0.363  26.283
17332SOL     OW63623   2.018   1.303  15.349
17332SOL    HW163624   2.097   1.345  15.315
17332SOL    HW263625   2.050   1.223  15.391
17333SOL     OW63626   3.858   2.942   1.316
17333SOL    HW163627   3.887   3.012   1.256
17333SOL    HW263628   3.922   2.872   1.304
17334SOL     OW63629   0.690   1.011  16.545
17334SOL    HW163630   0.632   0.959  16.489
17334SOL    HW263631   0.651   1.099  16.545
17335SOL     OW63632   3.303   1.716   2.237
17335SOL    HW163633   3.306   1.658   2.313
17335SOL    HW263634   3.237   1.782   2.259
17336SOL     OW63635   0.049   4.300   3.155
17336SOL    HW163636   0.121   4.294   3.218
17336SOL    HW263637   4.773   4.228   3.177
17337SOL     OW63638   2.790   4.164   4.101
17337SOL    HW163639   2.812   4.075   4.077
17337SOL    HW263640   2.708   4.182   4.056
17338SOL     OW63641   1.719   1.389   1.649
17338SOL    HW163642   1.724   1.296   1.673
17338SOL    HW263643   1.764   1.394   1.565
17339SOL     OW63644   4.489   0.971   0.921
17339SOL    HW163645   4.487   0.954   0.826
17339SOL    HW263646   4.518   0.889   0.959
17340SOL     OW63647   4.531   4.055   7.274
17340SOL    HW163648   4.577   4.057   7.357
17340SOL    HW263649   4.595   4.020   7.212
17341SOL     OW63650   4.293   0.784   9.987
17341SOL    HW163651   4.217   0.788  10.045
17341SOL    HW263652   4.363   0.751  10.042
17342SOL     OW63653   1.702   1.100   5.433
17342SOL    HW163654   1.699   1.163   5.506
17342SOL    HW263655   1.653   1.024   5.464
17343SOL     OW63656   1.815   1.843   2.798
17343SOL    HW163657   1.817   1.747   2.789
17343SOL    HW263658   1.906   1.868   2.806
17344SOL     OW63659   1.483   4.523  27.009
17344SOL    HW163660   1.484   4.498  26.917
17344SOL    HW263661   1.417   4.592  27.014
17345SOL     OW63662   4.751   3.280  22.095
17345SOL    HW163663   4.705   3.210  22.050
17345SOL    HW263664   4.777   3.241  22.179
17346SOL     OW63665   1.446   2.233   7.325
17346SOL    HW163666   1.464   2.291   7.399
17346SOL    HW263667   1.444   2.145   7.362
17347SOL     OW63668   4.611   0.323   1.490
17347SOL    HW163669   4.531   0.305   1.442
17347SOL    HW263670   4.632   0.240   1.534
17348SOL     OW63671   0.992   0.972  17.228
17348SOL    HW163672   1.000   1.001  17.137
17348SOL    HW263673   0.929   0.899  17.224
17349SOL     OW63674   2.665   4.455   0.636
17349SOL    HW163675   2.755   4.470   0.665
17349SOL    HW263676   2.645   4.530   0.580
17350SOL     OW63677   2.107   2.291  20.962
17350SOL    HW163678   2.061   2.373  20.982
17350SOL    HW263679   2.115   2.247  21.047
17351SOL     OW63680   1.264   3.691   3.384
17351SOL    HW163681   1.357   3.709   3.395
17351SOL    HW263682   1.220   3.749   3.447
17352SOL     OW63683   4.183   2.136   7.312
17352SOL    HW163684   4.208   2.043   7.316
17352SOL    HW263685   4.094   2.135   7.278
17353SOL     OW63686   2.971   4.344  20.674
17353SOL    HW163687   2.922   4.424  20.690
17353SOL    HW263688   2.914   4.274  20.708
17354SOL     OW63689   2.683   2.292  10.081
17354SOL    HW163690   2.661   2.205  10.046
17354SOL    HW263691   2.723   2.273  10.166
17355SOL     OW63692   0.127   3.715  24.371
17355SOL    HW163693   0.091   3.678  24.290
17355SOL    HW263694   0.222   3.700  24.364
17356SOL     OW63695   1.383   0.783  17.838
17356SOL    HW163696   1.372   0.873  17.870
17356SOL    HW263697   1.349   0.786  17.748
17357SOL     OW63698   4.754   3.833  28.329
17357SOL    HW163699   4.659   3.822  28.325
17357SOL    HW263700   0.005   3.745  28.345
17358SOL     OW63701   1.937   1.886   0.806
17358SOL    HW163702   1.990   1.956   0.769
17358SOL    HW263703   1.942   1.815   0.742
17359SOL     OW63704   3.794   1.169  19.904
17359SOL    HW163705   3.870   1.180  19.847
17359SOL    HW263706   3.738   1.106  19.858
17360SOL     OW63707   3.171   2.547  21.963
17360SOL    HW163708   3.191   2.467  21.915
17360SOL    HW263709   3.162   2.614  21.895
17361SOL     OW63710   0.464   3.851   7.262
17361SOL    HW163711   0.451   3.828   7.170
17361SOL    HW263712   0.532   3.790   7.292
17362SOL     OW63713   3.724   2.989  27.616
17362SOL    HW163714   3.749   2.943  27.696
17362SOL    HW263715   3.713   3.080  27.643
17363SOL     OW63716   4.469   3.647   6.275
17363SOL    HW163717   4.441   3.556   6.281
17363SOL    HW263718   4.390   3.695   6.249
17364SOL     OW63719   0.071   4.415  21.400
17364SOL    HW163720   0.061   4.345  21.335
17364SOL    HW263721   4.765   4.433  21.431
17365SOL     OW63722   4.107   4.021  23.094
17365SOL    HW163723   4.129   4.111  23.118
17365SOL    HW263724   4.192   3.979  23.081
17366SOL     OW63725   2.718   0.495   0.250
17366SOL    HW163726   2.628   0.463   0.258
17366SOL    HW263727   2.716   0.555   0.175
17367SOL     OW63728   3.277   2.140   8.665
17367SOL    HW163729   3.259   2.111   8.576
17367SOL    HW263730   3.344   2.081   8.697
17368SOL     OW63731   3.398   0.911  25.898
17368SOL    HW163732   3.439   0.995  25.876
17368SOL    HW263733   3.400   0.862  25.816
17369SOL     OW63734   0.316   3.017  27.210
17369SOL    HW163735   0.221   3.007  27.216
17369SOL    HW263736   0.335   3.097  27.258
17370SOL     OW63737   2.776   2.330  17.243
17370SOL    HW163738   2.755   2.306  17.153
17370SOL    HW263739   2.825   2.255  17.277
17371SOL     OW63740   2.427   3.172  20.805
17371SOL    HW163741   2.433   3.080  20.779
17371SOL    HW263742   2.451   3.172  20.897
17372SOL     OW63743   2.235   1.628   7.085
17372SOL    HW163744   2.319   1.589   7.061
17372SOL    HW263745   2.176   1.603   7.014
17373SOL     OW63746   4.268   0.718  16.825
17373SOL    HW163747   4.305   0.736  16.738
17373SOL    HW263748   4.253   0.624  16.825
17374SOL     OW63749   3.762   2.753  27.752
17374SOL    HW163750   3.837   2.777  27.807
17374SOL    HW263751   3.802   2.718  27.672
17375SOL     OW63752   1.183   2.632  22.009
17375SOL    HW163753   1.096   2.672  22.004
17375SOL    HW263754   1.235   2.694  22.060
17376SOL     OW63755   3.146   3.570   8.863
17376SOL    HW163756   3.169   3.504   8.929
17376SOL    HW263757   3.076   3.530   8.812
17377SOL     OW63758   2.356   2.833   9.823
17377SOL    HW163759   2.435   2.885   9.837
17377SOL    HW263760   2.285   2.897   9.825
17378SOL     OW63761   2.722   0.979  23.953
17378SOL    HW163762   2.776   1.056  23.970
17378SOL    HW263763   2.709   0.939  24.039
17379SOL     OW63764   4.737   2.381   8.423
17379SOL    HW163765   4.741   2.344   8.512
17379SOL    HW263766   4.711   2.472   8.436
17380SOL     OW63767   3.084   4.050   7.386
17380SOL    HW163768   3.075   3.972   7.441
17380SOL    HW263769   3.103   4.121   7.447
17381SOL     OW63770   3.191   3.952  28.075
17381SOL    HW163771   3.266   3.995  28.035
17381SOL    HW263772   3.150   4.020  28.127
17382SOL     OW63773   2.615   3.759  17.470
17382SOL    HW163774   2.675   3.729  17.538
17382SOL    HW263775   2.588   3.847  17.499
17383SOL     OW63776   4.283   1.399  22.208
17383SOL    HW163777   4.313   1.369  22.123
17383SOL    HW263778   4.334   1.347  22.271
17384SOL     OW63779   4.482   4.745   0.200
17384SOL    HW163780   4.395   4.730   0.238
17384SOL    HW263781   4.526   0.021   0.262
17385SOL     OW63782   1.980   2.025   6.830
17385SOL    HW163783   2.023   2.109   6.814
17385SOL    HW263784   2.002   2.004   6.920
17386SOL     OW63785   3.072   3.670  21.930
17386SOL    HW163786   3.114   3.604  21.875
17386SOL    HW263787   3.142   3.703  21.986
17387SOL     OW63788   1.079   3.789   9.590
17387SOL    HW163789   1.165   3.747   9.593
17387SOL    HW263790   1.047   3.784   9.680
17388SOL     OW63791   2.213   1.118   6.388
17388SOL    HW163792   2.153   1.089   6.319
17388SOL    HW263793   2.240   1.206   6.360
17389SOL     OW63794   1.749   4.265   5.935
17389SOL    HW163795   1.789   4.329   5.876
17389SOL    HW263796   1.822   4.235   5.990
17390SOL     OW63797   4.373   0.351  27.701
17390SOL    HW163798   4.461   0.356  27.739
17390SOL    HW263799   4.381   0.395  27.616
17391SOL     OW63800   1.749   2.944  19.364
17391SOL    HW163801   1.824   3.004  19.355
17391SOL    HW263802   1.787   2.864  19.400
17392SOL     OW63803   0.958   1.055   8.881
17392SOL    HW163804   0.936   1.125   8.943
17392SOL    HW263805   0.973   0.978   8.936
17393SOL     OW63806   3.332   1.078   7.194
17393SOL    HW163807   3.415   1.043   7.227
17393SOL    HW263808   3.319   1.032   7.110
17394SOL     OW63809   2.618   0.259  19.571
17394SOL    HW163810   2.585   0.186  19.518
17394SOL    HW263811   2.713   0.246  19.572
17395SOL     OW63812   0.337   0.536  22.805
17395SOL    HW163813   0.297   0.519  22.720
17395SOL    HW263814   0.287   0.610  22.841
17396SOL     OW63815   1.417   1.230   9.107
17396SOL    HW163816   1.374   1.226   9.021
17396SOL    HW263817   1.510   1.221   9.087
17397SOL     OW63818   1.413   3.009   9.159
17397SOL    HW163819   1.468   3.017   9.081
17397SOL    HW263820   1.324   3.001   9.125
17398SOL     OW63821   2.938   4.485   5.590
17398SOL    HW163822   2.920   4.549   5.521
17398SOL    HW263823   2.851   4.454   5.616
17399SOL     OW63824   3.917   4.643  24.170
17399SOL    HW163825   3.976   4.643  24.094
17399SOL    HW263826   3.830   4.628  24.132
17400SOL     OW63827   3.699   0.970  19.096
17400SOL    HW163828   3.725   0.879  19.110
17400SOL    HW263829   3.720   0.988  19.005
17401SOL     OW63830   0.521   4.291   1.795
17401SOL    HW163831   0.505   4.363   1.857
17401SOL    HW263832   0.477   4.216   1.833
17402SOL     OW63833   0.064   2.742   3.391
17402SOL    HW163834   0.035   2.726   3.481
17402SOL    HW263835   0.006   2.689   3.337
17403SOL     OW63836   2.132   0.636  22.559
17403SOL    HW163837   2.076   0.570  22.518
17403SOL    HW263838   2.094   0.649  22.646
17404SOL     OW63839   0.463   1.250  23.947
17404SOL    HW163840   0.476   1.333  23.900
17404SOL    HW263841   0.495   1.268  24.035
17405SOL     OW63842   1.790   0.007  11.047
17405SOL    HW163843   1.841   4.725  11.096
17405SOL    HW263844   1.715   0.025  11.103
17406SOL     OW63845   1.202   1.808  23.073
17406SOL    HW163846   1.147   1.765  23.007
17406SOL    HW263847   1.164   1.896  23.082
17407SOL     OW63848   0.337   1.542   4.670
17407SOL    HW163849   0.390   1.572   4.597
17407SOL    HW263850   0.292   1.465   4.637
17408SOL     OW63851   2.108   1.652   4.905
17408SOL    HW163852   2.202   1.664   4.920
17408SOL    HW263853   2.098   1.663   4.811
17409SOL     OW63854   4.763   4.269  25.096
17409SOL    HW163855   4.672   4.252  25.120
17409SOL    HW263856   0.020   4.305  25.176
17410SOL     OW63857   3.745   4.428  25.355
17410SOL    HW163858   3.786   4.504  25.398
17410SOL    HW263859   3.728   4.457  25.266
17411SOL     OW63860   3.472   4.096  21.908
17411SOL    HW163861   3.503   4.033  21.973
17411SOL    HW263862   3.549   4.117  21.856
17412SOL     OW63863   4.547   3.917   2.181
17412SOL    HW163864   4.608   3.890   2.250
17412SOL    HW263865   4.476   3.959   2.228
17413SOL     OW63866   3.495   3.810  17.173
17413SOL    HW163867   3.434   3.746  17.208
17413SOL    HW263868   3.489   3.884  17.233
17414SOL     OW63869   4.053   1.218  19.670
17414SOL    HW163870   4.121   1.254  19.727
17414SOL    HW263871   4.008   1.294  19.635
17415SOL     OW63872   1.237   4.381  22.568
17415SOL    HW163873   1.184   4.302  22.563
17415SOL    HW263874   1.304   4.361  22.633
17416SOL     OW63875   4.517   3.379  23.596
17416SOL    HW163876   4.574   3.454  23.608
17416SOL    HW263877   4.462   3.378  23.675
17417SOL     OW63878   1.293   4.063  11.777
17417SOL    HW163879   1.264   4.153  11.790
17417SOL    HW263880   1.371   4.055  11.831
17418SOL     OW63881   4.266   4.772  24.013
17418SOL    HW163882   4.257   0.084  23.999
17418SOL    HW263883   4.350   4.750  23.974
17419SOL     OW63884   2.535   3.540  18.537
17419SOL    HW163885   2.530   3.520  18.630
17419SOL    HW263886   2.454   3.505  18.501
17420SOL     OW63887   3.894   4.215   3.027
17420SOL    HW163888   3.977   4.213   2.979
17420SOL    HW263889   3.908   4.159   3.103
17421SOL     OW63890   3.069   0.217  20.323
17421SOL    HW163891   3.125   0.264  20.261
17421SOL    HW263892   3.131   0.179  20.386
17422SOL     OW63893   0.220   0.547   9.945
17422SOL    HW163894   0.218   0.453   9.932
17422SOL    HW263895   0.288   0.578   9.885
17423SOL     OW63896   1.432   1.017   4.774
17423SOL    HW163897   1.432   1.098   4.723
17423SOL    HW263898   1.393   0.952   4.715
17424SOL     OW63899   3.909   0.808  26.649
17424SOL    HW163900   3.866   0.729  26.617
17424SOL    HW263901   3.962   0.779  26.724
17425SOL     OW63902   0.904   3.859  22.406
17425SOL    HW163903   0.966   3.875  22.476
17425SOL    HW263904   0.918   3.930  22.344
17426SOL     OW63905   1.006   0.087   7.173
17426SOL    HW163906   0.986   0.176   7.143
17426SOL    HW263907   0.922   0.042   7.173
17427SOL     OW63908   3.558   3.811   0.156
17427SOL    HW163909   3.497   3.883   0.141
17427SOL    HW263910   3.624   3.822   0.086
17428SOL     OW63911   2.606   3.604   4.589
17428SOL    HW163912   2.687   3.597   4.639
17428SOL    HW263913   2.632   3.585   4.499
17429SOL     OW63914   0.843   4.272  19.778
17429SOL    HW163915   0.809   4.301  19.863
17429SOL    HW263916   0.791   4.195  19.756
17430SOL     OW63917   1.625   2.347   3.132
17430SOL    HW163918   1.592   2.395   3.208
17430SOL    HW263919   1.636   2.257   3.163
17431SOL     OW63920   3.873   4.674   6.003
17431SOL    HW163921   3.954   4.623   5.997
17431SOL    HW263922   3.884   4.744   5.939
17432SOL     OW63923   2.635   4.172   8.433
17432SOL    HW163924   2.546   4.201   8.456
17432SOL    HW263925   2.692   4.240   8.468
17433SOL     OW63926   1.277   1.007  16.317
17433SOL    HW163927   1.364   0.976  16.294
17433SOL    HW263928   1.220   0.973  16.248
17434SOL     OW63929   1.842   1.152  22.704
17434SOL    HW163930   1.881   1.131  22.619
17434SOL    HW263931   1.758   1.107  22.703
17435SOL     OW63932   2.368   0.454  19.148
17435SOL    HW163933   2.351   0.374  19.197
17435SOL    HW263934   2.285   0.501  19.149
17436SOL     OW63935   1.646   3.512  20.708
17436SOL    HW163936   1.586   3.511  20.633
17436SOL    HW263937   1.733   3.520  20.668
17437SOL     OW63938   1.265   1.091  27.923
17437SOL    HW163939   1.257   1.126  28.011
17437SOL    HW263940   1.329   1.148  27.880
17438SOL     OW63941   1.908   0.098   4.559
17438SOL    HW163942   1.858   0.046   4.496
17438SOL    HW263943   1.886   0.189   4.539
17439SOL     OW63944   2.702   3.178  18.055
17439SOL    HW163945   2.723   3.085  18.048
17439SOL    HW263946   2.665   3.200  17.969
17440SOL     OW63947   1.654   3.985   8.236
17440SOL    HW163948   1.562   4.004   8.219
17440SOL    HW263949   1.679   4.046   8.305
17441SOL     OW63950   2.978   4.600   3.110
17441SOL    HW163951   2.895   4.625   3.149
17441SOL    HW263952   2.975   4.504   3.105
17442SOL     OW63953   1.678   2.694  28.342
17442SOL    HW163954   1.695   2.657  28.255
17442SOL    HW263955   1.708   2.784  28.335
17443SOL     OW63956   2.779   3.100  22.670
17443SOL    HW163957   2.690   3.073  22.648
17443SOL    HW263958   2.792   3.070  22.760
17444SOL     OW63959   2.151   4.107  20.163
17444SOL    HW163960   2.066   4.126  20.202
17444SOL    HW263961   2.188   4.038  20.218
17445SOL     OW63962   4.701   2.833  25.489
17445SOL    HW163963   4.695   2.850  25.583
17445SOL    HW263964   4.743   2.912  25.454
17446SOL     OW63965   2.705   3.416   2.069
17446SOL    HW163966   2.737   3.375   2.150
17446SOL    HW263967   2.689   3.507   2.094
17447SOL     OW63968   4.636   1.207   4.697
17447SOL    HW163969   4.616   1.114   4.702
17447SOL    HW263970   4.670   1.221   4.609
17448SOL     OW63971   3.869   0.207   9.387
17448SOL    HW163972   3.951   0.158   9.385
17448SOL    HW263973   3.893   0.291   9.427
17449SOL     OW63974   4.173   2.470   0.068
17449SOL    HW163975   4.254   2.462   0.119
17449SOL    HW263976   4.146   2.561   0.081
17450SOL     OW63977   2.812   2.120  21.436
17450SOL    HW163978   2.858   2.073  21.367
17450SOL    HW263979   2.736   2.064  21.456
17451SOL     OW63980   1.471   2.552   1.304
17451SOL    HW163981   1.537   2.523   1.368
17451SOL    HW263982   1.474   2.485   1.235
17452SOL     OW63983   3.481   1.695   3.205
17452SOL    HW163984   3.542   1.686   3.131
17452SOL    HW263985   3.453   1.786   3.203
17453SOL     OW63986   4.406   4.478  25.394
17453SOL    HW163987   4.443   4.542  25.455
17453SOL    HW263988   4.333   4.523  25.353
17454SOL     OW63989   4.064   0.428  21.616
17454SOL    HW163990   4.087   0.436  21.709
17454SOL    HW263991   4.006   0.502  21.599
17455SOL     OW63992   4.450   4.206   3.512
17455SOL    HW163993   4.541   4.183   3.491
17455SOL    HW263994   4.456   4.292   3.554
17456SOL     OW63995   0.818   0.691  23.791
17456SOL    HW163996   0.750   0.668  23.854
17456SOL    HW263997   0.786   0.658  23.708
17457SOL     OW63998   1.086   3.883  24.799
17457SOL    HW163999   1.125   3.855  24.882
17457SOL    HW264000   1.045   3.967  24.818
17458SOL     OW64001   2.273   2.386   7.002
17458SOL    HW164002   2.335   2.372   6.930
17458SOL    HW264003   2.328   2.418   7.074
17459SOL     OW64004   0.931   0.007  20.964
17459SOL    HW164005   0.867   0.037  21.028
17459SOL    HW264006   0.905   0.050  20.882
17460SOL     OW64007   1.787   1.275  23.287
17460SOL    HW164008   1.745   1.354  23.252
17460SOL    HW264009   1.844   1.245  23.217
17461SOL     OW64010   2.208   1.515   1.589
17461SOL    HW164011   2.254   1.453   1.533
17461SOL    HW264012   2.214   1.599   1.544
17462SOL     OW64013   3.678   4.698   0.823
17462SOL    HW164014   3.703   4.664   0.737
17462SOL    HW264015   3.600   4.647   0.847
17463SOL     OW64016   2.419   3.119  27.483
17463SOL    HW164017   2.364   3.100  27.407
17463SOL    HW264018   2.367   3.182  27.534
17464SOL     OW64019   1.921   4.141  27.734
17464SOL    HW164020   1.978   4.214  27.760
17464SOL    HW264021   1.904   4.156  27.641
17465SOL     OW64022   3.650   2.703  25.844
17465SOL    HW164023   3.704   2.751  25.781
17465SOL    HW264024   3.669   2.611  25.827
17466SOL     OW64025   4.477   1.026   4.420
17466SOL    HW164026   4.408   1.012   4.355
17466SOL    HW264027   4.499   0.938   4.450
17467SOL     OW64028   3.525   2.108   6.932
17467SOL    HW164029   3.593   2.174   6.916
17467SOL    HW264030   3.544   2.038   6.869
17468SOL     OW64031   0.638   1.160  20.765
17468SOL    HW164032   0.648   1.160  20.860
17468SOL    HW264033   0.697   1.229  20.735
17469SOL     OW64034   1.235   3.478  22.612
17469SOL    HW164035   1.146   3.445  22.617
17469SOL    HW264036   1.258   3.474  22.519
17470SOL     OW64037   2.996   0.489   0.741
17470SOL    HW164038   3.035   0.575   0.726
17470SOL    HW264039   2.914   0.491   0.692
17471SOL     OW64040   4.714   0.428  26.979
17471SOL    HW164041   4.773   0.357  27.003
17471SOL    HW264042   4.766   0.508  26.991
17472SOL     OW64043   2.451   1.405  23.071
17472SOL    HW164044   2.417   1.317  23.089
17472SOL    HW264045   2.517   1.419  23.139
17473SOL     OW64046   3.670   2.948   4.398
17473SOL    HW164047   3.657   3.040   4.421
17473SOL    HW264048   3.634   2.900   4.472
17474SOL     OW64049   2.650   1.051  20.682
17474SOL    HW164050   2.643   1.017  20.593
17474SOL    HW264051   2.743   1.047  20.702
17475SOL     OW64052   1.883   2.850   9.450
17475SOL    HW164053   1.975   2.853   9.479
17475SOL    HW264054   1.856   2.942   9.446
17476SOL     OW64055   3.223   0.794   1.004
17476SOL    HW164056   3.185   0.800   1.092
17476SOL    HW264057   3.317   0.786   1.020
17477SOL     OW64058   0.994   3.459  20.817
17477SOL    HW164059   1.005   3.545  20.857
17477SOL    HW264060   1.074   3.446  20.766
17478SOL     OW64061   1.106   2.541   0.409
17478SOL    HW164062   1.162   2.542   0.331
17478SOL    HW264063   1.141   2.611   0.464
17479SOL     OW64064   0.011   0.300   8.743
17479SOL    HW164065   0.001   0.293   8.648
17479SOL    HW264066   0.003   0.393   8.761
17480SOL     OW64067   2.975   2.929  26.723
17480SOL    HW164068   2.987   3.007  26.776
17480SOL    HW264069   2.885   2.901  26.742
17481SOL     OW64070   3.925   3.699   5.833
17481SOL    HW164071   3.873   3.718   5.755
17481SOL    HW264072   3.981   3.626   5.807
17482SOL     OW64073   2.871   3.027   1.250
17482SOL    HW164074   2.824   3.085   1.191
17482SOL    HW264075   2.877   3.075   1.333
17483SOL     OW64076   2.792   4.300   2.228
17483SOL    HW164077   2.841   4.320   2.148
17483SOL    HW264078   2.722   4.365   2.230
17484SOL     OW64079   0.270   3.329   9.072
17484SOL    HW164080   0.340   3.278   9.112
17484SOL    HW264081   0.207   3.263   9.042
17485SOL     OW64082   4.542   2.184  27.183
17485SOL    HW164083   4.455   2.223  27.190
17485SOL    HW264084   4.601   2.250  27.220
17486SOL     OW64085   2.345   3.370  26.908
17486SOL    HW164086   2.295   3.316  26.968
17486SOL    HW264087   2.321   3.338  26.821
17487SOL     OW64088   0.089   3.999  22.693
17487SOL    HW164089   0.120   4.075  22.742
17487SOL    HW264090   0.166   3.965  22.649
17488SOL     OW64091   3.490   3.458  17.967
17488SOL    HW164092   3.533   3.544  17.973
17488SOL    HW264093   3.499   3.433  17.876
17489SOL     OW64094   2.600   2.929  21.829
17489SOL    HW164095   2.591   2.847  21.877
17489SOL    HW264096   2.692   2.931  21.803
17490SOL     OW64097   0.184   1.598  16.007
17490SOL    HW164098   0.223   1.680  15.975
17490SOL    HW264099   0.258   1.549  16.042
17491SOL     OW64100   0.517   4.276   6.300
17491SOL    HW164101   0.541   4.208   6.363
17491SOL    HW264102   0.515   4.231   6.216
17492SOL     OW64103   0.233   1.266  11.325
17492SOL    HW164104   0.244   1.340  11.384
17492SOL    HW264105   0.147   1.230  11.347
17493SOL     OW64106   3.913   1.437  19.573
17493SOL    HW164107   3.963   1.514  19.544
17493SOL    HW264108   3.847   1.473  19.632
17494SOL     OW64109   2.422   3.049   8.188
17494SOL    HW164110   2.354   3.084   8.131
17494SOL    HW264111   2.500   3.100   8.167
17495SOL     OW64112   2.424   2.077  26.966
17495SOL    HW164113   2.397   2.087  26.875
17495SOL    HW264114   2.475   1.996  26.967
17496SOL     OW64115   4.007   3.546   1.387
17496SOL    HW164116   4.021   3.526   1.480
17496SOL    HW264117   4.094   3.542   1.349
17497SOL     OW64118   2.538   1.965  18.824
17497SOL    HW164119   2.467   1.939  18.882
17497SOL    HW264120   2.499   2.028  18.764
17498SOL     OW64121   1.944   0.806   3.866
17498SOL    HW164122   1.849   0.789   3.867
17498SOL    HW264123   1.984   0.720   3.878
17499SOL     OW64124   2.312   1.563   2.140
17499SOL    HW164125   2.235   1.592   2.190
17499SOL    HW264126   2.302   1.604   2.054
17500SOL     OW64127   1.878   3.852  18.596
17500SOL    HW164128   1.818   3.901  18.653
17500SOL    HW264129   1.872   3.762  18.628
17501SOL     OW64130   1.857   1.475  24.971
17501SOL    HW164131   1.929   1.532  24.944
17501SOL    HW264132   1.778   1.528  24.961
17502SOL     OW64133   1.013   0.195   3.449
17502SOL    HW164134   0.934   0.180   3.397
17502SOL    HW264135   1.073   0.126   3.422
17503SOL     OW64136   3.024   3.432  23.410
17503SOL    HW164137   3.058   3.349  23.443
17503SOL    HW264138   3.075   3.499  23.457
17504SOL     OW64139   2.683   0.185   7.189
17504SOL    HW164140   2.637   0.268   7.178
17504SOL    HW264141   2.755   0.189   7.126
17505SOL     OW64142   2.753   0.455   1.732
17505SOL    HW164143   2.705   0.376   1.707
17505SOL    HW264144   2.786   0.490   1.649
17506SOL     OW64145   0.329   0.272   3.375
17506SOL    HW164146   0.352   0.221   3.297
17506SOL    HW264147   0.239   0.246   3.395
17507SOL     OW64148   0.374   3.788  28.380
17507SOL    HW164149   0.315   3.723  28.417
17507SOL    HW264150   0.342   3.871  28.415
17508SOL     OW64151   3.450   3.622   4.139
17508SOL    HW164152   3.478   3.704   4.099
17508SOL    HW264153   3.368   3.600   4.095
17509SOL     OW64154   0.327   2.936  26.934
17509SOL    HW164155   0.232   2.930  26.947
17509SOL    HW264156   0.361   2.960  27.020
17510SOL     OW64157   3.555   3.972   1.451
17510SOL    HW164158   3.480   4.024   1.478
17510SOL    HW264159   3.554   3.976   1.355
17511SOL     OW64160   3.895   1.525   7.659
17511SOL    HW164161   3.973   1.506   7.606
17511SOL    HW264162   3.902   1.618   7.679
17512SOL     OW64163   2.569   1.146   7.954
17512SOL    HW164164   2.571   1.206   7.879
17512SOL    HW264165   2.616   1.193   8.023
17513SOL     OW64166   2.306   1.816  21.049
17513SOL    HW164167   2.351   1.746  21.097
17513SOL    HW264168   2.361   1.832  20.973
17514SOL     OW64169   4.184   2.218   5.123
17514SOL    HW164170   4.220   2.185   5.041
17514SOL    HW264171   4.257   2.210   5.186
17515SOL     OW64172   4.303   1.337  25.802
17515SOL    HW164173   4.311   1.250  25.841
17515SOL    HW264174   4.216   1.366  25.827
17516SOL     OW64175   0.683   2.589   6.243
17516SOL    HW164176   0.665   2.677   6.210
17516SOL    HW264177   0.636   2.585   6.327
17517SOL     OW64178   4.289   1.708  26.069
17517SOL    HW164179   4.322   1.732  26.156
17517SOL    HW264180   4.332   1.770  26.010
17518SOL     OW64181   4.595   1.366  21.136
17518SOL    HW164182   4.557   1.292  21.089
17518SOL    HW264183   4.685   1.340  21.153
17519SOL     OW64184   0.481   1.250   3.090
17519SOL    HW164185   0.395   1.238   3.051
17519SOL    HW264186   0.492   1.175   3.149
17520SOL     OW64187   0.611   3.581  22.845
17520SOL    HW164188   0.628   3.494  22.880
17520SOL    HW264189   0.517   3.594  22.859
17521SOL     OW64190   1.472   0.374  11.111
17521SOL    HW164191   1.453   0.322  11.033
17521SOL    HW264192   1.532   0.442  11.081
17522SOL     OW64193   2.997   3.238   2.027
17522SOL    HW164194   2.931   3.170   2.040
17522SOL    HW264195   3.035   3.251   2.114
17523SOL     OW64196   1.216   1.018  17.408
17523SOL    HW164197   1.209   1.089  17.473
17523SOL    HW264198   1.136   1.027  17.356
17524SOL     OW64199   2.118   2.335  24.301
17524SOL    HW164200   2.156   2.422  24.308
17524SOL    HW264201   2.128   2.297  24.388
17525SOL     OW64202   2.410   4.545  23.656
17525SOL    HW164203   2.318   4.562  23.635
17525SOL    HW264204   2.407   4.468  23.713
17526SOL     OW64205   0.621   3.373  25.143
17526SOL    HW164206   0.636   3.368  25.049
17526SOL    HW264207   0.615   3.282  25.172
17527SOL     OW64208   3.430   0.070   5.075
17527SOL    HW164209   3.490   0.041   5.143
17527SOL    HW264210   3.486   0.099   5.004
17528SOL     OW64211   1.750   2.695   8.169
17528SOL    HW164212   1.770   2.606   8.198
17528SOL    HW264213   1.696   2.731   8.239
17529SOL     OW64214   0.237   4.364  26.682
17529SOL    HW164215   0.297   4.434  26.658
17529SOL    HW264216   0.160   4.378  26.627
17530SOL     OW64217   1.705   1.715  26.692
17530SOL    HW164218   1.700   1.756  26.606
17530SOL    HW264219   1.799   1.703  26.708
17531SOL     OW64220   2.917   2.124   1.502
17531SOL    HW164221   2.857   2.054   1.477
17531SOL    HW264222   2.942   2.103   1.592
17532SOL     OW64223   3.866   3.820  10.952
17532SOL    HW164224   3.864   3.761  10.877
17532SOL    HW264225   3.923   3.892  10.924
17533SOL     OW64226   3.131   3.481  22.790
17533SOL    HW164227   3.196   3.479  22.860
17533SOL    HW264228   3.129   3.572  22.761
17534SOL     OW64229   4.602   3.666  23.577
17534SOL    HW164230   4.594   3.709  23.492
17534SOL    HW264231   4.560   3.727  23.638
17535SOL     OW64232   1.189   4.220  10.676
17535SOL    HW164233   1.167   4.202  10.767
17535SOL    HW264234   1.115   4.187  10.626
17536SOL     OW64235   3.785   0.733  20.541
17536SOL    HW164236   3.791   0.659  20.601
17536SOL    HW264237   3.714   0.786  20.576
17537SOL     OW64238   4.440   2.793   5.600
17537SOL    HW164239   4.375   2.780   5.668
17537SOL    HW264240   4.408   2.743   5.525
17538SOL     OW64241   1.874   3.700  25.903
17538SOL    HW164242   1.841   3.617  25.937
17538SOL    HW264243   1.900   3.750  25.980
17539SOL     OW64244   2.128   0.800   7.606
17539SOL    HW164245   2.146   0.726   7.549
17539SOL    HW264246   2.176   0.873   7.567
17540SOL     OW64247   4.663   1.805   1.536
17540SOL    HW164248   4.731   1.770   1.595
17540SOL    HW264249   4.599   1.734   1.528
17541SOL     OW64250   1.613   1.797  28.006
17541SOL    HW164251   1.522   1.768  27.994
17541SOL    HW264252   1.666   1.724  27.975
17542SOL     OW64253   3.570   2.615   8.584
17542SOL    HW164254   3.621   2.646   8.659
17542SOL    HW264255   3.572   2.519   8.593
17543SOL     OW64256   2.944   2.975  21.100
17543SOL    HW164257   2.882   3.043  21.127
17543SOL    HW264258   3.011   3.023  21.051
17544SOL     OW64259   4.676   3.202   0.282
17544SOL    HW164260   4.656   3.138   0.350
17544SOL    HW264261   4.592   3.245   0.265
17545SOL     OW64262   2.861   1.994  19.710
17545SOL    HW164263   2.807   1.934  19.762
17545SOL    HW264264   2.799   2.036  19.650
17546SOL     OW64265   2.860   2.739  22.687
17546SOL    HW164266   2.816   2.775  22.610
17546SOL    HW264267   2.945   2.782  22.689
17547SOL     OW64268   1.066   1.581   4.251
17547SOL    HW164269   1.152   1.584   4.210
17547SOL    HW264270   1.085   1.569   4.344
17548SOL     OW64271   0.543   3.179  27.918
17548SOL    HW164272   0.623   3.204  27.965
17548SOL    HW264273   0.518   3.257  27.869
17549SOL     OW64274   4.276   2.752   6.538
17549SOL    HW164275   4.285   2.657   6.533
17549SOL    HW264276   4.328   2.785   6.465
17550SOL     OW64277   4.106   0.635  28.139
17550SOL    HW164278   4.062   0.643  28.224
17550SOL    HW264279   4.062   0.700  28.084
17551SOL     OW64280   4.249   1.802  21.759
17551SOL    HW164281   4.267   1.722  21.709
17551SOL    HW264282   4.312   1.865  21.725
17552SOL     OW64283   1.283   4.201   6.964
17552SOL    HW164284   1.236   4.121   6.939
17552SOL    HW264285   1.218   4.253   7.012
17553SOL     OW64286   3.253   2.849  20.964
17553SOL    HW164287   3.329   2.838  20.907
17553SOL    HW264288   3.210   2.928  20.931
17554SOL     OW64289   1.452   1.511   9.425
17554SOL    HW164290   1.403   1.445   9.475
17554SOL    HW264291   1.543   1.495   9.447
17555SOL     OW64292   0.659   3.960   0.797
17555SOL    HW164293   0.676   3.889   0.736
17555SOL    HW264294   0.574   3.994   0.771
17556SOL     OW64295   3.831   2.681   4.404
17556SOL    HW164296   3.812   2.682   4.310
17556SOL    HW264297   3.745   2.688   4.445
17557SOL     OW64298   4.744   4.155  27.029
17557SOL    HW164299   0.008   4.235  27.055
17557SOL    HW264300   4.751   4.153  26.934
17558SOL     OW64301   3.418   3.156   3.894
17558SOL    HW164302   3.465   3.239   3.891
17558SOL    HW264303   3.447   3.109   3.816
17559SOL     OW64304   2.500   2.769   2.374
17559SOL    HW164305   2.586   2.797   2.407
17559SOL    HW264306   2.438   2.830   2.415
17560SOL     OW64307   0.827   4.282   6.271
17560SOL    HW164308   0.804   4.237   6.352
17560SOL    HW264309   0.873   4.216   6.218
17561SOL     OW64310   1.118   3.263   7.770
17561SOL    HW164311   1.208   3.240   7.793
17561SOL    HW264312   1.097   3.208   7.695
17562SOL     OW64313   3.048   0.088   2.615
17562SOL    HW164314   3.105   0.136   2.555
17562SOL    HW264315   3.108   0.036   2.669
17563SOL     OW64316   0.360   3.432   9.620
17563SOL    HW164317   0.372   3.361   9.556
17563SOL    HW264318   0.444   3.436   9.666
17564SOL     OW64319   3.765   4.713   4.900
17564SOL    HW164320   3.752   4.702   4.994
17564SOL    HW264321   3.776   0.025   4.889
17565SOL     OW64322   0.460   0.164  22.978
17565SOL    HW164323   0.413   0.191  22.900
17565SOL    HW264324   0.548   0.198  22.966
17566SOL     OW64325   4.420   3.562   5.345
17566SOL    HW164326   4.481   3.490   5.329
17566SOL    HW264327   4.398   3.555   5.437
17567SOL     OW64328   0.668   2.237   1.605
17567SOL    HW164329   0.623   2.175   1.548
17567SOL    HW264330   0.761   2.215   1.596
17568SOL     OW64331   2.689   3.451   8.571
17568SOL    HW164332   2.666   3.494   8.489
17568SOL    HW264333   2.613   3.397   8.593
17569SOL     OW64334   3.130   1.195   9.654
17569SOL    HW164335   3.094   1.160   9.735
17569SOL    HW264336   3.203   1.138   9.632
17570SOL     OW64337   1.767   2.169  27.058
17570SOL    HW164338   1.733   2.226  26.989
17570SOL    HW264339   1.719   2.087  27.048
17571SOL     OW64340   3.812   1.199   2.831
17571SOL    HW164341   3.737   1.211   2.889
17571SOL    HW264342   3.774   1.196   2.743
17572SOL     OW64343   2.881   4.077  27.935
17572SOL    HW164344   2.938   4.013  27.979
17572SOL    HW264345   2.815   4.024  27.891
17573SOL     OW64346   3.729   1.803  19.813
17573SOL    HW164347   3.758   1.752  19.889
17573SOL    HW264348   3.643   1.837  19.839
17574SOL     OW64349   1.293   4.607   6.666
17574SOL    HW164350   1.368   4.546   6.664
17574SOL    HW264351   1.322   4.678   6.723
17575SOL     OW64352   3.064   2.819  28.404
17575SOL    HW164353   3.131   2.818  28.472
17575SOL    HW264354   3.043   2.727  28.389
17576SOL     OW64355   1.815   0.987   2.195
17576SOL    HW164356   1.727   0.989   2.235
17576SOL    HW264357   1.863   1.057   2.239
17577SOL     OW64358   1.185   2.147   7.024
17577SOL    HW164359   1.136   2.088   7.081
17577SOL    HW264360   1.253   2.092   6.986
17578SOL     OW64361   3.958   4.568   4.762
17578SOL    HW164362   3.943   4.477   4.786
17578SOL    HW264363   3.890   4.617   4.808
17579SOL     OW64364   3.570   1.166  21.990
17579SOL    HW164365   3.664   1.182  21.993
17579SOL    HW264366   3.541   1.207  21.909
17580SOL     OW64367   0.792   0.326  26.895
17580SOL    HW164368   0.743   0.262  26.947
17580SOL    HW264369   0.743   0.408  26.905
17581SOL     OW64370   2.244   4.164   6.031
17581SOL    HW164371   2.322   4.215   6.011
17581SOL    HW264372   2.271   4.073   6.018
17582SOL     OW64373   0.692   1.299   5.285
17582SOL    HW164374   0.623   1.246   5.246
17582SOL    HW264375   0.657   1.326   5.370
17583SOL     OW64376   2.569   2.223   3.940
17583SOL    HW164377   2.560   2.176   4.023
17583SOL    HW264378   2.638   2.287   3.956
17584SOL     OW64379   1.177   3.930  25.060
17584SOL    HW164380   1.155   4.010  25.108
17584SOL    HW264381   1.116   3.865  25.093
17585SOL     OW64382   2.255   2.705   4.665
17585SOL    HW164383   2.267   2.780   4.607
17585SOL    HW264384   2.243   2.631   4.605
17586SOL     OW64385   2.629   2.148  19.559
17586SOL    HW164386   2.563   2.079  19.569
17586SOL    HW264387   2.600   2.199  19.483
17587SOL     OW64388   4.150   0.798   0.939
17587SOL    HW164389   4.101   0.753   0.869
17587SOL    HW264390   4.205   0.861   0.892
17588SOL     OW64391   3.236   0.004   8.209
17588SOL    HW164392   3.202   0.094   8.207
17588SOL    HW264393   3.196   4.747   8.287
17589SOL     OW64394   0.566   0.897   4.303
17589SOL    HW164395   0.642   0.845   4.330
17589SOL    HW264396   0.556   0.879   4.210
17590SOL     OW64397   1.424   4.154   8.539
17590SOL    HW164398   1.473   4.083   8.498
17590SOL    HW264399   1.344   4.112   8.570
17591SOL     OW64400   4.495   3.492  25.471
17591SOL    HW164401   4.413   3.443  25.472
17591SOL    HW264402   4.528   3.484  25.560
17592SOL     OW64403   3.312   0.143  20.440
17592SOL    HW164404   3.396   0.098  20.448
17592SOL    HW264405   3.318   0.216  20.502
17593SOL     OW64406   2.058   0.948  26.871
17593SOL    HW164407   2.023   1.003  26.941
17593SOL    HW264408   2.086   0.868  26.915
17594SOL     OW64409   2.777   0.427  18.614
17594SOL    HW164410   2.715   0.363  18.579
17594SOL    HW264411   2.773   0.414  18.709
17595SOL     OW64412   2.068   1.067  27.952
17595SOL    HW164413   2.050   0.998  27.889
17595SOL    HW264414   2.125   1.128  27.905
17596SOL     OW64415   4.730   3.846   2.345
17596SOL    HW164416   4.752   3.753   2.339
17596SOL    HW264417   0.033   3.890   2.348
17597SOL     OW64418   0.667   4.572  23.929
17597SOL    HW164419   0.651   4.610  24.016
17597SOL    HW264420   0.757   4.597  23.908
17598SOL     OW64421   3.555   3.728  21.776
17598SOL    HW164422   3.603   3.672  21.838
17598SOL    HW264423   3.469   3.738  21.816
17599SOL     OW64424   4.329   0.022  19.842
17599SOL    HW164425   4.302   0.011  19.933
17599SOL    HW264426   4.328   4.716  19.806
17600SOL     OW64427   0.674   0.638   5.166
17600SOL    HW164428   0.703   0.672   5.082
17600SOL    HW264429   0.589   0.679   5.181
17601SOL     OW64430   4.708   1.853   9.101
17601SOL    HW164431   4.690   1.887   9.013
17601SOL    HW264432   4.733   1.929   9.152
17602SOL     OW64433   3.359   0.256  26.988
17602SOL    HW164434   3.376   0.332  27.044
17602SOL    HW264435   3.443   0.211  26.983
17603SOL     OW64436   4.225   1.407   5.707
17603SOL    HW164437   4.163   1.378   5.640
17603SOL    HW264438   4.265   1.326   5.739
17604SOL     OW64439   4.215   2.080   8.863
17604SOL    HW164440   4.159   2.039   8.930
17604SOL    HW264441   4.283   2.015   8.846
17605SOL     OW64442   4.468   0.740   1.292
17605SOL    HW164443   4.547   0.707   1.334
17605SOL    HW264444   4.411   0.664   1.286
17606SOL     OW64445   2.100   4.296  26.153
17606SOL    HW164446   2.127   4.367  26.211
17606SOL    HW264447   2.173   4.285  26.092
17607SOL     OW64448   3.457   1.975   8.764
17607SOL    HW164449   3.551   1.986   8.755
17607SOL    HW264450   3.443   1.958   8.857
17608SOL     OW64451   1.159   3.237   7.073
17608SOL    HW164452   1.237   3.225   7.018
17608SOL    HW264453   1.161   3.162   7.133
17609SOL     OW64454   4.252   3.493  10.596
17609SOL    HW164455   4.207   3.409  10.605
17609SOL    HW264456   4.183   3.556  10.574
17610SOL     OW64457   1.226   0.524  20.498
17610SOL    HW164458   1.290   0.539  20.429
17610SOL    HW264459   1.239   0.598  20.558
17611SOL     OW64460   1.774   2.879   2.175
17611SOL    HW164461   1.852   2.908   2.223
17611SOL    HW264462   1.704   2.880   2.240
17612SOL     OW64463   1.711   1.092   1.739
17612SOL    HW164464   1.632   1.044   1.764
17612SOL    HW264465   1.761   1.099   1.820
17613SOL     OW64466   3.443   4.673  20.471
17613SOL    HW164467   3.387   4.654  20.396
17613SOL    HW264468   3.382   4.700  20.540
17614SOL     OW64469   0.932   0.841   7.206
17614SOL    HW164470   0.864   0.904   7.182
17614SOL    HW264471   1.010   0.894   7.222
17615SOL     OW64472   4.722   4.549  28.004
17615SOL    HW164473   4.696   4.620  28.062
17615SOL    HW264474   4.641   4.504  27.982
17616SOL     OW64475   0.300   2.182  25.611
17616SOL    HW164476   0.340   2.268  25.597
17616SOL    HW264477   0.313   2.165  25.705
17617SOL     OW64478   3.098   0.150   7.190
17617SOL    HW164479   3.126   0.220   7.130
17617SOL    HW264480   3.045   0.092   7.135
17618SOL     OW64481   0.477   1.517  26.411
17618SOL    HW164482   0.526   1.447  26.367
17618SOL    HW264483   0.535   1.546  26.481
17619SOL     OW64484   3.191   2.142   1.128
17619SOL    HW164485   3.227   2.118   1.043
17619SOL    HW264486   3.159   2.059   1.165
17620SOL     OW64487   3.130   0.605   7.014
17620SOL    HW164488   3.134   0.698   6.991
17620SOL    HW264489   3.135   0.604   7.110
17621SOL     OW64490   2.528   4.492  26.753
17621SOL    HW164491   2.538   4.555  26.824
17621SOL    HW264492   2.439   4.504  26.722
17622SOL     OW64493   3.053   3.003   0.298
17622SOL    HW164494   3.136   2.975   0.336
17622SOL    HW264495   3.076   3.078   0.242
17623SOL     OW64496   4.744   1.908  20.632
17623SOL    HW164497   0.022   1.983  20.630
17623SOL    HW264498   4.704   1.908  20.545
17624SOL     OW64499   2.878   0.318  21.570
17624SOL    HW164500   2.867   0.276  21.484
17624SOL    HW264501   2.973   0.324  21.581
17625SOL     OW64502   4.633   1.541  28.301
17625SOL    HW164503   4.617   1.605  28.232
17625SOL    HW264504   4.667   1.464  28.255
17626SOL     OW64505   4.243   4.081   6.907
17626SOL    HW164506   4.323   4.121   6.940
17626SOL    HW264507   4.272   3.996   6.872
17627SOL     OW64508   4.469   0.553  25.286
17627SOL    HW164509   4.552   0.600  25.274
17627SOL    HW264510   4.445   0.571  25.377
17628SOL     OW64511   3.786   0.644   5.889
17628SOL    HW164512   3.795   0.643   5.984
17628SOL    HW264513   3.704   0.598   5.871
17629SOL     OW64514   2.715   3.739  28.151
17629SOL    HW164515   2.654   3.704  28.086
17629SOL    HW264516   2.800   3.735  28.108
17630SOL     OW64517   3.727   0.680   4.171
17630SOL    HW164518   3.774   0.761   4.194
17630SOL    HW264519   3.650   0.681   4.228
17631SOL     OW64520   4.214   3.729  10.102
17631SOL    HW164521   4.237   3.710  10.193
17631SOL    HW264522   4.141   3.791  10.108
17632SOL     OW64523   2.535   4.333   2.358
17632SOL    HW164524   2.507   4.245   2.334
17632SOL    HW264525   2.464   4.390   2.328
17633SOL     OW64526   0.547   4.172   4.118
17633SOL    HW164527   0.495   4.129   4.051
17633SOL    HW264528   0.537   4.118   4.196
17634SOL     OW64529   1.592   3.499   4.641
17634SOL    HW164530   1.655   3.485   4.711
17634SOL    HW264531   1.547   3.414   4.631
17635SOL     OW64532   0.066   0.904  24.000
17635SOL    HW164533   0.130   0.846  23.959
17635SOL    HW264534   0.082   0.990  23.962
17636SOL     OW64535   0.513   1.986   1.817
17636SOL    HW164536   0.515   1.938   1.900
17636SOL    HW264537   0.535   2.076   1.841
17637SOL     OW64538   0.288   3.088  28.138
17637SOL    HW164539   0.194   3.070  28.140
17637SOL    HW264540   0.311   3.083  28.045
17638SOL     OW64541   4.680   3.687   6.463
17638SOL    HW164542   4.609   3.668   6.402
17638SOL    HW264543   4.757   3.701   6.406
17639SOL     OW64544   4.507   2.759  24.830
17639SOL    HW164545   4.510   2.663  24.828
17639SOL    HW264546   4.538   2.781  24.918
17640SOL     OW64547   3.362   2.054  26.999
17640SOL    HW164548   3.313   2.136  27.008
17640SOL    HW264549   3.311   2.003  26.936
17641SOL     OW64550   3.383   4.171   4.613
17641SOL    HW164551   3.362   4.235   4.681
17641SOL    HW264552   3.310   4.109   4.615
17642SOL     OW64553   2.254   1.921   8.076
17642SOL    HW164554   2.214   1.968   8.149
17642SOL    HW264555   2.183   1.870   8.038
17643SOL     OW64556   0.451   3.934   2.971
17643SOL    HW164557   0.482   4.025   2.974
17643SOL    HW264558   0.429   3.920   2.878
17644SOL     OW64559   2.536   4.402   5.937
17644SOL    HW164560   2.596   4.429   6.007
17644SOL    HW264561   2.455   4.449   5.955
17645SOL     OW64562   3.486   1.346  24.907
17645SOL    HW164563   3.391   1.333  24.902
17645SOL    HW264564   3.521   1.257  24.915
17646SOL     OW64565   1.748   3.458  26.005
17646SOL    HW164566   1.667   3.415  25.979
17646SOL    HW264567   1.812   3.387  26.009
17647SOL     OW64568   3.613   1.394   0.238
17647SOL    HW164569   3.633   1.301   0.229
17647SOL    HW264570   3.624   1.430   0.150
17648SOL     OW64571   4.309   0.458  10.411
17648SOL    HW164572   4.400   0.479  10.436
17648SOL    HW264573   4.297   0.367  10.435
17649SOL     OW64574   3.857   4.677  20.053
17649SOL    HW164575   3.868   4.758  20.004
17649SOL    HW264576   3.779   4.691  20.107
17650SOL     OW64577   1.733   4.387  20.902
17650SOL    HW164578   1.721   4.349  20.989
17650SOL    HW264579   1.824   4.414  20.900
17651SOL     OW64580   0.788   0.797  17.194
17651SOL    HW164581   0.804   0.734  17.124
17651SOL    HW264582   0.721   0.856  17.159
17652SOL     OW64583   2.102   2.355   1.825
17652SOL    HW164584   2.156   2.306   1.763
17652SOL    HW264585   2.043   2.406   1.770
17653SOL     OW64586   2.836   1.083  24.196
17653SOL    HW164587   2.893   1.008  24.178
17653SOL    HW264588   2.879   1.157  24.152
17654SOL     OW64589   4.092   3.259   0.504
17654SOL    HW164590   4.032   3.217   0.442
17654SOL    HW264591   4.136   3.186   0.547
17655SOL     OW64592   1.411   0.005   4.649
17655SOL    HW164593   1.417   0.009   4.745
17655SOL    HW264594   1.413   4.694   4.629
17656SOL     OW64595   2.671   3.384  26.695
17656SOL    HW164596   2.739   3.450  26.708
17656SOL    HW264597   2.641   3.398  26.605
17657SOL     OW64598   1.197   2.087  22.733
17657SOL    HW164599   1.110   2.057  22.709
17657SOL    HW264600   1.255   2.046  22.669
17658SOL     OW64601   4.627   0.146  23.568
17658SOL    HW164602   4.623   0.225  23.623
17658SOL    HW264603   4.687   0.170  23.497
17659SOL     OW64604   3.495   0.123   7.451
17659SOL    HW164605   3.423   0.108   7.390
17659SOL    HW264606   3.514   0.217   7.442
17660SOL     OW64607   0.130   2.743   4.563
17660SOL    HW164608   0.049   2.766   4.517
17660SOL    HW264609   0.185   2.821   4.556
17661SOL     OW64610   2.559   3.872  20.850
17661SOL    HW164611   2.524   3.791  20.813
17661SOL    HW264612   2.630   3.842  20.908
17662SOL     OW64613   1.859   4.676  12.748
17662SOL    HW164614   1.892   4.756  12.789
17662SOL    HW264615   1.880   4.607  12.811
17663SOL     OW64616   4.256   0.555   9.279
17663SOL    HW164617   4.304   0.551   9.362
17663SOL    HW264618   4.273   0.643   9.246
17664SOL     OW64619   1.233   3.492  24.633
17664SOL    HW164620   1.303   3.429  24.651
17664SOL    HW264621   1.156   3.439  24.615
17665SOL     OW64622   1.068   0.426   0.599
17665SOL    HW164623   1.107   0.351   0.555
17665SOL    HW264624   0.973   0.410   0.596
17666SOL     OW64625   2.986   1.688   4.792
17666SOL    HW164626   3.034   1.674   4.874
17666SOL    HW264627   2.938   1.607   4.779
17667SOL     OW64628   1.195   2.128  25.730
17667SOL    HW164629   1.243   2.044  25.728
17667SOL    HW264630   1.264   2.194  25.730
17668SOL     OW64631   1.721   0.109  23.182
17668SOL    HW164632   1.757   0.049  23.117
17668SOL    HW264633   1.629   0.083  23.191
17669SOL     OW64634   0.642   2.892  25.391
17669SOL    HW164635   0.678   2.955  25.453
17669SOL    HW264636   0.612   2.819  25.446
17670SOL     OW64637   3.887   2.070  26.100
17670SOL    HW164638   3.941   2.130  26.152
17670SOL    HW264639   3.933   2.064  26.016
17671SOL     OW64640   3.161   2.790  24.964
17671SOL    HW164641   3.089   2.735  24.932
17671SOL    HW264642   3.146   2.796  25.058
17672SOL     OW64643   4.581   3.157   6.133
17672SOL    HW164644   4.677   3.151   6.131
17672SOL    HW264645   4.557   3.185   6.045
17673SOL     OW64646   2.800   1.407  20.183
17673SOL    HW164647   2.887   1.367  20.193
17673SOL    HW264648   2.806   1.456  20.101
17674SOL     OW64649   2.993   4.042   1.252
17674SOL    HW164650   2.982   3.955   1.290
17674SOL    HW264651   2.906   4.082   1.258
17675SOL     OW64652   2.321   3.662  22.341
17675SOL    HW164653   2.407   3.694  22.366
17675SOL    HW264654   2.269   3.741  22.326
17676SOL     OW64655   3.898   1.235  27.861
17676SOL    HW164656   3.892   1.260  27.953
17676SOL    HW264657   3.814   1.261  27.823
17677SOL     OW64658   1.265   2.794  21.382
17677SOL    HW164659   1.237   2.877  21.344
17677SOL    HW264660   1.337   2.765  21.326
17678SOL     OW64661   2.786   0.291   6.649
17678SOL    HW164662   2.789   0.385   6.667
17678SOL    HW264663   2.867   0.257   6.688
17679SOL     OW64664   4.165   1.607   2.125
17679SOL    HW164665   4.221   1.549   2.073
17679SOL    HW264666   4.226   1.651   2.184
17680SOL     OW64667   3.723   1.898  11.522
17680SOL    HW164668   3.756   1.809  11.537
17680SOL    HW264669   3.802   1.953  11.526
17681SOL     OW64670   0.595   3.780   9.942
17681SOL    HW164671   0.677   3.820   9.913
17681SOL    HW264672   0.622   3.699   9.985
17682SOL     OW64673   2.459   3.966   8.941
17682SOL    HW164674   2.479   4.049   8.984
17682SOL    HW264675   2.458   3.902   9.012
17683SOL     OW64676   0.100   1.015  25.750
17683SOL    HW164677   0.135   1.065  25.823
17683SOL    HW264678   0.005   1.016  25.763
17684SOL     OW64679   2.727   4.601  23.942
17684SOL    HW164680   2.815   4.637  23.932
17684SOL    HW264681   2.671   4.678  23.953
17685SOL     OW64682   1.162   1.681   3.526
17685SOL    HW164683   1.186   1.724   3.608
17685SOL    HW264684   1.245   1.648   3.492
17686SOL     OW64685   2.427   0.587  25.262
17686SOL    HW164686   2.509   0.637  25.270
17686SOL    HW264687   2.438   0.537  25.181
17687SOL     OW64688   2.630   2.650  25.017
17687SOL    HW164689   2.608   2.675  24.927
17687SOL    HW264690   2.675   2.726  25.053
17688SOL     OW64691   1.233   4.634  21.754
17688SOL    HW164692   1.249   4.556  21.807
17688SOL    HW264693   1.257   4.707  21.811
17689SOL     OW64694   2.178   0.980   1.817
17689SOL    HW164695   2.225   1.062   1.805
17689SOL    HW264696   2.112   0.980   1.748
17690SOL     OW64697   3.488   2.565   7.796
17690SOL    HW164698   3.550   2.553   7.724
17690SOL    HW264699   3.402   2.566   7.755
17691SOL     OW64700   2.024   1.402  26.528
17691SOL    HW164701   2.086   1.380  26.458
17691SOL    HW264702   2.021   1.325  26.584
17692SOL     OW64703   0.602   0.686   6.494
17692SOL    HW164704   0.662   0.700   6.567
17692SOL    HW264705   0.656   0.702   6.416
17693SOL     OW64706   0.347   0.682  10.282
17693SOL    HW164707   0.378   0.681  10.372
17693SOL    HW264708   0.255   0.709  10.288
17694SOL     OW64709   1.660   2.113   6.806
17694SOL    HW164710   1.723   2.086   6.873
17694SOL    HW264711   1.611   2.185   6.846
17695SOL     OW64712   4.435   3.018   0.987
17695SOL    HW164713   4.397   3.075   1.055
17695SOL    HW264714   4.530   3.031   0.996
17696SOL     OW64715   1.216   2.277   8.040
17696SOL    HW164716   1.211   2.373   8.045
17696SOL    HW264717   1.310   2.258   8.044
17697SOL     OW64718   1.439   3.827  23.921
17697SOL    HW164719   1.407   3.912  23.892
17697SOL    HW264720   1.406   3.819  24.011
17698SOL     OW64721   0.841   1.144  27.659
17698SOL    HW164722   0.864   1.057  27.627
17698SOL    HW264723   0.757   1.164  27.617
17699SOL     OW64724   4.390   2.995  25.077
17699SOL    HW164725   4.451   2.927  25.105
17699SOL    HW264726   4.320   2.947  25.033
17700SOL     OW64727   0.657   4.451  25.309
17700SOL    HW164728   0.740   4.488  25.340
17700SOL    HW264729   0.591   4.514  25.336
17701SOL     OW64730   2.627   0.175  21.408
17701SOL    HW164731   2.584   0.191  21.324
17701SOL    HW264732   2.570   0.112  21.453
17702LI      LI64733   2.069   3.430  10.249
17703LI      LI64734   2.811   4.428  11.900
17704LI      LI64735   1.457   4.101  25.544
17705LI      LI64736   3.259   1.767  17.673
17706LI      LI64737   1.587   3.464  18.320
17707LI      LI64738   3.869   1.272  11.836
17708LI      LI64739   3.182   0.611  11.017
17709LI      LI64740   0.376   1.822   3.600
17710LI      LI64741   2.821   0.616  10.203
17711LI      LI64742   2.719   4.379  11.589
17712LI      LI64743   1.318   0.797  10.944
17713LI      LI64744   4.397   3.007  17.260
17714LI      LI64745   4.749   1.698  17.930
17715LI      LI64746   1.827   4.148  18.294
17716LI      LI64747   4.567   1.374  10.655
17717LI      LI64748   2.608   2.693  11.803
17718LI      LI64749   2.130   2.257  11.475
17719LI      LI64750   0.395   2.397   1.079
17720LI      LI64751   1.351   0.453   8.062
17721LI      LI64752   0.292   0.078  17.318
17722LI      LI64753   1.581   3.023  10.861
17723LI      LI64754   2.872   4.708  10.890
17724LI      LI64755   3.253   1.774  11.861
17725LI      LI64756   1.002   3.896  11.956
17726LI      LI64757   0.723   3.501  20.437
17727LI      LI64758   3.241   1.123  10.497
17728LI      LI64759   3.450   1.726  18.173
17729LI      LI64760   1.915   1.444   4.135
   4.78238   4.78238  28.53103
