Membrane in water t=  60.00000 step= 60000
64746
    1TCq1    O1    1   3.469   0.984  11.726
    1TCq1    C1    2   3.390   0.978  11.836
    1TCq1    O2    3   3.423   1.033  11.942
    1TCq1    C2    4   3.311   0.861  11.810
    1TCq1    C3    5   3.268   0.817  11.685
    1TCq1    C4    6   3.195   0.699  11.675
    1TCq1    C5    7   3.168   0.627  11.787
    1TCq1    C6    8   3.206   0.677  11.908
    1TCq1    C7    9   3.286   0.787  11.925
    1TCq1    C8   10   3.196   0.582  12.024
    1TCq1    O4   11   3.089   0.536  12.056
    1TCq1    C9   12   3.152   0.657  11.546
    1TCq1    O5   13   3.189   0.734  11.454
    1TCq1    O6   14   3.070   0.563  11.531
    1TCq1    H1   15   3.446   0.917  11.658
    1TCq1    H2   16   3.287   0.882  11.601
    1TCq1    H3   17   3.108   0.538  11.776
    1TCq1    H4   18   3.312   0.829  12.021
    2MPD2     C   19   3.462   0.322  12.386
    2MPD2    C1   20   3.325   0.308  12.344
    2MPD2    C2   21   3.276   0.394  12.245
    2MPD2    C3   22   3.366   0.475  12.173
    2MPD2    C4   23   3.498   0.481  12.213
    2MPD2    C5   24   3.543   0.413  12.323
    2MPD2     H   25   3.169   0.391  12.227
    2MPD2    H1   26   3.570   0.540  12.158
    2MPD2    H2   27   3.498   0.265  12.471
    2MPD2    H3   28   3.645   0.424  12.357
    2MPD2     N   29   3.319   0.565  12.075
    2MPD2    H5   30   3.401   0.602  12.028
    2MPD2    N1   31   3.238   0.210  12.396
    2MPD2    H7   32   3.140   0.224  12.372
    3TCq1    O1   33   3.180   1.316  10.685
    3TCq1    C1   34   3.087   1.248  10.616
    3TCq1    O2   35   3.111   1.221  10.500
    3TCq1    C2   36   2.968   1.324  10.642
    3TCq1    C3   37   2.923   1.417  10.549
    3TCq1    C4   38   2.807   1.476  10.583
    3TCq1    C5   39   2.737   1.449  10.691
    3TCq1    C6   40   2.792   1.361  10.780
    3TCq1    C7   41   2.905   1.302  10.758
    3TCq1    C8   42   2.710   1.296  10.876
    3TCq1    O4   43   2.729   1.178  10.897
    3TCq1    C9   44   2.750   1.570  10.491
    3TCq1    O5   45   2.649   1.636  10.530
    3TCq1    O6   46   2.780   1.558  10.367
    3TCq1    H1   47   3.138   1.363  10.760
    3TCq1    H2   48   2.977   1.443  10.459
    3TCq1    H3   49   2.637   1.485  10.707
    3TCq1    H4   50   2.942   1.221  10.820
    4MPD2     C   51   2.381   1.285  11.258
    4MPD2    C1   52   2.409   1.412  11.231
    4MPD2    C2   53   2.493   1.447  11.126
    4MPD2    C3   54   2.544   1.349  11.049
    4MPD2    C4   55   2.508   1.216  11.078
    4MPD2    C5   56   2.431   1.181  11.184
    4MPD2     H   57   2.519   1.551  11.110
    4MPD2    H1   58   2.546   1.138  11.013
    4MPD2    H2   59   2.309   1.254  11.333
    4MPD2    H3   60   2.401   1.078  11.199
    4MPD2     N   61   2.629   1.386  10.947
    4MPD2    H5   62   2.651   1.485  10.935
    4MPD2    N1   63   2.362   1.510  11.319
    4MPD2    H7   64   2.401   1.603  11.307
    5TCq1    O1   65   4.087   2.883  12.407
    5TCq1    C1   66   4.045   2.952  12.304
    5TCq1    O2   67   4.109   2.963  12.202
    5TCq1    C2   68   3.907   2.999  12.329
    5TCq1    C3   69   3.870   3.048  12.448
    5TCq1    C4   70   3.747   3.104  12.464
    5TCq1    C5   71   3.662   3.119  12.356
    5TCq1    C6   72   3.706   3.069  12.234
    5TCq1    C7   73   3.825   3.007  12.223
    5TCq1    C8   74   3.621   3.070  12.113
    5TCq1    O4   75   3.654   2.986  12.027
    5TCq1    C9   76   3.703   3.147  12.599
    5TCq1    O5   77   3.782   3.131  12.695
    5TCq1    O6   78   3.578   3.173  12.611
    5TCq1    H1   79   4.014   2.873  12.471
    5TCq1    H2   80   3.938   3.054  12.533
    5TCq1    H3   81   3.576   3.183  12.372
    5TCq1    H4   82   3.859   2.964  12.129
    6MPD2     C   83   3.374   3.323  11.994
    6MPD2    C1   84   3.447   3.204  12.000
    6MPD2    C2   85   3.423   3.116  11.898
    6MPD2    C3   86   3.353   3.147  11.782
    6MPD2    C4   87   3.275   3.260  11.779
    6MPD2    C5   88   3.289   3.344  11.886
    6MPD2     H   89   3.474   3.020  11.896
    6MPD2    H1   90   3.218   3.298  11.695
    6MPD2    H2   91   3.371   3.392  12.078
    6MPD2    H3   92   3.242   3.441  11.876
    6MPD2     N   93   3.366   3.061  11.676
    6MPD2    H5   94   3.447   3.001  11.681
    6MPD2    N1   95   3.534   3.170  12.106
    6MPD2    H7   96   3.521   3.230  12.187
    7TCq1    O1   97   0.780   2.666  13.548
    7TCq1    C1   98   0.654   2.719  13.557
    7TCq1    O2   99   0.638   2.838  13.552
    7TCq1    C2  100   0.548   2.633  13.594
    7TCq1    C3  101   0.432   2.680  13.659
    7TCq1    C4  102   0.351   2.586  13.706
    7TCq1    C5  103   0.362   2.452  13.690
    7TCq1    C6  104   0.471   2.409  13.624
    7TCq1    C7  105   0.569   2.498  13.581
    7TCq1    C8  106   0.492   2.268  13.625
    7TCq1    O4  107   0.423   2.200  13.697
    7TCq1    C9  108   0.242   2.628  13.791
    7TCq1    O5  109   0.233   2.751  13.815
    7TCq1    O6  110   0.199   2.542  13.876
    7TCq1    H1  111   0.790   2.576  13.585
    7TCq1    H2  112   0.417   2.785  13.683
    7TCq1    H3  113   0.290   2.384  13.735
    7TCq1    H4  114   0.656   2.455  13.533
    8MPD2     C  115   0.785   1.855  13.599
    8MPD2    C1  116   0.652   1.868  13.639
    8MPD2    C2  117   0.580   1.984  13.620
    8MPD2    C3  118   0.647   2.090  13.559
    8MPD2    C4  119   0.773   2.065  13.507
    8MPD2    C5  120   0.838   1.950  13.518
    8MPD2     H  121   0.479   1.994  13.660
    8MPD2    H1  122   0.825   2.143  13.452
    8MPD2    H2  123   0.845   1.772  13.634
    8MPD2    H3  124   0.926   1.930  13.457
    8MPD2     N  125   0.594   2.222  13.552
    8MPD2    H5  126   0.654   2.289  13.504
    8MPD2    N1  127   0.603   1.762  13.718
    8MPD2    H7  128   0.675   1.693  13.739
    9TCq1    O1  129   3.153   1.489  10.903
    9TCq1    C1  130   3.069   1.486  11.016
    9TCq1    O2  131   2.984   1.403  11.047
    9TCq1    C2  132   3.119   1.575  11.115
    9TCq1    C3  133   3.191   1.685  11.084
    9TCq1    C4  134   3.265   1.746  11.179
    9TCq1    C5  135   3.268   1.702  11.307
    9TCq1    C6  136   3.193   1.588  11.334
    9TCq1    C7  137   3.122   1.521  11.240
    9TCq1    C8  138   3.213   1.525  11.463
    9TCq1    O4  139   3.296   1.584  11.526
    9TCq1    C9  140   3.329   1.874  11.143
    9TCq1    O5  141   3.417   1.925  11.216
    9TCq1    O6  142   3.280   1.942  11.047
    9TCq1    H1  143   3.236   1.536  10.925
    9TCq1    H2  144   3.200   1.716  10.980
    9TCq1    H3  145   3.326   1.763  11.376
    9TCq1    H4  146   3.088   1.420  11.261
   10MPD2     C  147   3.218   1.409  11.734
   10MPD2    C1  148   3.144   1.361  11.628
   10MPD2    C2  149   3.081   1.242  11.657
   10MPD2    C3  150   3.078   1.181  11.780
   10MPD2    C4  151   3.163   1.226  11.883
   10MPD2    C5  152   3.229   1.338  11.852
   10MPD2     H  153   3.027   1.205  11.571
   10MPD2    H1  154   3.170   1.177  11.979
   10MPD2    H2  155   3.276   1.501  11.731
   10MPD2    H3  156   3.292   1.381  11.929
   10MPD2     N  157   2.989   1.079  11.816
   10MPD2    H5  158   2.995   1.054  11.914
   10MPD2    N1  159   3.131   1.421  11.501
   10MPD2    H7  160   3.093   1.362  11.427
   11TCq1    O1  161   4.359   0.571  14.453
   11TCq1    C1  162   4.247   0.510  14.493
   11TCq1    O2  163   4.211   0.396  14.482
   11TCq1    C2  164   4.166   0.603  14.573
   11TCq1    C3  165   4.228   0.687  14.658
   11TCq1    C4  166   4.153   0.740  14.760
   11TCq1    C5  167   4.022   0.706  14.772
   11TCq1    C6  168   3.967   0.616  14.684
   11TCq1    C7  169   4.035   0.567  14.578
   11TCq1    C8  170   3.826   0.583  14.697
   11TCq1    O4  171   3.756   0.667  14.752
   11TCq1    C9  172   4.214   0.827  14.858
   11TCq1    O5  173   4.339   0.848  14.847
   11TCq1    O6  174   4.145   0.844  14.961
   11TCq1    H1  175   4.355   0.668  14.464
   11TCq1    H2  176   4.336   0.695  14.663
   11TCq1    H3  177   3.965   0.731  14.860
   11TCq1    H4  178   3.996   0.497  14.505
   12MPD2     C  179   3.558   0.501  14.628
   12MPD2    C1  180   3.664   0.415  14.625
   12MPD2    C2  181   3.649   0.285  14.585
   12MPD2    C3  182   3.523   0.247  14.549
   12MPD2    C4  183   3.413   0.333  14.543
   12MPD2    C5  184   3.434   0.460  14.586
   12MPD2     H  185   3.744   0.244  14.555
   12MPD2    H1  186   3.315   0.299  14.512
   12MPD2    H2  187   3.558   0.608  14.646
   12MPD2    H3  188   3.358   0.537  14.579
   12MPD2     N  189   3.494   0.127  14.480
   12MPD2    H5  190   3.409   0.117  14.426
   12MPD2    N1  191   3.791   0.460  14.643
   12MPD2    H7  192   3.866   0.398  14.612
   13TCq1    O1  193   3.849   1.455  11.156
   13TCq1    C1  194   3.897   1.399  11.045
   13TCq1    O2  195   4.015   1.399  11.012
   13TCq1    C2  196   3.782   1.378  10.957
   13TCq1    C3  197   3.810   1.398  10.827
   13TCq1    C4  198   3.724   1.352  10.734
   13TCq1    C5  199   3.610   1.286  10.772
   13TCq1    C6  200   3.591   1.261  10.908
   13TCq1    C7  201   3.672   1.312  11.003
   13TCq1    C8  202   3.460   1.212  10.954
   13TCq1    O4  203   3.424   1.257  11.063
   13TCq1    C9  204   3.747   1.380  10.592
   13TCq1    O5  205   3.851   1.445  10.563
   13TCq1    O6  206   3.655   1.329  10.516
   13TCq1    H1  207   3.751   1.467  11.150
   13TCq1    H2  208   3.902   1.447  10.795
   13TCq1    H3  209   3.537   1.252  10.700
   13TCq1    H4  210   3.657   1.296  11.109
   14MPD2     C  211   3.225   0.991  10.780
   14MPD2    C1  212   3.267   1.072  10.887
   14MPD2    C2  213   3.176   1.100  10.979
   14MPD2    C3  214   3.048   1.039  10.982
   14MPD2    C4  215   3.015   0.945  10.880
   14MPD2    C5  216   3.107   0.921  10.781
   14MPD2     H  217   3.203   1.170  11.058
   14MPD2    H1  218   2.918   0.899  10.865
   14MPD2    H2  219   3.284   0.981  10.690
   14MPD2    H3  220   3.073   0.853  10.704
   14MPD2     N  221   2.958   1.072  11.088
   14MPD2    H5  222   2.993   1.124  11.168
   14MPD2    N1  223   3.398   1.122  10.870
   14MPD2    H7  224   3.453   1.107  10.786
   15TCq1    O1  225   4.616   4.296  19.280
   15TCq1    C1  226   4.639   4.330  19.405
   15TCq1    O2  227   4.572   4.410  19.469
   15TCq1    C2  228   4.743   4.245  19.464
   15TCq1    C3  229   4.718   4.212  19.593
   15TCq1    C4  230   0.028   4.133  19.653
   15TCq1    C5  231   0.147   4.106  19.589
   15TCq1    C6  232   0.167   4.136  19.459
   15TCq1    C7  233   0.070   4.211  19.393
   15TCq1    C8  234   0.283   4.086  19.393
   15TCq1    O4  235   0.388   4.085  19.454
   15TCq1    C9  236   0.014   4.098  19.791
   15TCq1    O5  237   0.095   4.008  19.833
   15TCq1    O6  238   4.734   4.188  19.858
   15TCq1    H1  239   4.672   4.217  19.263
   15TCq1    H2  240   4.628   4.248  19.641
   15TCq1    H3  241   0.216   4.043  19.644
   15TCq1    H4  242   0.091   4.256  19.296
   16MPD2     C  243   0.270   3.975  19.045
   16MPD2    C1  244   0.337   4.004  19.162
   16MPD2    C2  245   0.456   3.954  19.195
   16MPD2    C3  246   0.533   3.890  19.095
   16MPD2    C4  247   0.475   3.872  18.977
   16MPD2    C5  248   0.341   3.902  18.951
   16MPD2     H  249   0.497   3.964  19.295
   16MPD2    H1  250   0.522   3.821  18.894
   16MPD2    H2  251   0.167   4.000  19.026
   16MPD2    H3  252   0.310   3.874  18.851
   16MPD2     N  253   0.674   3.868  19.112
   16MPD2    H5  254   0.703   3.911  19.199
   16MPD2    N1  255   0.254   4.061  19.261
   16MPD2    H7  256   0.156   4.073  19.238
   17TCq1    O1  257   2.873   0.076  11.615
   17TCq1    C1  258   2.954   0.008  11.534
   17TCq1    O2  259   2.919   4.690  11.471
   17TCq1    C2  260   3.084   0.072  11.508
   17TCq1    C3  261   3.157   0.034  11.403
   17TCq1    C4  262   3.278   0.094  11.373
   17TCq1    C5  263   3.324   0.196  11.452
   17TCq1    C6  264   3.249   0.232  11.566
   17TCq1    C7  265   3.130   0.168  11.600
   17TCq1    C8  266   3.299   0.328  11.656
   17TCq1    O4  267   3.264   0.321  11.773
   17TCq1    C9  268   3.343   0.060  11.247
   17TCq1    O5  269   3.433   0.138  11.211
   17TCq1    O6  270   3.284   4.761  11.172
   17TCq1    H1  271   2.924   0.156  11.641
   17TCq1    H2  272   3.118   4.744  11.331
   17TCq1    H3  273   3.424   0.234  11.437
   17TCq1    H4  274   3.073   0.208  11.682
   18MPD2     C  275   3.521   0.453  11.796
   18MPD2    C1  276   3.504   0.451  11.658
   18MPD2    C2  277   3.609   0.503  11.579
   18MPD2    C3  278   3.717   0.560  11.641
   18MPD2    C4  279   3.732   0.556  11.775
   18MPD2    C5  280   3.627   0.511  11.852
   18MPD2     H  281   3.588   0.507  11.473
   18MPD2    H1  282   3.821   0.593  11.824
   18MPD2    H2  283   3.445   0.416  11.864
   18MPD2    H3  284   3.635   0.500  11.960
   18MPD2     N  285   3.833   0.598  11.560
   18MPD2    H5  286   3.925   0.604  11.603
   18MPD2    N1  287   3.395   0.396  11.592
   18MPD2    H7  288   3.393   0.398  11.491
   19TMC2    C1  289   0.111   0.614  14.318
   19TMC2    C2  290   0.043   0.732  14.278
   19TMC2    C3  291   4.693   0.720  14.256
   19TMC2    C4  292   0.047   0.492  14.335
   19TMC2    C5  293   4.697   0.492  14.306
   19TMC2    C6  294   4.624   0.608  14.273
   19TMC2     C  295   0.255   0.635  14.311
   19TMC2     O  296   0.293   0.729  14.240
   19TMC2     H  297   0.094   0.825  14.259
   19TMC2    H1  298   0.106   0.401  14.344
   19TMC2    H2  299   4.516   0.607  14.261
   19TMC2    C7  300   4.639   0.358  14.285
   19TMC2    C8  301   4.615   0.835  14.228
   19TMC2    O1  302   4.691   0.264  14.341
   19TMC2    O2  303   4.538   0.850  14.137
   19TMC2    O5  304   4.659   0.934  14.309
   19TMC2    H5  305   4.708   0.900  14.387
   20MPD2     C  306   0.551   0.633  14.338
   20MPD2    C1  307   0.471   0.541  14.394
   20MPD2    C2  308   0.521   0.437  14.461
   20MPD2    C3  309   0.657   0.421  14.487
   20MPD2    C4  310   0.741   0.512  14.427
   20MPD2    C5  311   0.684   0.613  14.358
   20MPD2     H  312   0.459   0.360  14.504
   20MPD2    H1  313   0.841   0.529  14.465
   20MPD2    H2  314   0.527   0.724  14.286
   20MPD2    H3  315   0.747   0.680  14.300
   20MPD2     N  316   0.713   0.317  14.559
   20MPD2    H5  317   0.806   0.344  14.590
   20MPD2    N1  318   0.329   0.542  14.377
   20MPD2    H7  319   0.287   0.470  14.436
   21TMC2    C1  320   2.267   0.633  14.534
   21TMC2    C2  321   2.350   0.522  14.535
   21TMC2    C3  322   2.390   0.471  14.649
   21TMC2    C4  323   2.215   0.676  14.648
   21TMC2    C5  324   2.264   0.627  14.768
   21TMC2    C6  325   2.354   0.521  14.772
   21TMC2     C  326   2.248   0.708  14.408
   21TMC2     O  327   2.217   0.639  14.316
   21TMC2     H  328   2.377   0.470  14.443
   21TMC2    H1  329   2.128   0.739  14.633
   21TMC2    H2  330   2.368   0.464  14.863
   21TMC2    C7  331   2.235   0.698  14.890
   21TMC2    C8  332   2.432   0.324  14.651
   21TMC2    O1  333   2.304   0.663  14.988
   21TMC2    O2  334   2.395   0.251  14.741
   21TMC2    O5  335   2.469   0.282  14.531
   21TMC2    H5  336   2.509   0.350  14.474
   22MPD2     C  337   2.387   1.105  14.708
   22MPD2    C1  338   2.446   0.984  14.677
   22MPD2    C2  339   2.400   0.903  14.574
   22MPD2    C3  340   2.277   0.929  14.520
   22MPD2    C4  341   2.207   1.044  14.556
   22MPD2    C5  342   2.271   1.133  14.643
   22MPD2     H  343   2.459   0.816  14.549
   22MPD2    H1  344   2.112   1.066  14.508
   22MPD2    H2  345   2.409   1.168  14.793
   22MPD2    H3  346   2.219   1.224  14.670
   22MPD2     N  347   2.216   0.841  14.426
   22MPD2    H5  348   2.144   0.878  14.365
   22MPD2    N1  349   2.554   0.933  14.751
   22MPD2    H7  350   2.582   0.836  14.734
   23TMC2    C1  351   3.463   2.040  14.583
   23TMC2    C2  352   3.449   2.165  14.536
   23TMC2    C3  353   3.324   2.216  14.513
   23TMC2    C4  354   3.353   1.960  14.607
   23TMC2    C5  355   3.228   2.016  14.571
   23TMC2    C6  356   3.213   2.143  14.526
   23TMC2     C  357   3.571   2.029  14.681
   23TMC2     O  358   3.543   2.002  14.795
   23TMC2     H  359   3.536   2.222  14.505
   23TMC2    H1  360   3.364   1.858  14.643
   23TMC2    H2  361   3.115   2.188  14.511
   23TMC2    C7  362   3.116   1.916  14.582
   23TMC2    C8  363   3.313   2.355  14.469
   23TMC2    O1  364   3.136   1.818  14.651
   23TMC2    O2  365   3.410   2.436  14.472
   23TMC2    O5  366   3.195   2.366  14.403
   23TMC2    H5  367   3.164   2.274  14.390
   24MPD2     C  368   4.065   1.977  14.778
   24MPD2    C1  369   3.957   1.964  14.860
   24MPD2    C2  370   3.834   1.989  14.811
   24MPD2    C3  371   3.817   2.034  14.680
   24MPD2    C4  372   3.928   2.051  14.604
   24MPD2    C5  373   4.054   2.031  14.652
   24MPD2     H  374   3.749   1.991  14.879
   24MPD2    H1  375   3.926   2.063  14.496
   24MPD2    H2  376   4.164   1.943  14.804
   24MPD2    H3  377   4.140   2.040  14.587
   24MPD2     N  378   3.696   2.054  14.620
   24MPD2    H5  379   3.695   2.066  14.519
   24MPD2    N1  380   3.970   1.912  15.003
   24MPD2    H7  381   3.881   1.910  15.052
   25TMC2    C1  382   2.727   4.203  12.371
   25TMC2    C2  383   2.817   4.249  12.466
   25TMC2    C3  384   2.805   4.381  12.507
   25TMC2    C4  385   2.629   4.282  12.309
   25TMC2    C5  386   2.644   4.416  12.336
   25TMC2    C6  387   2.731   4.461  12.428
   25TMC2     C  388   2.775   4.083  12.308
   25TMC2     O  389   2.891   4.044  12.328
   25TMC2     H  390   2.893   4.183  12.507
   25TMC2    H1  391   2.575   4.255  12.220
   25TMC2    H2  392   2.722   4.563  12.463
   25TMC2    C7  393   2.598   4.521  12.241
   25TMC2    C8  394   2.902   4.442  12.592
   25TMC2    O1  395   2.663   4.624  12.246
   25TMC2    O2  396   2.923   4.562  12.593
   25TMC2    O5  397   2.938   4.350  12.682
   25TMC2    H5  398   2.886   4.267  12.677
   26MPD2     C  399   2.752   3.685  11.983
   26MPD2    C1  400   2.627   3.719  12.018
   26MPD2    C2  401   2.599   3.829  12.092
   26MPD2    C3  402   2.703   3.906  12.142
   26MPD2    C4  403   2.830   3.870  12.104
   26MPD2    C5  404   2.851   3.759  12.033
   26MPD2     H  405   2.502   3.868  12.118
   26MPD2    H1  406   2.920   3.922  12.133
   26MPD2    H2  407   2.776   3.602  11.916
   26MPD2    H3  408   2.950   3.726  12.006
   26MPD2     N  409   2.676   4.015  12.236
   26MPD2    H5  410   2.583   4.053  12.248
   26MPD2    N1  411   2.528   3.626  11.977
   26MPD2    H7  412   2.557   3.568  11.899
   27TMC2    C1  413   1.568   1.615  12.505
   27TMC2    C2  414   1.477   1.688  12.440
   27TMC2    C3  415   1.516   1.781  12.351
   27TMC2    C4  416   1.702   1.630  12.487
   27TMC2    C5  417   1.744   1.728  12.405
   27TMC2    C6  418   1.657   1.800  12.333
   27TMC2     C  419   1.535   1.512  12.603
   27TMC2     O  420   1.618   1.429  12.625
   27TMC2     H  421   1.373   1.669  12.463
   27TMC2    H1  422   1.766   1.573  12.553
   27TMC2    H2  423   1.683   1.874  12.258
   27TMC2    C7  424   1.831   1.822  12.482
   27TMC2    C8  425   1.439   1.901  12.334
   27TMC2    O1  426   1.930   1.775  12.540
   27TMC2    O2  427   1.475   1.987  12.252
   27TMC2    O5  428   1.387   1.937  12.451
   27TMC2    H5  429   1.344   1.860  12.495
   28MPD2     C  430   1.249   1.337  13.011
   28MPD2    C1  431   1.199   1.459  12.973
   28MPD2    C2  432   1.253   1.509  12.855
   28MPD2    C3  433   1.362   1.453  12.786
   28MPD2    C4  434   1.415   1.338  12.834
   28MPD2    C5  435   1.354   1.286  12.943
   28MPD2     H  436   1.220   1.607  12.825
   28MPD2    H1  437   1.500   1.291  12.785
   28MPD2    H2  438   1.222   1.278  13.097
   28MPD2    H3  439   1.398   1.198  12.989
   28MPD2     N  440   1.416   1.533  12.674
   28MPD2    H5  441   1.359   1.615  12.656
   28MPD2    N1  442   1.092   1.514  13.049
   28MPD2    H7  443   1.059   1.457  13.126
   29TMC2    C1  444   0.825   4.008  14.753
   29TMC2    C2  445   0.848   3.991  14.885
   29TMC2    C3  446   0.879   4.107  14.957
   29TMC2    C4  447   0.845   4.127  14.687
   29TMC2    C5  448   0.883   4.238  14.755
   29TMC2    C6  449   0.902   4.231  14.896
   29TMC2     C  450   0.804   3.891  14.682
   29TMC2     O  451   0.843   3.782  14.721
   29TMC2     H  452   0.826   3.893  14.926
   29TMC2    H1  453   0.831   4.142  14.581
   29TMC2    H2  454   0.907   4.324  14.952
   29TMC2    C7  455   0.947   4.346  14.681
   29TMC2    C8  456   0.855   4.103  15.099
   29TMC2    O1  457   0.941   4.339  14.559
   29TMC2    O2  458   0.916   4.160  15.189
   29TMC2    O5  459   0.736   4.038  15.111
   29TMC2    H5  460   0.705   4.019  15.020
   30MPD2     C  461   0.619   3.686  14.247
   30MPD2    C1  462   0.717   3.636  14.330
   30MPD2    C2  463   0.753   3.716  14.439
   30MPD2    C3  464   0.675   3.831  14.470
   30MPD2    C4  465   0.581   3.873  14.384
   30MPD2    C5  466   0.554   3.805  14.271
   30MPD2     H  467   0.848   3.692  14.487
   30MPD2    H1  468   0.525   3.960  14.413
   30MPD2    H2  469   0.585   3.629  14.162
   30MPD2    H3  470   0.476   3.847  14.208
   30MPD2     N  471   0.709   3.919  14.586
   30MPD2    H5  472   0.682   4.017  14.582
   30MPD2    N1  473   0.789   3.511  14.308
   30MPD2    H7  474   0.883   3.509  14.345
   31TMC2    C1  475   3.422   2.632  15.723
   31TMC2    C2  476   3.289   2.656  15.745
   31TMC2    C3  477   3.239   2.653  15.871
   31TMC2    C4  478   3.504   2.622  15.837
   31TMC2    C5  479   3.453   2.638  15.964
   31TMC2    C6  480   3.314   2.646  15.984
   31TMC2     C  481   3.481   2.634  15.589
   31TMC2     O  482   3.406   2.680  15.502
   31TMC2     H  483   3.218   2.651  15.663
   31TMC2    H1  484   3.612   2.622  15.826
   31TMC2    H2  485   3.271   2.649  16.083
   31TMC2    C7  486   3.530   2.648  16.082
   31TMC2    C8  487   3.092   2.622  15.880
   31TMC2    O1  488   3.647   2.617  16.074
   31TMC2    O2  489   3.050   2.555  15.976
   31TMC2    O5  490   3.037   2.733  15.828
   31TMC2    H5  491   3.093   2.801  15.785
   32MPD2     C  492   3.906   2.677  15.308
   32MPD2    C1  493   3.775   2.724  15.270
   32MPD2    C2  494   3.675   2.700  15.367
   32MPD2    C3  495   3.706   2.627  15.484
   32MPD2    C4  496   3.833   2.585  15.506
   32MPD2    C5  497   3.931   2.612  15.421
   32MPD2     H  498   3.581   2.750  15.347
   32MPD2    H1  499   3.852   2.525  15.594
   32MPD2    H2  500   3.983   2.686  15.233
   32MPD2    H3  501   4.032   2.583  15.448
   32MPD2     N  502   3.614   2.603  15.586
   32MPD2    H5  503   3.654   2.549  15.662
   32MPD2    N1  504   3.759   2.800  15.151
   32MPD2    H7  505   3.841   2.827  15.098
   33MPD2     C  506   4.349   0.695  10.790
   33MPD2    C1  507   4.218   0.685  10.827
   33MPD2    C2  508   4.120   0.691  10.728
   33MPD2    C3  509   4.161   0.713  10.598
   33MPD2    C4  510   4.293   0.715  10.566
   33MPD2    C5  511   4.388   0.708  10.659
   33MPD2     H  512   4.020   0.659  10.753
   33MPD2    H1  513   4.323   0.715  10.462
   33MPD2    H2  514   4.425   0.691  10.867
   33MPD2    H3  515   4.494   0.709  10.634
   33MPD2     N  516   4.067   0.744  10.494
   33MPD2    H5  517   4.105   0.761  10.401
   33MPD2    N1  518   4.191   0.662  10.961
   33MPD2    H7  519   4.266   0.658  11.030
   34TCq2    C1  520   3.933   0.711  10.498
   34TCq2    O2  521   3.866   0.663  10.590
   34TCq2    C2  522   3.869   0.765  10.383
   34TCq2    C3  523   3.746   0.712  10.359
   34TCq2    C4  524   3.671   0.756  10.254
   34TCq2    C5  525   3.715   0.859  10.184
   34TCq2    C6  526   3.845   0.909  10.201
   34TCq2    C7  527   3.924   0.862  10.300
   34TCq2    C8  528   3.875   1.047  10.166
   34TCq2    O4  529   3.966   1.103  10.231
   34TCq2    C9  530   3.536   0.702  10.233
   34TCq2    O5  531   3.470   0.743  10.130
   34TCq2    O6  532   3.500   0.620  10.320
   34TCq2    H2  533   3.707   0.644  10.434
   34TCq2    H3  534   3.641   0.904  10.119
   34TCq2    H4  535   4.016   0.913  10.328
   35TMC2    C1  536   0.085   2.118  12.058
   35TMC2    C2  537   4.772   2.192  11.992
   35TMC2    C3  538   4.642   2.178  12.023
   35TMC2    C4  539   0.050   2.021  12.152
   35TMC2    C5  540   4.698   2.002  12.165
   35TMC2    C6  541   4.599   2.082  12.110
   35TMC2     C  542   0.222   2.139  12.022
   35TMC2     O  543   0.244   2.213  11.932
   35TMC2     H  544   0.025   2.245  11.903
   35TMC2    H1  545   0.117   1.969  12.220
   35TMC2    H2  546   4.493   2.060  12.114
   35TMC2    C7  547   4.653   1.861  12.177
   35TMC2    C8  548   4.549   2.252  11.946
   35TMC2    O1  549   4.556   1.822  12.115
   35TMC2    O2  550   4.573   2.286  11.831
   35TMC2    O5  551   4.422   2.239  11.996
   35TMC2    H5  552   4.424   2.221  12.093
   36MPD2     C  553   0.729   2.093  12.076
   36MPD2    C1  554   0.669   1.988  12.138
   36MPD2    C2  555   0.530   1.982  12.140
   36MPD2    C3  556   0.452   2.073  12.078
   36MPD2    C4  557   0.515   2.181  12.014
   36MPD2    C5  558   0.655   2.189  12.006
   36MPD2     H  559   0.488   1.893  12.185
   36MPD2    H1  560   0.461   2.269  11.980
   36MPD2    H2  561   0.836   2.109  12.079
   36MPD2    H3  562   0.713   2.271  11.966
   36MPD2     N  563   0.311   2.063  12.093
   36MPD2    H5  564   0.285   1.985  12.152
   36MPD2    N1  565   0.763   1.903  12.205
   36MPD2    H7  566   0.857   1.905  12.166
   37TMC2    C1  567   2.766   1.601  12.487
   37TMC2    C2  568   2.678   1.517  12.427
   37TMC2    C3  569   2.663   1.511  12.291
   37TMC2    C4  570   2.842   1.685  12.407
   37TMC2    C5  571   2.826   1.673  12.269
   37TMC2    C6  572   2.738   1.585  12.208
   37TMC2     C  573   2.724   1.645  12.618
   37TMC2     O  574   2.608   1.620  12.656
   37TMC2     H  575   2.633   1.445  12.494
   37TMC2    H1  576   2.916   1.753  12.449
   37TMC2    H2  577   2.726   1.576  12.101
   37TMC2    C7  578   2.911   1.762  12.195
   37TMC2    C8  579   2.575   1.418  12.230
   37TMC2    O1  580   2.972   1.851  12.250
   37TMC2    O2  581   2.591   1.391  12.112
   37TMC2    O5  582   2.456   1.415  12.300
   37TMC2    H5  583   2.460   1.456  12.389
   38MPD2     C  584   2.788   1.909  13.050
   38MPD2    C1  585   2.909   1.860  13.009
   38MPD2    C2  586   2.923   1.785  12.897
   38MPD2    C3  587   2.809   1.764  12.815
   38MPD2    C4  588   2.685   1.806  12.860
   38MPD2    C5  589   2.675   1.879  12.976
   38MPD2     H  590   3.020   1.744  12.870
   38MPD2    H1  591   2.594   1.784  12.805
   38MPD2    H2  592   2.774   1.962  13.143
   38MPD2    H3  593   2.587   1.915  13.028
   38MPD2     N  594   2.827   1.696  12.692
   38MPD2    H5  595   2.921   1.688  12.653
   38MPD2    N1  596   3.030   1.877  13.082
   38MPD2    H7  597   3.118   1.843  13.043
   39TMC2    C1  598   0.850   3.919  19.750
   39TMC2    C2  599   0.790   4.044  19.775
   39TMC2    C3  600   0.873   4.138  19.823
   39TMC2    C4  601   0.981   3.893  19.781
   39TMC2    C5  602   1.054   3.996  19.830
   39TMC2    C6  603   1.007   4.123  19.852
   39TMC2     C  604   0.771   3.828  19.662
   39TMC2     O  605   0.648   3.854  19.664
   39TMC2     H  606   0.687   4.070  19.754
   39TMC2    H1  607   1.026   3.795  19.772
   39TMC2    H2  608   1.066   4.200  19.901
   39TMC2    C7  609   1.180   3.960  19.910
   39TMC2    C8  610   0.848   4.277  19.780
   39TMC2    O1  611   1.188   3.845  19.950
   39TMC2    O2  612   0.926   4.371  19.790
   39TMC2    O5  613   0.725   4.289  19.720
   39TMC2    H5  614   0.659   4.217  19.726
   40MPD2     C  615   0.889   3.595  19.396
   40MPD2    C1  616   0.794   3.663  19.473
   40MPD2    C2  617   0.663   3.655  19.439
   40MPD2    C3  618   0.621   3.575  19.330
   40MPD2    C4  619   0.712   3.525  19.246
   40MPD2    C5  620   0.850   3.527  19.280
   40MPD2     H  621   0.588   3.698  19.504
   40MPD2    H1  622   0.673   3.450  19.178
   40MPD2    H2  623   0.996   3.589  19.412
   40MPD2    H3  624   0.912   3.479  19.206
   40MPD2     N  625   0.484   3.564  19.287
   40MPD2    H5  626   0.463   3.518  19.199
   40MPD2    N1  627   0.843   3.748  19.572
   40MPD2    H7  628   0.942   3.730  19.588
   41TMC2    C1  629   4.484   2.148  14.026
   41TMC2    C2  630   4.373   2.191  14.095
   41TMC2    C3  631   4.328   2.313  14.065
   41TMC2    C4  632   4.526   2.209  13.911
   41TMC2    C5  633   4.469   2.334  13.883
   41TMC2    C6  634   4.381   2.393  13.966
   41TMC2     C  635   4.530   2.009  14.034
   41TMC2     O  636   4.594   1.959  13.943
   41TMC2     H  637   4.322   2.131  14.170
   41TMC2    H1  638   4.605   2.167  13.850
   41TMC2    H2  639   4.352   2.490  13.927
   41TMC2    C7  640   4.541   2.422  13.795
   41TMC2    C8  641   4.193   2.358  14.107
   41TMC2    O1  642   4.561   2.535  13.843
   41TMC2    O2  643   4.117   2.419  14.031
   41TMC2    O5  644   4.178   2.338  14.241
   41TMC2    H5  645   4.262   2.304  14.277
   42MPD2     C  646   4.543   1.727  14.094
   42MPD2    C1  647   4.503   1.817  14.187
   42MPD2    C2  648   4.476   1.777  14.318
   42MPD2    C3  649   4.492   1.646  14.353
   42MPD2    C4  650   4.527   1.551  14.253
   42MPD2    C5  651   4.547   1.592  14.120
   42MPD2     H  652   4.460   1.856  14.390
   42MPD2    H1  653   4.530   1.445  14.275
   42MPD2    H2  654   4.566   1.747  13.990
   42MPD2    H3  655   4.565   1.522  14.039
   42MPD2     N  656   4.477   1.596  14.481
   42MPD2    H5  657   4.516   1.504  14.496
   42MPD2    N1  658   4.497   1.956  14.153
   42MPD2    H7  659   4.456   2.014  14.226
   43TMC2    C1  660   1.110   0.288  19.408
   43TMC2    C2  661   0.996   0.368  19.396
   43TMC2    C3  662   0.991   0.477  19.478
   43TMC2    C4  663   1.222   0.331  19.478
   43TMC2    C5  664   1.217   0.446  19.558
   43TMC2    C6  665   1.099   0.518  19.556
   43TMC2     C  666   1.148   0.195  19.304
   43TMC2     O  667   1.265   0.190  19.272
   43TMC2     H  668   0.915   0.341  19.330
   43TMC2    H1  669   1.311   0.270  19.480
   43TMC2    H2  670   1.096   0.608  19.616
   43TMC2    C7  671   1.320   0.466  19.659
   43TMC2    C8  672   0.884   0.571  19.462
   43TMC2    O1  673   1.423   0.406  19.638
   43TMC2    O2  674   0.815   0.568  19.361
   43TMC2    O5  675   0.848   0.637  19.570
   43TMC2    H5  676   0.902   0.619  19.650
   44MPD2     C  677   1.006   0.001  18.861
   44MPD2    C1  678   1.140   0.037  18.902
   44MPD2    C2  679   1.151   0.075  19.029
   44MPD2    C3  680   1.037   0.080  19.111
   44MPD2    C4  681   0.911   0.048  19.061
   44MPD2    C5  682   0.891   4.780  18.937
   44MPD2     H  683   1.252   0.088  19.064
   44MPD2    H1  684   0.820   0.079  19.111
   44MPD2    H2  685   0.982   4.774  18.755
   44MPD2    H3  686   0.795   4.769  18.887
   44MPD2     N  687   1.034   0.152  19.231
   44MPD2    H5  688   0.940   0.176  19.260
   44MPD2    N1  689   1.247   0.034  18.814
   44MPD2    H7  690   1.327   0.089  18.844
   45TMC2    C1  691   2.193   2.244   9.884
   45TMC2    C2  692   2.249   2.266   9.762
   45TMC2    C3  693   2.299   2.396   9.735
   45TMC2    C4  694   2.196   2.341   9.980
   45TMC2    C5  695   2.234   2.468   9.949
   45TMC2    C6  696   2.287   2.498   9.822
   45TMC2     C  697   2.110   2.133   9.911
   45TMC2     O  698   2.138   2.072  10.015
   45TMC2     H  699   2.245   2.182   9.694
   45TMC2    H1  700   2.160   2.314  10.079
   45TMC2    H2  701   2.329   2.595   9.798
   45TMC2    C7  702   2.237   2.575  10.048
   45TMC2    C8  703   2.380   2.423   9.620
   45TMC2    O1  704   2.264   2.546  10.160
   45TMC2    O2  705   2.476   2.498   9.619
   45TMC2    O5  706   2.358   2.312   9.539
   45TMC2    H5  707   2.270   2.270   9.535
   46MPD2     C  708   1.933   1.889   9.873
   46MPD2    C1  709   1.929   2.005   9.803
   46MPD2    C2  710   1.829   2.016   9.707
   46MPD2    C3  711   1.724   1.930   9.699
   46MPD2    C4  712   1.733   1.814   9.773
   46MPD2    C5  713   1.840   1.794   9.859
   46MPD2     H  714   1.821   2.115   9.665
   46MPD2    H1  715   1.646   1.749   9.769
   46MPD2    H2  716   2.015   1.879   9.943
   46MPD2    H3  717   1.849   1.703   9.918
   46MPD2     N  718   1.614   1.974   9.627
   46MPD2    H5  719   1.628   2.056   9.569
   46MPD2    N1  720   2.019   2.113   9.810
   46MPD2    H7  721   1.997   2.186   9.743
   47TMC2    C1  722   4.240   3.128   9.166
   47TMC2    C2  723   4.321   3.082   9.068
   47TMC2    C3  724   4.253   3.029   8.956
   47TMC2    C4  725   4.104   3.119   9.164
   47TMC2    C5  726   4.046   3.067   9.054
   47TMC2    C6  727   4.117   3.021   8.950
   47TMC2     C  728   4.297   3.167   9.294
   47TMC2     O  729   4.231   3.246   9.358
   47TMC2     H  730   4.429   3.093   9.068
   47TMC2    H1  731   4.039   3.124   9.250
   47TMC2    H2  732   4.072   2.993   8.855
   47TMC2    C7  733   3.907   3.022   9.059
   47TMC2    C8  734   4.331   3.030   8.838
   47TMC2    O1  735   3.894   2.918   8.993
   47TMC2    O2  736   4.364   3.143   8.803
   47TMC2    O5  737   4.271   2.944   8.751
   47TMC2    H5  738   4.240   2.860   8.790
   48MPD2     C  739   4.472   3.247   9.508
   48MPD2    C1  740   4.498   3.139   9.423
   48MPD2    C2  741   4.599   3.048   9.457
   48MPD2    C3  742   4.674   3.061   9.574
   48MPD2    C4  743   4.652   3.172   9.655
   48MPD2    C5  744   4.552   3.264   9.624
   48MPD2     H  745   4.611   2.964   9.389
   48MPD2    H1  746   4.714   3.192   9.741
   48MPD2    H2  747   4.389   3.317   9.496
   48MPD2    H3  748   4.541   3.352   9.686
   48MPD2     N  749   4.755   2.955   9.613
   48MPD2    H5  750   4.768   2.884   9.542
   48MPD2    N1  751   4.412   3.096   9.325
   48MPD2    H7  752   4.438   3.015   9.270
   49TMC2    C1  753   2.433   0.194  10.485
   49TMC2    C2  754   2.373   0.299  10.418
   49TMC2    C3  755   2.242   0.294  10.396
   49TMC2    C4  756   2.365   0.085  10.517
   49TMC2    C5  757   2.229   0.081  10.486
   49TMC2    C6  758   2.163   0.185  10.425
   49TMC2     C  759   2.538   0.237  10.569
   49TMC2     O  760   2.592   0.343  10.550
   49TMC2     H  761   2.431   0.388  10.398
   49TMC2    H1  762   2.406   4.779  10.566
   49TMC2    H2  763   2.055   0.177  10.414
   49TMC2    C7  764   2.152   4.738  10.491
   49TMC2    C8  765   2.183   0.412  10.340
   49TMC2    O1  766   2.053   4.739  10.418
   49TMC2    O2  767   2.249   0.493  10.276
   49TMC2    O5  768   2.051   0.405  10.355
   49TMC2    H5  769   2.026   0.363  10.440
   50MPD2     C  770   2.706   0.308  10.805
   50MPD2    C1  771   2.609   0.216  10.801
   50MPD2    C2  772   2.566   0.167  10.926
   50MPD2    C3  773   2.609   0.211  11.048
   50MPD2    C4  774   2.704   0.312  11.048
   50MPD2    C5  775   2.758   0.355  10.929
   50MPD2     H  776   2.486   0.094  10.922
   50MPD2    H1  777   2.740   0.350  11.143
   50MPD2    H2  778   2.747   0.347  10.712
   50MPD2    H3  779   2.828   0.437  10.940
   50MPD2     N  780   2.556   0.162  11.172
   50MPD2    H5  781   2.591   0.204  11.257
   50MPD2    N1  782   2.540   0.164  10.689
   50MPD2    H7  783   2.454   0.117  10.716
   51TMC2    C1  784   2.531   3.946  19.301
   51TMC2    C2  785   2.537   3.997  19.431
   51TMC2    C3  786   2.531   4.135  19.441
   51TMC2    C4  787   2.507   4.024  19.195
   51TMC2    C5  788   2.503   4.161  19.211
   51TMC2    C6  789   2.516   4.217  19.334
   51TMC2     C  790   2.606   3.821  19.284
   51TMC2     O  791   2.652   3.769  19.386
   51TMC2     H  792   2.552   3.936  19.519
   51TMC2    H1  793   2.494   3.989  19.093
   51TMC2    H2  794   2.513   4.325  19.345
   51TMC2    C7  795   2.457   4.240  19.100
   51TMC2    C8  796   2.543   4.185  19.580
   51TMC2    O1  797   2.356   4.302  19.120
   51TMC2    O2  798   2.589   4.116  19.670
   51TMC2    O5  799   2.505   4.317  19.595
   51TMC2    H5  800   2.437   4.339  19.528
   52MPD2     C  801   2.907   3.552  18.970
   52MPD2    C1  802   2.901   3.545  19.108
   52MPD2    C2  803   2.824   3.642  19.179
   52MPD2    C3  804   2.741   3.720  19.103
   52MPD2    C4  805   2.745   3.723  18.966
   52MPD2    C5  806   2.837   3.647  18.897
   52MPD2     H  807   2.815   3.641  19.287
   52MPD2    H1  808   2.703   3.804  18.908
   52MPD2    H2  809   2.986   3.501  18.917
   52MPD2    H3  810   2.834   3.651  18.789
   52MPD2     N  811   2.649   3.815  19.155
   52MPD2    H5  812   2.584   3.854  19.087
   52MPD2    N1  813   2.994   3.472  19.189
   52MPD2    H7  814   2.995   3.503  19.286
   53TMC2    C1  815   3.204   2.341  11.839
   53TMC2    C2  816   3.155   2.433  11.756
   53TMC2    C3  817   3.156   2.557  11.800
   53TMC2    C4  818   3.246   2.363  11.964
   53TMC2    C5  819   3.241   2.494  12.012
   53TMC2    C6  820   3.186   2.586  11.932
   53TMC2     C  821   3.179   2.204  11.791
   53TMC2     O  822   3.185   2.180  11.670
   53TMC2     H  823   3.136   2.402  11.653
   53TMC2    H1  824   3.277   2.282  12.029
   53TMC2    H2  825   3.185   2.688  11.968
   53TMC2    C7  826   3.185   2.491  12.145
   53TMC2    C8  827   3.116   2.671  11.716
   53TMC2    O1  828   3.072   2.526  12.161
   53TMC2    O2  829   3.058   2.774  11.758
   53TMC2    O5  830   3.165   2.662  11.589
   53TMC2    H5  831   3.203   2.573  11.569
   54MPD2     C  832   3.165   1.913  11.778
   54MPD2    C1  833   3.115   1.986  11.883
   54MPD2    C2  834   3.045   1.920  11.977
   54MPD2    C3  835   3.008   1.783  11.969
   54MPD2    C4  836   3.047   1.723  11.859
   54MPD2    C5  837   3.130   1.781  11.764
   54MPD2     H  838   3.019   1.983  12.061
   54MPD2    H1  839   3.012   1.622  11.837
   54MPD2    H2  840   3.221   1.948  11.691
   54MPD2    H3  841   3.148   1.726  11.673
   54MPD2     N  842   2.932   1.715  12.067
   54MPD2    H5  843   2.883   1.629  12.043
   54MPD2    N1  844   3.137   2.124  11.893
   54MPD2    H7  845   3.113   2.166  11.982
   55TMC2    C1  846   4.252   4.547  17.902
   55TMC2    C2  847   4.216   4.545  17.769
   55TMC2    C3  848   4.178   4.426  17.717
   55TMC2    C4  849   4.251   4.431  17.974
   55TMC2    C5  850   4.198   4.317  17.923
   55TMC2    C6  851   4.162   4.312  17.790
   55TMC2     C  852   4.220   4.653  17.993
   55TMC2     O  853   4.181   4.620  18.107
   55TMC2     H  854   4.210   4.638  17.712
   55TMC2    H1  855   4.297   4.431  18.073
   55TMC2    H2  856   4.111   4.224  17.751
   55TMC2    C7  857   4.113   4.254  18.024
   55TMC2    C8  858   4.126   4.433  17.582
   55TMC2    O1  859   4.076   4.141  17.991
   55TMC2    O2  860   4.082   4.527  17.521
   55TMC2    O5  861   4.143   4.311  17.530
   55TMC2    H5  862   4.195   4.245  17.580
   56MPD2     C  863   4.273   0.239  17.953
   56MPD2    C1  864   4.224   0.119  18.011
   56MPD2    C2  865   4.174   0.130  18.138
   56MPD2    C3  866   4.169   0.254  18.208
   56MPD2    C4  867   4.235   0.363  18.157
   56MPD2    C5  868   4.277   0.353  18.023
   56MPD2     H  869   4.123   0.047  18.185
   56MPD2    H1  870   4.231   0.460  18.204
   56MPD2    H2  871   4.291   0.241  17.846
   56MPD2    H3  872   4.328   0.436  17.977
   56MPD2     N  873   4.106   0.250  18.333
   56MPD2    H5  874   4.056   0.167  18.362
   56MPD2    N1  875   4.240   4.774  17.936
   56MPD2    H7  876   4.256   0.004  17.837
   57MPD2     C  877   2.737   0.701  14.135
   57MPD2    C1  878   2.789   0.827  14.177
   57MPD2    C2  879   2.918   0.852  14.158
   57MPD2    C3  880   2.994   0.753  14.085
   57MPD2    C4  881   2.945   0.636  14.039
   57MPD2    C5  882   2.816   0.606  14.065
   57MPD2     H  883   2.966   0.940  14.199
   57MPD2    H1  884   3.013   0.570  13.986
   57MPD2    H2  885   2.635   0.667  14.148
   57MPD2    H3  886   2.787   0.505  14.040
   57MPD2     N  887   3.135   0.770  14.070
   57MPD2    H5  888   3.198   0.704  14.025
   57MPD2    N1  889   2.707   0.923  14.233
   57MPD2    H7  890   2.748   1.006  14.275
   58TCq2    C1  891   3.208   0.882  14.104
   58TCq2    O2  892   3.190   0.986  14.170
   58TCq2    C2  893   3.341   0.845  14.065
   58TCq2    C3  894   3.370   0.730  14.127
   58TCq2    C4  895   3.454   0.640  14.067
   58TCq2    C5  896   3.514   0.666  13.948
   58TCq2    C6  897   3.476   0.786  13.887
   58TCq2    C7  898   3.387   0.876  13.943
   58TCq2    C8  899   3.532   0.824  13.758
   58TCq2    O4  900   3.500   0.936  13.710
   58TCq2    C9  901   3.464   0.506  14.124
   58TCq2    O5  902   3.541   0.424  14.063
   58TCq2    O6  903   3.374   0.471  14.206
   58TCq2    H2  904   3.321   0.714  14.222
   58TCq2    H3  905   3.578   0.592  13.901
   58TCq2    H4  906   3.360   0.967  13.890
   59TMC2    C1  907   0.677   1.022  13.256
   59TMC2    C2  908   0.696   0.892  13.290
   59TMC2    C3  909   0.661   0.797  13.203
   59TMC2    C4  910   0.627   1.059  13.134
   59TMC2    C5  911   0.618   0.957  13.042
   59TMC2    C6  912   0.615   0.825  13.080
   59TMC2     C  913   0.683   1.116  13.364
   59TMC2     O  914   0.605   1.210  13.358
   59TMC2     H  915   0.735   0.865  13.388
   59TMC2    H1  916   0.612   1.164  13.111
   59TMC2    H2  917   0.594   0.747  13.009
   59TMC2    C7  918   0.608   0.989  12.902
   59TMC2    C8  919   0.626   0.671  13.255
   59TMC2    O1  920   0.623   0.892  12.828
   59TMC2    O2  921   0.522   0.612  13.230
   59TMC2    O5  922   0.718   0.624  13.342
   59TMC2    H5  923   0.802   0.674  13.330
   60MPD2     C  924   0.755   1.264  13.621
   60MPD2    C1  925   0.835   1.171  13.552
   60MPD2    C2  926   0.965   1.159  13.598
   60MPD2    C3  927   1.018   1.218  13.715
   60MPD2    C4  928   0.932   1.308  13.779
   60MPD2    C5  929   0.805   1.324  13.738
   60MPD2     H  930   1.029   1.089  13.546
   60MPD2    H1  931   0.977   1.368  13.857
   60MPD2    H2  932   0.652   1.278  13.588
   60MPD2    H3  933   0.746   1.399  13.791
   60MPD2     N  934   1.143   1.192  13.767
   60MPD2    H5  935   1.159   1.242  13.854
   60MPD2    N1  936   0.793   1.102  13.434
   60MPD2    H7  937   0.863   1.038  13.396
   61TMC2    C1  938   0.061   1.995  15.505
   61TMC2    C2  939   0.013   1.937  15.621
   61TMC2    C3  940   0.019   2.001  15.740
   61TMC2    C4  941   0.100   2.126  15.506
   61TMC2    C5  942   0.106   2.188  15.626
   61TMC2    C6  943   0.070   2.131  15.753
   61TMC2     C  944   0.043   1.926  15.375
   61TMC2     O  945   0.001   1.814  15.389
   61TMC2     H  946   4.752   1.837  15.615
   61TMC2    H1  947   0.130   2.177  15.415
   61TMC2    H2  948   0.065   2.181  15.849
   61TMC2    C7  949   0.160   2.323  15.630
   61TMC2    C8  950   4.707   1.967  15.848
   61TMC2    O1  951   0.147   2.396  15.534
   61TMC2    O2  952   4.638   2.057  15.900
   61TMC2    O5  953   4.714   1.833  15.869
   61TMC2    H5  954   0.006   1.781  15.827
   62MPD2     C  955   0.031   1.822  15.103
   62MPD2    C1  956   0.105   1.935  15.142
   62MPD2    C2  957   0.177   2.009  15.044
   62MPD2    C3  958   0.174   1.975  14.904
   62MPD2    C4  959   0.094   1.863  14.875
   62MPD2    C5  960   0.030   1.793  14.971
   62MPD2     H  961   0.241   2.081  15.094
   62MPD2    H1  962   0.088   1.828  14.772
   62MPD2    H2  963   4.746   1.762  15.164
   62MPD2    H3  964   4.751   1.710  14.937
   62MPD2     N  965   0.237   2.045  14.803
   62MPD2    H5  966   0.222   2.008  14.710
   62MPD2    N1  967   0.121   1.978  15.275
   62MPD2    H7  968   0.193   2.046  15.296
   63TMC2    C1  969   4.281   3.019  10.724
   63TMC2    C2  970   4.390   2.947  10.761
   63TMC2    C3  971   4.498   2.967  10.683
   63TMC2    C4  972   4.276   3.107  10.618
   63TMC2    C5  973   4.384   3.114  10.541
   63TMC2    C6  974   4.500   3.051  10.578
   63TMC2     C  975   4.162   2.991  10.792
   63TMC2     O  976   4.076   3.076  10.804
   63TMC2     H  977   4.402   2.903  10.859
   63TMC2    H1  978   4.185   3.163  10.602
   63TMC2    H2  979   4.593   3.055  10.522
   63TMC2    C7  980   4.349   3.079  10.409
   63TMC2    C8  981   4.629   2.916  10.724
   63TMC2    O1  982   4.243   3.023  10.391
   63TMC2    O2  983   4.734   2.964  10.694
   63TMC2    O5  984   4.619   2.807  10.803
   63TMC2    H5  985   4.533   2.760  10.807
   64MPD2     C  986   3.882   2.646  11.058
   64MPD2    C1  987   4.008   2.588  11.023
   64MPD2    C2  988   4.100   2.665  10.959
   64MPD2    C3  989   4.068   2.791  10.911
   64MPD2    C4  990   3.946   2.850  10.946
   64MPD2    C5  991   3.858   2.777  11.019
   64MPD2     H  992   4.198   2.624  10.936
   64MPD2    H1  993   3.916   2.949  10.914
   64MPD2    H2  994   3.803   2.602  11.118
   64MPD2    H3  995   3.764   2.823  11.048
   64MPD2     N  996   4.162   2.861  10.841
   64MPD2    H5  997   4.224   2.804  10.784
   64MPD2    N1  998   4.043   2.453  11.057
   64MPD2    H7  999   4.139   2.422  11.040
   65TMC2    C1 1000   1.096   1.955  15.828
   65TMC2    C2 1001   1.131   1.923  15.699
   65TMC2    C3 1002   1.119   2.013  15.603
   65TMC2    C4 1003   1.061   2.085  15.860
   65TMC2    C5 1004   1.052   2.175  15.757
   65TMC2    C6 1005   1.079   2.145  15.629
   65TMC2     C 1006   1.113   1.860  15.936
   65TMC2     O 1007   1.114   1.912  16.047
   65TMC2     H 1008   1.158   1.823  15.665
   65TMC2    H1 1009   1.038   2.111  15.962
   65TMC2    H2 1010   1.085   2.229  15.559
   65TMC2    C7 1011   0.998   2.308  15.780
   65TMC2    C8 1012   1.187   1.986  15.479
   65TMC2    O1 1013   1.027   2.401  15.704
   65TMC2    O2 1014   1.296   1.936  15.471
   65TMC2    O5 1015   1.129   2.047  15.378
   65TMC2    H5 1016   1.033   2.064  15.390
   66MPD2     C 1017   1.161   1.628  16.132
   66MPD2    C1 1018   1.129   1.621  15.993
   66MPD2    C2 1019   1.092   1.491  15.951
   66MPD2    C3 1020   1.079   1.383  16.030
   66MPD2    C4 1021   1.133   1.396  16.157
   66MPD2    C5 1022   1.168   1.515  16.208
   66MPD2     H 1023   1.068   1.485  15.845
   66MPD2    H1 1024   1.111   1.317  16.229
   66MPD2    H2 1025   1.188   1.719  16.185
   66MPD2    H3 1026   1.188   1.537  16.313
   66MPD2     N 1027   1.047   1.252  15.985
   66MPD2    H5 1028   1.011   1.185  16.053
   66MPD2    N1 1029   1.100   1.727  15.903
   66MPD2    H7 1030   1.076   1.705  15.807
   67TMC2    C1 1031   1.163   1.239  14.718
   67TMC2    C2 1032   1.111   1.365  14.732
   67TMC2    C3 1033   1.195   1.460  14.801
   67TMC2    C4 1034   1.281   1.201  14.771
   67TMC2    C5 1035   1.348   1.292  14.848
   67TMC2    C6 1036   1.308   1.422  14.865
   67TMC2     C 1037   1.077   1.139  14.647
   67TMC2     O 1038   1.111   1.025  14.646
   67TMC2     H 1039   1.030   1.412  14.678
   67TMC2    H1 1040   1.310   1.097  14.761
   67TMC2    H2 1041   1.379   1.495  14.900
   67TMC2    C7 1042   1.474   1.240  14.909
   67TMC2    C8 1043   1.142   1.595  14.808
   67TMC2    O1 1044   1.540   1.154  14.851
   67TMC2    O2 1045   1.089   1.645  14.708
   67TMC2    O5 1046   1.185   1.654  14.917
   67TMC2    H5 1047   1.226   1.593  14.982
   68MPD2     C 1048   0.890   1.015  14.451
   68MPD2    C1 1049   0.855   1.120  14.531
   68MPD2    C2 1050   0.734   1.174  14.522
   68MPD2    C3 1051   0.636   1.110  14.447
   68MPD2    C4 1052   0.674   1.005  14.367
   68MPD2    C5 1053   0.802   0.964  14.360
   68MPD2     H 1054   0.706   1.260  14.582
   68MPD2    H1 1055   0.601   0.957  14.303
   68MPD2    H2 1056   0.991   0.974  14.444
   68MPD2    H3 1057   0.829   0.882  14.295
   68MPD2     N 1058   0.502   1.152  14.444
   68MPD2    H5 1059   0.442   1.104  14.378
   68MPD2    N1 1060   0.955   1.188  14.608
   68MPD2    H7 1061   0.927   1.281  14.637
   69MPD2     C 1062   3.398   2.584  13.230
   69MPD2    C1 1063   3.269   2.540  13.228
   69MPD2    C2 1064   3.230   2.433  13.309
   69MPD2    C3 1065   3.326   2.383  13.392
   69MPD2    C4 1066   3.460   2.418  13.387
   69MPD2    C5 1067   3.492   2.517  13.302
   69MPD2     H 1068   3.126   2.402  13.314
   69MPD2    H1 1069   3.526   2.379  13.464
   69MPD2    H2 1070   3.434   2.675  13.184
   69MPD2    H3 1071   3.597   2.546  13.303
   69MPD2     N 1072   3.301   2.289  13.490
   69MPD2    H5 1073   3.379   2.259  13.547
   69MPD2    N1 1074   3.193   2.595  13.127
   69MPD2    H7 1075   3.226   2.677  13.077
   70TCq2    C1 1076   3.078   2.533  13.074
   70TCq2    O2 1077   3.023   2.431  13.114
   70TCq2    C2 1078   3.040   2.586  12.950
   70TCq2    C3 1079   2.910   2.564  12.910
   70TCq2    C4 1080   2.873   2.583  12.779
   70TCq2    C5 1081   2.972   2.616  12.688
   70TCq2    C6 1082   3.100   2.636  12.729
   70TCq2    C7 1083   3.140   2.624  12.864
   70TCq2    C8 1084   3.206   2.677  12.638
   70TCq2    O4 1085   3.324   2.659  12.669
   70TCq2    C9 1086   2.744   2.572  12.724
   70TCq2    O5 1087   2.662   2.510  12.795
   70TCq2    O6 1088   2.724   2.626  12.614
   70TCq2    H2 1089   2.838   2.519  12.977
   70TCq2    H3 1090   2.944   2.615  12.583
   70TCq2    H4 1091   3.247   2.628  12.885
   71TMC2    C1 1092   4.767   3.107  19.516
   71TMC2    C2 1093   4.753   3.241  19.493
   71TMC2    C3 1094   4.633   3.303  19.498
   71TMC2    C4 1095   4.660   3.031  19.549
   71TMC2    C5 1096   4.537   3.092  19.559
   71TMC2    C6 1097   4.525   3.224  19.535
   71TMC2     C 1098   0.106   3.044  19.469
   71TMC2     O 1099   0.169   3.098  19.382
   71TMC2     H 1100   0.056   3.296  19.451
   71TMC2    H1 1101   4.668   2.925  19.570
   71TMC2    H2 1102   4.426   3.266  19.546
   71TMC2    C7 1103   4.422   3.001  19.566
   71TMC2    C8 1104   4.635   3.446  19.538
   71TMC2    O1 1105   4.426   2.911  19.648
   71TMC2    O2 1106   4.738   3.510  19.526
   71TMC2    O5 1107   4.536   3.461  19.626
   71TMC2    H5 1108   4.486   3.377  19.635
   72MPD2     C 1109   0.538   2.769  19.493
   72MPD2    C1 1110   0.480   2.837  19.392
   72MPD2    C2 1111   0.352   2.883  19.407
   72MPD2    C3 1112   0.281   2.883  19.528
   72MPD2    C4 1113   0.354   2.832  19.640
   72MPD2    C5 1114   0.473   2.764  19.617
   72MPD2     H 1115   0.306   2.917  19.315
   72MPD2    H1 1116   0.309   2.827  19.739
   72MPD2    H2 1117   0.637   2.724  19.488
   72MPD2    H3 1118   0.520   2.712  19.700
   72MPD2     N 1119   0.155   2.955  19.551
   72MPD2    H5 1120   0.112   2.923  19.637
   72MPD2    N1 1121   0.545   2.858  19.272
   72MPD2    H7 1122   0.494   2.875  19.186
   73TMC2    C1 1123   0.186   4.581  14.334
   73TMC2    C2 1124   0.103   4.616  14.434
   73TMC2    C3 1125   0.145   4.596  14.563
   73TMC2    C4 1126   0.310   4.535  14.361
   73TMC2    C5 1127   0.349   4.521  14.486
   73TMC2    C6 1128   0.268   4.546  14.590
   73TMC2     C 1129   0.190   4.681  14.227
   73TMC2     O 1130   0.302   4.700  14.187
   73TMC2     H 1131   0.002   4.647  14.412
   73TMC2    H1 1132   0.375   4.505  14.279
   73TMC2    H2 1133   0.310   4.539  14.689
   73TMC2    C7 1134   0.485   4.568  14.500
   73TMC2    C8 1135   0.059   4.624  14.679
   73TMC2    O1 1136   0.548   4.544  14.602
   73TMC2    O2 1137   0.044   4.554  14.779
   73TMC2    O5 1138   4.757   4.715  14.632
   73TMC2    H5 1139   0.030   4.771  14.572
   74MPD2     C 1140   0.042   0.309  13.954
   74MPD2    C1 1141   0.168   0.275  14.007
   74MPD2    C2 1142   0.174   0.156  14.081
   74MPD2    C3 1143   0.070   0.076  14.110
   74MPD2    C4 1144   4.730   0.109  14.051
   74MPD2    C5 1145   4.718   0.226  13.972
   74MPD2     H 1146   0.266   0.132  14.132
   74MPD2    H1 1147   4.646   0.043  14.070
   74MPD2    H2 1148   0.020   0.401  13.902
   74MPD2    H3 1149   4.618   0.246  13.938
   74MPD2     N 1150   0.070   4.739  14.189
   74MPD2    H5 1151   4.765   4.707  14.233
   74MPD2    N1 1152   0.275   0.355  13.976
   74MPD2    H7 1153   0.262   0.428  13.906
   75TMC2    C1 1154   0.325   1.308  14.473
   75TMC2    C2 1155   0.262   1.391  14.560
   75TMC2    C3 1156   0.182   1.490  14.513
   75TMC2    C4 1157   0.324   1.327  14.336
   75TMC2    C5 1158   0.244   1.431  14.295
   75TMC2    C6 1159   0.172   1.518  14.377
   75TMC2     C 1160   0.444   1.253  14.525
   75TMC2     O 1161   0.482   1.291  14.634
   75TMC2     H 1162   0.287   1.381  14.665
   75TMC2    H1 1163   0.369   1.256  14.268
   75TMC2    H2 1164   0.096   1.579  14.329
   75TMC2    C7 1165   0.214   1.444  14.150
   75TMC2    C8 1166   0.079   1.544  14.593
   75TMC2    O1 1167   0.219   1.340  14.082
   75TMC2    O2 1168   0.033   1.656  14.577
   75TMC2    O5 1169   0.065   1.469  14.705
   75TMC2    H5 1170   0.099   1.377  14.705
   76TMC2    C1 1171   4.290   1.668  12.296
   76TMC2    C2 1172   4.199   1.573  12.261
   76TMC2    C3 1173   4.223   1.444  12.295
   76TMC2    C4 1174   4.405   1.637  12.365
   76TMC2    C5 1175   4.427   1.501  12.386
   76TMC2    C6 1176   4.335   1.407  12.351
   76TMC2     C 1177   4.248   1.807  12.274
   76TMC2     O 1178   4.149   1.826  12.201
   76TMC2     H 1179   4.107   1.608  12.216
   76TMC2    H1 1180   4.484   1.709  12.381
   76TMC2    H2 1181   4.355   1.303  12.374
   76TMC2    C7 1182   4.541   1.462  12.467
   76TMC2    C8 1183   4.121   1.351  12.245
   76TMC2    O1 1184   4.566   1.342  12.457
   76TMC2    O2 1185   4.058   1.387  12.147
   76TMC2    O5 1186   4.116   1.221  12.299
   76TMC2    H5 1187   4.158   1.208  12.386
   77MPD2     C 1188   4.326   2.311  12.337
   77MPD2    C1 1189   4.224   2.244  12.276
   77MPD2    C2 1190   4.224   2.108  12.269
   77MPD2    C3 1191   4.323   2.035  12.338
   77MPD2    C4 1192   4.428   2.104  12.398
   77MPD2    C5 1193   4.430   2.241  12.395
   77MPD2     H 1194   4.133   2.061  12.234
   77MPD2    H1 1195   4.511   2.047  12.436
   77MPD2    H2 1196   4.329   2.420  12.335
   77MPD2    H3 1197   4.517   2.283  12.446
   77MPD2     N 1198   4.331   1.898  12.345
   77MPD2    H5 1199   4.406   1.858  12.400
   77MPD2    N1 1200   4.114   2.317  12.233
   77MPD2    H7 1201   4.047   2.272  12.172
   78TMC2    C1 1202   0.808   1.915  18.529
   78TMC2    C2 1203   0.851   1.894  18.658
   78TMC2    C3 1204   0.964   1.949  18.700
   78TMC2    C4 1205   0.867   2.017  18.455
   78TMC2    C5 1206   0.979   2.084  18.499
   78TMC2    C6 1207   1.024   2.044  18.623
   78TMC2     C 1208   0.672   1.880  18.493
   78TMC2     O 1209   0.616   1.953  18.414
   78TMC2     H 1210   0.801   1.820  18.721
   78TMC2    H1 1211   0.818   2.065  18.371
   78TMC2    H2 1212   1.110   2.087  18.673
   78TMC2    C7 1213   1.009   2.219  18.461
   78TMC2    C8 1214   1.033   1.892  18.812
   78TMC2    O1 1215   1.029   2.297  18.551
   78TMC2    O2 1216   0.990   1.857  18.921
   78TMC2    O5 1217   1.164   1.879  18.778
   78TMC2    H5 1218   1.181   1.878  18.682
   79MPD1     C 1219   0.242   1.620  18.530
   79MPD1    C1 1220   0.268   1.730  18.458
   79MPD1    C2 1221   0.396   1.783  18.470
   79MPD1    C3 1222   0.501   1.720  18.540
   79MPD1    C4 1223   0.469   1.609  18.607
   79MPD1    C5 1224   0.342   1.554  18.594
   79MPD1     H 1225   0.402   1.884  18.431
   79MPD1    H1 1226   0.538   1.558  18.674
   79MPD1    H2 1227   0.141   1.580  18.527
   79MPD1    H3 1228   0.312   1.469  18.654
   79MPD1     N 1229   0.631   1.770  18.553
   79MPD1    H5 1230   0.693   1.718  18.615
   79MPD1    N1 1231   0.166   1.804  18.399
   79MPD1    H6 1232   0.197   1.861  18.322
   79MPD1    H7 1233   0.086   1.754  18.360
   80MPD2     C 1234   3.710   1.632  12.701
   80MPD2    C1 1235   3.588   1.701  12.700
   80MPD2    C2 1236   3.532   1.733  12.823
   80MPD2    C3 1237   3.585   1.694  12.945
   80MPD2    C4 1238   3.703   1.619  12.944
   80MPD2    C5 1239   3.769   1.589  12.820
   80MPD2     H 1240   3.432   1.774  12.838
   80MPD2    H1 1241   3.744   1.584  13.038
   80MPD2    H2 1242   3.773   1.602  12.619
   80MPD2    H3 1243   3.858   1.529  12.838
   80MPD2     N 1244   3.536   1.727  13.073
   80MPD2    H5 1245   3.559   1.682  13.161
   80MPD2    N1 1246   3.517   1.731  12.584
   80MPD2    H7 1247   3.426   1.777  12.590
   81TCq2    C1 1248   3.567   1.725  12.458
   81TCq2    O2 1249   3.680   1.702  12.417
   81TCq2    C2 1250   3.462   1.745  12.358
   81TCq2    C3 1251   3.505   1.792  12.233
   81TCq2    C4 1252   3.452   1.758  12.115
   81TCq2    C5 1253   3.352   1.664  12.116
   81TCq2    C6 1254   3.305   1.617  12.239
   81TCq2    C7 1255   3.355   1.653  12.356
   81TCq2    C8 1256   3.196   1.523  12.227
   81TCq2    O4 1257   3.156   1.508  12.113
   81TCq2    C9 1258   3.512   1.796  11.987
   81TCq2    O5 1259   3.602   1.886  11.988
   81TCq2    O6 1260   3.493   1.719  11.888
   81TCq2    H2 1261   3.591   1.857  12.231
   81TCq2    H3 1262   3.320   1.621  12.022
   81TCq2    H4 1263   3.334   1.610  12.453
   82TMC2    C1 1264   1.206   1.058  11.507
   82TMC2    C2 1265   1.305   1.126  11.568
   82TMC2    C3 1266   1.391   1.056  11.648
   82TMC2    C4 1267   1.190   0.921  11.522
   82TMC2    C5 1268   1.277   0.859  11.613
   82TMC2    C6 1269   1.378   0.925  11.674
   82TMC2     C 1270   1.097   1.132  11.449
   82TMC2     O 1271   1.044   1.076  11.355
   82TMC2     H 1272   1.318   1.232  11.548
   82TMC2    H1 1273   1.102   0.878  11.475
   82TMC2    H2 1274   1.435   0.863  11.742
   82TMC2    C7 1275   1.232   0.728  11.667
   82TMC2    C8 1276   1.484   1.123  11.738
   82TMC2    O1 1277   1.255   0.700  11.786
   82TMC2    O2 1278   1.591   1.067  11.757
   82TMC2    O5 1279   1.439   1.239  11.765
   82TMC2    H5 1280   1.342   1.247  11.753
   83MPD2     C 1281   0.714   1.472  11.506
   83MPD2    C1 1282   0.758   1.404  11.394
   83MPD2    C2 1283   0.872   1.330  11.401
   83MPD2    C3 1284   0.944   1.317  11.514
   83MPD2    C4 1285   0.905   1.395  11.628
   83MPD2    C5 1286   0.794   1.475  11.623
   83MPD2     H 1287   0.905   1.272  11.315
   83MPD2    H1 1288   0.955   1.389  11.724
   83MPD2    H2 1289   0.634   1.544  11.494
   83MPD2    H3 1290   0.767   1.535  11.708
   83MPD2     N 1291   1.057   1.236  11.530
   83MPD2    H5 1292   1.111   1.255  11.614
   83MPD2    N1 1293   0.682   1.410  11.275
   83MPD2    H7 1294   0.586   1.443  11.281
   84TCq2    C1 1295   2.467   0.060  11.188
   84TCq2    O2 1296   2.431   4.758  11.106
   84TCq2    C2 1297   2.427   0.043  11.328
   84TCq2    C3 1298   2.446   4.702  11.373
   84TCq2    C4 1299   2.443   4.681  11.510
   84TCq2    C5 1300   2.407   4.780  11.596
   84TCq2    C6 1301   2.402   0.126  11.548
   84TCq2    C7 1302   2.417   0.148  11.414
   84TCq2    C8 1303   2.337   0.236  11.624
   84TCq2    O4 1304   2.343   0.349  11.577
   84TCq2    C9 1305   2.471   4.549  11.562
   84TCq2    O5 1306   2.448   4.527  11.685
   84TCq2    O6 1307   2.539   4.469  11.489
   84TCq2    H2 1308   2.464   4.617  11.309
   84TCq2    H3 1309   2.385   4.753  11.699
   84TCq2    H4 1310   2.414   0.249  11.376
   85TMC2    C1 1311   3.126   3.103  15.997
   85TMC2    C2 1312   3.013   3.166  16.020
   85TMC2    C3 1313   2.982   3.283  15.954
   85TMC2    C4 1314   3.221   3.155  15.915
   85TMC2    C5 1315   3.192   3.283  15.860
   85TMC2    C6 1316   3.072   3.344  15.874
   85TMC2     C 1317   3.166   2.989  16.080
   85TMC2     O 1318   3.286   2.967  16.092
   85TMC2     H 1319   2.956   3.127  16.103
   85TMC2    H1 1320   3.316   3.111  15.889
   85TMC2    H2 1321   3.036   3.434  15.825
   85TMC2    C7 1322   3.274   3.313  15.741
   85TMC2    C8 1323   2.863   3.353  15.985
   85TMC2    O1 1324   3.378   3.250  15.720
   85TMC2    O2 1325   2.842   3.471  15.956
   85TMC2    O5 1326   2.776   3.277  16.059
   85TMC2    H5 1327   2.801   3.183  16.063
   86MPD2     C 1328   3.057   2.666  16.453
   86MPD2    C1 1329   2.961   2.651  16.351
   86MPD2    C2 1330   2.974   2.728  16.232
   86MPD2    C3 1331   3.074   2.820  16.223
   86MPD2    C4 1332   3.167   2.839  16.324
   86MPD2    C5 1333   3.155   2.755  16.435
   86MPD2     H 1334   2.898   2.711  16.157
   86MPD2    H1 1335   3.255   2.899  16.305
   86MPD2    H2 1336   3.050   2.606  16.544
   86MPD2    H3 1337   3.233   2.773  16.509
   86MPD2     N 1338   3.060   2.908  16.108
   86MPD2    H5 1339   2.976   2.913  16.052
   86MPD2    N1 1340   2.859   2.553  16.354
   86MPD2    H7 1341   2.803   2.557  16.269
   87TMC2    C1 1342   1.116   1.007  19.159
   87TMC2    C2 1343   1.207   1.098  19.193
   87TMC2    C3 1344   1.154   1.208  19.263
   87TMC2    C4 1345   0.983   1.014  19.175
   87TMC2    C5 1346   0.937   1.135  19.231
   87TMC2    C6 1347   1.020   1.229  19.276
   87TMC2     C 1348   1.173   0.903  19.068
   87TMC2     O 1349   1.277   0.926  19.005
   87TMC2     H 1350   1.309   1.087  19.159
   87TMC2    H1 1351   0.913   0.940  19.138
   87TMC2    H2 1352   0.991   1.329  19.307
   87TMC2    C7 1353   0.800   1.181  19.208
   87TMC2    C8 1354   1.249   1.319  19.282
   87TMC2    O1 1355   0.767   1.291  19.226
   87TMC2    O2 1356   1.209   1.437  19.298
   87TMC2    O5 1357   1.376   1.287  19.256
   87TMC2    H5 1358   1.392   1.193  19.278
   88MPD2     C 1359   0.536   0.983  19.041
   88MPD2    C1 1360   0.599   1.097  19.087
   88MPD2    C2 1361   0.529   1.215  19.075
   88MPD2    C3 1362   0.411   1.225  19.003
   88MPD2    C4 1363   0.354   1.115  18.944
   88MPD2    C5 1364   0.418   0.994  18.968
   88MPD2     H 1365   0.571   1.309  19.109
   88MPD2    H1 1366   0.262   1.124  18.887
   88MPD2    H2 1367   0.600   0.895  19.041
   88MPD2    H3 1368   0.377   0.905  18.922
   88MPD2     N 1369   0.352   1.350  18.975
   88MPD2    H5 1370   0.252   1.332  18.973
   88MPD2    N1 1371   0.723   1.079  19.151
   88MPD2    H7 1372   0.757   0.984  19.151
   89TMC2    C1 1373   1.876   4.437  19.987
   89TMC2    C2 1374   1.864   4.441  19.847
   89TMC2    C3 1375   1.928   4.534  19.781
   89TMC2    C4 1376   1.948   4.525  20.057
   89TMC2    C5 1377   2.003   4.630  19.982
   89TMC2    C6 1378   1.994   4.631  19.842
   89TMC2     C 1379   1.817   4.316  20.050
   89TMC2     O 1380   1.868   4.270  20.154
   89TMC2     H 1381   1.793   4.375  19.799
   89TMC2    H1 1382   1.943   4.518  20.165
   89TMC2    H2 1383   2.023   4.717  19.782
   89TMC2    C7 1384   2.106   4.705  20.047
   89TMC2    C8 1385   1.909   4.523  19.638
   89TMC2    O1 1386   2.109   4.691  20.169
   89TMC2    O2 1387   1.810   4.482  19.580
   89TMC2    O5 1388   2.015   4.581  19.585
   89TMC2    H5 1389   2.097   4.586  19.639
   90MPD2     C 1390   1.431   3.969  20.069
   90MPD2    C1 1391   1.402   4.061  19.973
   90MPD2    C2 1392   1.499   4.158  19.946
   90MPD2    C3 1393   1.618   4.164  20.007
   90MPD2    C4 1394   1.648   4.067  20.092
   90MPD2    C5 1395   1.558   3.968  20.128
   90MPD2     H 1396   1.479   4.239  19.876
   90MPD2    H1 1397   1.744   4.063  20.143
   90MPD2    H2 1398   1.354   3.899  20.100
   90MPD2    H3 1399   1.596   3.898  20.202
   90MPD2     N 1400   1.699   4.285  19.985
   90MPD2    H5 1401   1.656   4.349  19.919
   90MPD2    N1 1402   1.281   4.057  19.900
   90MPD2    H7 1403   1.254   4.127  19.832
   91TMC2    C1 1404   3.020   3.918  16.604
   91TMC2    C2 1405   3.046   4.032  16.672
   91TMC2    C3 1406   2.951   4.068  16.762
   91TMC2    C4 1407   2.909   3.840  16.622
   91TMC2    C5 1408   2.822   3.876  16.723
   91TMC2    C6 1409   2.843   3.987  16.797
   91TMC2     C 1410   3.109   3.874  16.500
   91TMC2     O 1411   3.073   3.780  16.430
   91TMC2     H 1412   3.135   4.090  16.650
   91TMC2    H1 1413   2.882   3.756  16.560
   91TMC2    H2 1414   2.769   4.020  16.869
   91TMC2    C7 1415   2.694   3.812  16.740
   91TMC2    C8 1416   2.953   4.200  16.828
   91TMC2    O1 1417   2.656   3.812  16.855
   91TMC2    O2 1418   2.921   4.224  16.946
   91TMC2    O5 1419   3.010   4.287  16.742
   91TMC2    H5 1420   3.034   4.257  16.652
   92MPD2     C 1421   3.339   3.834  16.305
   92MPD2    C1 1422   3.350   3.888  16.436
   92MPD2    C2 1423   3.472   3.931  16.480
   92MPD2    C3 1424   3.583   3.915  16.405
   92MPD2    C4 1425   3.575   3.852  16.274
   92MPD2    C5 1426   3.450   3.811  16.226
   92MPD2     H 1427   3.488   3.962  16.582
   92MPD2    H1 1428   3.659   3.852  16.206
   92MPD2    H2 1429   3.243   3.810  16.261
   92MPD2    H3 1430   3.448   3.784  16.121
   92MPD2     N 1431   3.707   3.953  16.459
   92MPD2    H5 1432   3.705   4.018  16.537
   92MPD2    N1 1433   3.241   3.919  16.519
   92MPD2    H7 1434   3.261   3.974  16.602
   93MPD2     C 1435   0.012   4.100  13.931
   93MPD2    C1 1436   0.012   4.124  14.072
   93MPD2    C2 1437   4.670   4.125  14.141
   93MPD2    C3 1438   4.551   4.090  14.074
   93MPD2    C4 1439   4.556   4.067  13.940
   93MPD2    C5 1440   4.677   4.078  13.872
   93MPD2     H 1441   4.668   4.145  14.248
   93MPD2    H1 1442   4.469   4.044  13.880
   93MPD2    H2 1443   0.109   4.086  13.886
   93MPD2    H3 1444   4.686   4.048  13.768
   93MPD2     N 1445   4.427   4.084  14.134
   93MPD2    H5 1446   4.350   4.054  14.074
   93MPD2    N1 1447   0.128   4.137  14.155
   93MPD2    H7 1448   0.108   4.183  14.243
   94TCq2    C1 1449   0.256   4.139  14.114
   94TCq2    O2 1450   0.307   4.122  14.002
   94TCq2    C2 1451   0.352   4.169  14.225
   94TCq2    C3 1452   0.327   4.155  14.359
   94TCq2    C4 1453   0.419   4.188  14.448
   94TCq2    C5 1454   0.542   4.224  14.417
   94TCq2    C6 1455   0.572   4.238  14.279
   94TCq2    C7 1456   0.477   4.214  14.182
   94TCq2    C8 1457   0.713   4.257  14.249
   94TCq2    O4 1458   0.802   4.213  14.317
   94TCq2    C9 1459   0.388   4.149  14.587
   94TCq2    O5 1460   0.483   4.106  14.661
   94TCq2    O6 1461   0.268   4.169  14.620
   94TCq2    H2 1462   0.234   4.108  14.389
   94TCq2    H3 1463   0.618   4.236  14.494
   94TCq2    H4 1464   0.500   4.219  14.076
   95TMC2    C1 1465   0.027   0.786  15.912
   95TMC2    C2 1466   4.741   0.697  15.989
   95TMC2    C3 1467   4.636   0.631  15.938
   95TMC2    C4 1468   4.766   0.812  15.783
   95TMC2    C5 1469   4.653   0.749  15.734
   95TMC2    C6 1470   4.588   0.659  15.813
   95TMC2     C 1471   0.169   0.792  15.939
   95TMC2     O 1472   0.234   0.893  15.921
   95TMC2     H 1473   4.781   0.678  16.088
   95TMC2    H1 1474   0.044   0.867  15.711
   95TMC2    H2 1475   4.523   0.585  15.767
   95TMC2    C7 1476   4.614   0.778  15.600
   95TMC2    C8 1477   4.541   0.570  16.029
   95TMC2    O1 1478   4.681   0.858  15.536
   95TMC2    O2 1479   4.450   0.498  15.995
   95TMC2    O5 1480   4.534   0.652  16.135
   95TMC2    H5 1481   4.566   0.743  16.117
   96MPD2     C 1482   0.602   0.513  16.004
   96MPD2    C1 1483   0.588   0.650  15.995
   96MPD2    C2 1484   0.456   0.702  15.993
   96MPD2    C3 1485   0.346   0.620  15.982
   96MPD2    C4 1486   0.360   0.484  15.998
   96MPD2    C5 1487   0.492   0.435  16.011
   96MPD2     H 1488   0.435   0.809  15.995
   96MPD2    H1 1489   0.276   0.415  16.008
   96MPD2    H2 1490   0.705   0.480  15.999
   96MPD2    H3 1491   0.516   0.330  16.020
   96MPD2     N 1492   0.215   0.664  15.958
   96MPD2    H5 1493   0.141   0.596  15.942
   96MPD2    N1 1494   0.702   0.726  15.977
   96MPD2    H7 1495   0.784   0.673  15.948
   97MPD2     C 1496   1.852   3.240  18.378
   97MPD2    C1 1497   1.953   3.323  18.431
   97MPD2    C2 1498   2.034   3.396  18.347
   97MPD2    C3 1499   2.006   3.399  18.210
   97MPD2    C4 1500   1.908   3.320  18.156
   97MPD2    C5 1501   1.831   3.234  18.237
   97MPD2     H 1502   2.118   3.456  18.380
   97MPD2    H1 1503   1.890   3.333  18.050
   97MPD2    H2 1504   1.776   3.176  18.423
   97MPD2    H3 1505   1.749   3.176  18.197
   97MPD2     N 1506   2.062   3.497  18.124
   97MPD2    H5 1507   2.025   3.507  18.030
   97MPD2    N1 1508   1.968   3.321  18.572
   97MPD2    H7 1509   1.896   3.267  18.619
   98TCq2    C1 1510   2.170   3.574  18.161
   98TCq2    O2 1511   2.275   3.547  18.222
   98TCq2    C2 1512   2.169   3.702  18.089
   98TCq2    C3 1513   2.046   3.758  18.068
   98TCq2    C4 1514   2.046   3.887  18.021
   98TCq2    C5 1515   2.156   3.961  18.003
   98TCq2    C6 1516   2.279   3.904  18.036
   98TCq2    C7 1517   2.283   3.774  18.082
   98TCq2    C8 1518   2.388   3.988  18.080
   98TCq2    O4 1519   2.478   3.932  18.141
   98TCq2    C9 1520   1.916   3.941  17.994
   98TCq2    O5 1521   1.906   4.059  17.954
   98TCq2    O6 1522   1.818   3.869  18.029
   98TCq2    H2 1523   1.951   3.719  18.105
   98TCq2    H3 1524   2.151   4.054  17.949
   98TCq2    H4 1525   2.374   3.727  18.116
   99TMC2    C1 1526   1.323   0.996  20.310
   99TMC2    C2 1527   1.370   1.060  20.424
   99TMC2    C3 1528   1.297   1.165  20.479
   99TMC2    C4 1529   1.206   1.041  20.249
   99TMC2    C5 1530   1.135   1.139  20.314
   99TMC2    C6 1531   1.184   1.206  20.422
   99TMC2     C 1532   1.411   0.910  20.239
   99TMC2     O 1533   1.518   0.878  20.293
   99TMC2     H 1534   1.461   1.029  20.474
   99TMC2    H1 1535   1.178   1.009  20.149
   99TMC2    H2 1536   1.126   1.285  20.469
   99TMC2    C7 1537   1.010   1.191  20.261
   99TMC2    C8 1538   1.367   1.259  20.565
   99TMC2    O1 1539   0.959   1.287  20.322
   99TMC2    O2 1540   1.352   1.382  20.568
   99TMC2    O5 1541   1.410   1.189  20.671
   99TMC2    H5 1542   1.387   1.097  20.646
  100MPD2     C 1543   1.533   0.699  20.062
  100MPD2    C1 1544   1.408   0.753  20.037
  100MPD2    C2 1545   1.331   0.705  19.936
  100MPD2    C3 1546   1.373   0.601  19.857
  100MPD2    C4 1547   1.491   0.548  19.885
  100MPD2    C5 1548   1.572   0.598  19.979
  100MPD2     H 1549   1.241   0.762  19.916
  100MPD2    H1 1550   1.538   0.472  19.823
  100MPD2    H2 1551   1.603   0.722  20.141
  100MPD2    H3 1552   1.675   0.565  19.967
  100MPD2     N 1553   1.288   0.556  19.754
  100MPD2    H5 1554   1.199   0.606  19.750
  100MPD2    N1 1555   1.351   0.853  20.129
  100MPD2    H7 1556   1.260   0.892  20.108
  101MPD2     C 1557   1.918   1.556  13.256
  101MPD2    C1 1558   1.820   1.638  13.320
  101MPD2    C2 1559   1.754   1.592  13.433
  101MPD2    C3 1560   1.789   1.464  13.483
  101MPD2    C4 1561   1.866   1.383  13.404
  101MPD2    C5 1562   1.936   1.428  13.300
  101MPD2     H 1563   1.683   1.652  13.489
  101MPD2    H1 1564   1.862   1.277  13.426
  101MPD2    H2 1565   1.976   1.593  13.172
  101MPD2    H3 1566   2.018   1.376  13.252
  101MPD2     N 1567   1.698   1.408  13.571
  101MPD2    H5 1568   1.648   1.471  13.633
  101MPD2    N1 1569   1.807   1.768  13.272
  101MPD2    H7 1570   1.890   1.801  13.224
  102TCq2    C1 1571   2.009   2.189  13.122
  102TCq2    O2 1572   2.077   2.093  13.088
  102TCq2    C2 1573   1.880   2.155  13.180
  102TCq2    C3 1574   1.773   2.239  13.165
  102TCq2    C4 1575   1.645   2.191  13.179
  102TCq2    C5 1576   1.627   2.073  13.239
  102TCq2    C6 1577   1.734   1.983  13.251
  102TCq2    C7 1578   1.864   2.023  13.217
  102TCq2    C8 1579   1.711   1.860  13.314
  102TCq2    O4 1580   1.604   1.839  13.366
  102TCq2    C9 1581   1.533   2.268  13.129
  102TCq2    O5 1582   1.422   2.210  13.119
  102TCq2    O6 1583   1.550   2.382  13.078
  102TCq2    H2 1584   1.789   2.341  13.131
  102TCq2    H3 1585   1.524   2.041  13.250
  102TCq2    H4 1586   1.950   1.957  13.224
  103TMC2    C1 1587   0.057   1.992  12.959
  103TMC2    C2 1588   0.184   2.031  12.926
  103TMC2    C3 1589   0.217   2.160  12.960
  103TMC2    C4 1590   4.757   2.070  13.034
  103TMC2    C5 1591   0.015   2.194  13.075
  103TMC2    C6 1592   0.146   2.241  13.038
  103TMC2     C 1593   0.005   1.871  12.907
  103TMC2     O 1594   4.661   1.860  12.906
  103TMC2     H 1595   0.250   1.988  12.851
  103TMC2    H1 1596   4.663   2.026  13.064
  103TMC2    H2 1597   0.188   2.333  13.076
  103TMC2    C7 1598   4.743   2.239  13.200
  103TMC2    C8 1599   0.344   2.200  12.910
  103TMC2    O1 1600   4.653   2.172  13.246
  103TMC2    O2 1601   0.443   2.126  12.910
  103TMC2    O5 1602   0.330   2.328  12.866
  103TMC2    H5 1603   0.235   2.350  12.851
  104MPD2     C 1604   0.164   1.573  12.766
  104MPD2    C1 1605   0.073   1.672  12.783
  104MPD2    C2 1606   4.740   1.665  12.705
  104MPD2    C3 1607   4.706   1.557  12.625
  104MPD2    C4 1608   0.014   1.450  12.625
  104MPD2    C5 1609   0.131   1.461  12.694
  104MPD2     H 1610   4.673   1.750  12.698
  104MPD2    H1 1611   4.777   1.353  12.579
  104MPD2    H2 1612   0.263   1.583  12.810
  104MPD2    H3 1613   0.197   1.375  12.698
  104MPD2     N 1614   4.586   1.563  12.548
  104MPD2    H5 1615   4.533   1.648  12.564
  104MPD2    N1 1616   0.100   1.786  12.867
  104MPD2    H7 1617   0.194   1.790  12.907
  105MPD2     C 1618   1.929   0.902  18.091
  105MPD2    C1 1619   1.818   0.953  18.028
  105MPD2    C2 1620   1.697   0.909  18.067
  105MPD2    C3 1621   1.682   0.803  18.159
  105MPD2    C4 1622   1.795   0.755  18.223
  105MPD2    C5 1623   1.919   0.820  18.202
  105MPD2     H 1624   1.613   0.962  18.025
  105MPD2    H1 1625   1.796   0.685  18.305
  105MPD2    H2 1626   2.023   0.950  18.067
  105MPD2    H3 1627   2.011   0.775  18.236
  105MPD2     N 1628   1.551   0.760  18.186
  105MPD2    H5 1629   1.481   0.801  18.125
  105MPD2    N1 1630   1.815   1.052  17.926
  105MPD2    H7 1631   1.722   1.082  17.895
  106TCq2    C1 1632   1.523   0.675  18.289
  106TCq2    O2 1633   1.590   0.632  18.373
  106TCq2    C2 1634   1.380   0.649  18.304
  106TCq2    C3 1635   1.294   0.746  18.258
  106TCq2    C4 1636   1.166   0.750  18.299
  106TCq2    C5 1637   1.115   0.657  18.388
  106TCq2    C6 1638   1.203   0.562  18.431
  106TCq2    C7 1639   1.339   0.560  18.400
  106TCq2    C8 1640   1.172   0.500  18.554
  106TCq2    O4 1641   1.174   0.376  18.551
  106TCq2    C9 1642   1.081   0.861  18.260
  106TCq2    O5 1643   0.958   0.860  18.303
  106TCq2    O6 1644   1.126   0.959  18.192
  106TCq2    H2 1645   1.325   0.834  18.203
  106TCq2    H3 1646   1.015   0.672  18.427
  106TCq2    H4 1647   1.406   0.487  18.444
  107TMC2    C1 1648   1.905   1.008  12.030
  107TMC2    C2 1649   1.905   1.037  11.894
  107TMC2    C3 1650   1.992   0.964  11.815
  107TMC2    C4 1651   1.981   0.905  12.084
  107TMC2    C5 1652   2.057   0.829  12.007
  107TMC2    C6 1653   2.064   0.863  11.872
  107TMC2     C 1654   1.823   1.084  12.126
  107TMC2     O 1655   1.868   1.083  12.238
  107TMC2     H 1656   1.850   1.121  11.853
  107TMC2    H1 1657   1.965   0.885  12.190
  107TMC2    H2 1658   2.138   0.820  11.805
  107TMC2    C7 1659   2.104   0.707  12.056
  107TMC2    C8 1660   1.954   0.945  11.676
  107TMC2    O1 1661   2.110   0.696  12.181
  107TMC2    O2 1662   2.034   0.981  11.590
  107TMC2    O5 1663   1.822   0.947  11.675
  107TMC2    H5 1664   1.766   0.950  11.756
  108MPD2     C 1665   1.511   1.255  12.116
  108MPD2    C1 1666   1.611   1.181  12.172
  108MPD2    C2 1667   1.593   1.130  12.301
  108MPD2    C3 1668   1.485   1.168  12.378
  108MPD2    C4 1669   1.394   1.254  12.323
  108MPD2    C5 1670   1.405   1.296  12.196
  108MPD2     H 1671   1.665   1.060  12.343
  108MPD2    H1 1672   1.298   1.284  12.363
  108MPD2    H2 1673   1.500   1.274  12.010
  108MPD2    H3 1674   1.319   1.351  12.159
  108MPD2     N 1675   1.456   1.118  12.509
  108MPD2    H5 1676   1.368   1.144  12.554
  108MPD2    N1 1677   1.712   1.143  12.084
  108MPD2    H7 1678   1.691   1.131  11.985
  109TMC2    C1 1679   1.921   2.800  19.153
  109TMC2    C2 1680   2.007   2.828  19.257
  109TMC2    C3 1681   1.951   2.870  19.373
  109TMC2    C4 1682   1.784   2.801  19.174
  109TMC2    C5 1683   1.733   2.851  19.294
  109TMC2    C6 1684   1.819   2.880  19.395
  109TMC2     C 1685   1.962   2.817  19.022
  109TMC2     O 1686   2.081   2.797  19.000
  109TMC2     H 1687   2.115   2.830  19.242
  109TMC2    H1 1688   1.708   2.764  19.106
  109TMC2    H2 1689   1.772   2.909  19.488
  109TMC2    C7 1690   1.597   2.823  19.330
  109TMC2    C8 1691   2.039   2.863  19.493
  109TMC2    O1 1692   1.582   2.747  19.424
  109TMC2    O2 1693   2.002   2.796  19.590
  109TMC2    O5 1694   2.160   2.920  19.474
  109TMC2    H5 1695   2.155   2.981  19.396
  110MPD2     C 1696   1.869   2.871  18.514
  110MPD2    C1 1697   1.765   2.919  18.582
  110MPD2    C2 1698   1.764   2.908  18.723
  110MPD2    C3 1699   1.874   2.869  18.798
  110MPD2    C4 1700   1.986   2.839  18.721
  110MPD2    C5 1701   1.984   2.832  18.584
  110MPD2     H 1702   1.667   2.921  18.769
  110MPD2    H1 1703   2.078   2.798  18.761
  110MPD2    H2 1704   1.863   2.854  18.407
  110MPD2    H3 1705   2.064   2.795  18.521
  110MPD2     N 1706   1.864   2.863  18.937
  110MPD2    H5 1707   1.785   2.903  18.986
  110MPD2    N1 1708   1.642   2.909  18.522
  110MPD2    H7 1709   1.632   2.874  18.427
  111TMC2    C1 1710   1.931   2.184  11.974
  111TMC2    C2 1711   1.851   2.219  12.077
  111TMC2    C3 1712   1.897   2.269  12.190
  111TMC2    C4 1713   2.065   2.198  11.978
  111TMC2    C5 1714   2.114   2.241  12.097
  111TMC2    C6 1715   2.033   2.281  12.203
  111TMC2     C 1716   1.869   2.228  11.848
  111TMC2     O 1717   1.930   2.202  11.749
  111TMC2     H 1718   1.746   2.192  12.080
  111TMC2    H1 1719   2.132   2.179  11.895
  111TMC2    H2 1720   2.085   2.318  12.290
  111TMC2    C7 1721   2.257   2.220  12.137
  111TMC2    C8 1722   1.825   2.214  12.304
  111TMC2    O1 1723   2.289   2.250  12.249
  111TMC2    O2 1724   1.763   2.110  12.293
  111TMC2    O5 1725   1.861   2.273  12.420
  111TMC2    H5 1726   1.910   2.354  12.393
  112MPD2     C 1727   1.457   2.293  11.538
  112MPD2    C1 1728   1.584   2.255  11.513
  112MPD2    C2 1729   1.684   2.262  11.613
  112MPD2    C3 1730   1.654   2.293  11.740
  112MPD2    C4 1731   1.524   2.326  11.769
  112MPD2    C5 1732   1.427   2.334  11.670
  112MPD2     H 1733   1.786   2.243  11.580
  112MPD2    H1 1734   1.489   2.355  11.868
  112MPD2    H2 1735   1.375   2.285  11.467
  112MPD2    H3 1736   1.321   2.333  11.691
  112MPD2     N 1737   1.738   2.272  11.857
  112MPD2    H5 1738   1.712   2.321  11.941
  112MPD2    N1 1739   1.627   2.224  11.386
  112MPD2    H7 1740   1.723   2.191  11.381
  113TMC2    C1 1741   0.059   0.186  18.647
  113TMC2    C2 1742   0.085   0.219  18.516
  113TMC2    C3 1743   0.005   0.152  18.426
  113TMC2    C4 1744   4.746   0.096  18.693
  113TMC2    C5 1745   4.679   0.028  18.591
  113TMC2    C6 1746   4.698   0.059  18.462
  113TMC2     C 1747   0.137   0.260  18.742
  113TMC2     O 1748   0.190   0.364  18.703
  113TMC2     H 1749   0.144   0.306  18.490
  113TMC2    H1 1750   4.732   0.061  18.794
  113TMC2    H2 1751   4.629   0.020  18.388
  113TMC2    C7 1752   4.613   4.681  18.610
  113TMC2    C8 1753   0.020   0.173  18.285
  113TMC2    O1 1754   4.588   4.623  18.504
  113TMC2    O2 1755   4.722   0.226  18.211
  113TMC2    O5 1756   0.078   0.055  18.253
  113TMC2    H5 1757   0.108   0.005  18.331
  114MPD2     C 1758   0.290   0.313  19.234
  114MPD2    C1 1759   0.285   0.401  19.129
  114MPD2    C2 1760   0.228   0.369  19.003
  114MPD2    C3 1761   0.198   0.237  18.984
  114MPD2    C4 1762   0.210   0.144  19.085
  114MPD2    C5 1763   0.253   0.181  19.211
  114MPD2     H 1764   0.212   0.443  18.926
  114MPD2    H1 1765   0.182   0.039  19.077
  114MPD2    H2 1766   0.341   0.338  19.326
  114MPD2    H3 1767   0.264   0.110  19.293
  114MPD2     N 1768   0.144   0.186  18.863
  114MPD2    H5 1769   0.101   0.094  18.868
  114MPD2    N1 1770   0.313   0.539  19.145
  114MPD2    H7 1771   0.285   0.610  19.078
  115TMC2    C1 1772   0.736   2.903  17.955
  115TMC2    C2 1773   0.875   2.889  17.955
  115TMC2    C3 1774   0.939   3.005  17.963
  115TMC2    C4 1775   0.670   3.012  17.993
  115TMC2    C5 1776   0.741   3.130  18.019
  115TMC2    C6 1777   0.880   3.121  17.998
  115TMC2     C 1778   0.663   2.789  17.906
  115TMC2     O 1779   0.725   2.688  17.878
  115TMC2     H 1780   0.919   2.796  17.920
  115TMC2    H1 1781   0.564   3.030  18.006
  115TMC2    H2 1782   0.940   3.208  18.024
  115TMC2    C7 1783   0.685   3.264  17.978
  115TMC2    C8 1784   1.084   3.010  17.958
  115TMC2    O1 1785   0.580   3.292  18.025
  115TMC2    O2 1786   1.148   3.092  18.024
  115TMC2    O5 1787   1.128   2.896  17.904
  115TMC2    H5 1788   1.069   2.862  17.833
  116MPD2     C 1789   0.247   2.617  17.650
  116MPD2    C1 1790   0.375   2.585  17.636
  116MPD2    C2 1791   0.469   2.641  17.719
  116MPD2    C3 1792   0.433   2.739  17.813
  116MPD2    C4 1793   0.305   2.779  17.818
  116MPD2    C5 1794   0.217   2.715  17.733
  116MPD2     H 1795   0.573   2.613  17.708
  116MPD2    H1 1796   0.272   2.878  17.849
  116MPD2    H2 1797   0.170   2.575  17.588
  116MPD2    H3 1798   0.113   2.734  17.754
  116MPD2     N 1799   0.527   2.813  17.895
  116MPD2    H5 1800   0.497   2.895  17.947
  116MPD2    N1 1801   0.404   2.482  17.542
  116MPD2    H7 1802   0.327   2.468  17.478
  117TMC2    C1 1803   4.428   4.392  14.580
  117TMC2    C2 1804   4.551   4.330  14.593
  117TMC2    C3 1805   4.627   4.337  14.483
  117TMC2    C4 1806   4.390   4.470  14.481
  117TMC2    C5 1807   4.479   4.487  14.377
  117TMC2    C6 1808   4.598   4.422  14.378
  117TMC2     C 1809   4.323   4.319  14.648
  117TMC2     O 1810   4.344   4.238  14.736
  117TMC2     H 1811   4.573   4.253  14.665
  117TMC2    H1 1812   4.303   4.535  14.485
  117TMC2    H2 1813   4.672   4.432  14.300
  117TMC2    C7 1814   4.478   4.618  14.315
  117TMC2    C8 1815   4.758   4.281  14.484
  117TMC2    O1 1816   4.593   4.654  14.288
  117TMC2    O2 1817   0.044   4.278  14.383
  117TMC2    O5 1818   0.022   4.245  14.611
  117TMC2    H5 1819   0.115   4.214  14.615
  118MPD2     C 1820   4.216   0.078  14.231
  118MPD2    C1 1821   4.342   0.037  14.261
  118MPD2    C2 1822   4.449   0.126  14.266
  118MPD2    C3 1823   4.420   0.256  14.228
  118MPD2    C4 1824   4.290   0.298  14.207
  118MPD2    C5 1825   4.188   0.204  14.205
  118MPD2     H 1826   4.547   0.093  14.299
  118MPD2    H1 1827   4.267   0.400  14.176
  118MPD2    H2 1828   4.133   0.008  14.230
  118MPD2    H3 1829   4.084   0.230  14.185
  118MPD2     N 1830   4.508   0.364  14.236
  118MPD2    H5 1831   4.476   0.452  14.198
  118MPD2    N1 1832   4.358   4.684  14.299
  118MPD2    H7 1833   4.278   4.623  14.313
  119MPD2     C 1834   2.956   1.330  14.311
  119MPD2    C1 1835   2.817   1.304  14.294
  119MPD2    C2 1836   2.765   1.260  14.170
  119MPD2    C3 1837   2.857   1.201  14.087
  119MPD2    C4 1838   2.995   1.205  14.110
  119MPD2    C5 1839   3.041   1.276  14.219
  119MPD2     H 1840   2.658   1.255  14.156
  119MPD2    H1 1841   3.067   1.152  14.049
  119MPD2    H2 1842   2.993   1.370  14.404
  119MPD2    H3 1843   3.148   1.294  14.225
  119MPD2     N 1844   2.826   1.129  13.965
  119MPD2    H5 1845   2.904   1.086  13.915
  119MPD2    N1 1846   2.740   1.356  14.405
  119MPD2    H7 1847   2.795   1.407  14.474
  120TCq2    C1 1848   2.703   1.110  13.916
  120TCq2    O2 1849   2.595   1.141  13.962
  120TCq2    C2 1850   2.699   1.031  13.797
  120TCq2    C3 1851   2.764   0.910  13.802
  120TCq2    C4 1852   2.696   0.804  13.750
  120TCq2    C5 1853   2.571   0.818  13.686
  120TCq2    C6 1854   2.520   0.940  13.677
  120TCq2    C7 1855   2.577   1.047  13.740
  120TCq2    C8 1856   2.396   0.954  13.615
  120TCq2    O4 1857   2.373   1.057  13.555
  120TCq2    C9 1858   2.756   0.673  13.746
  120TCq2    O5 1859   2.683   0.573  13.733
  120TCq2    O6 1860   2.877   0.675  13.722
  120TCq2    H2 1861   2.860   0.895  13.851
  120TCq2    H3 1862   2.523   0.729  13.648
  120TCq2    H4 1863   2.519   1.138  13.741
  121TMC2    C1 1864   3.950   2.723  14.366
  121TMC2    C2 1865   3.945   2.589  14.375
  121TMC2    C3 1866   3.818   2.528  14.367
  121TMC2    C4 1867   3.837   2.806  14.369
  121TMC2    C5 1868   3.712   2.742  14.379
  121TMC2    C6 1869   3.702   2.606  14.368
  121TMC2     C 1870   4.084   2.788  14.364
  121TMC2     O 1871   4.184   2.717  14.367
  121TMC2     H 1872   4.042   2.542  14.359
  121TMC2    H1 1873   3.845   2.914  14.376
  121TMC2    H2 1874   3.609   2.552  14.355
  121TMC2    C7 1875   3.592   2.825  14.368
  121TMC2    C8 1876   3.805   2.381  14.378
  121TMC2    O1 1877   3.608   2.946  14.348
  121TMC2    O2 1878   3.702   2.317  14.354
  121TMC2    O5 1879   3.927   2.321  14.390
  121TMC2    H5 1880   4.000   2.374  14.428
  122MPD2     C 1881   4.293   2.989  14.392
  122MPD2    C1 1882   4.176   3.008  14.325
  122MPD2    C2 1883   4.168   3.115  14.238
  122MPD2    C3 1884   4.254   3.214  14.238
  122MPD2    C4 1885   4.373   3.197  14.312
  122MPD2    C5 1886   4.393   3.079  14.379
  122MPD2     H 1887   4.081   3.119  14.173
  122MPD2    H1 1888   4.460   3.259  14.295
  122MPD2    H2 1889   4.318   2.896  14.442
  122MPD2    H3 1890   4.488   3.060  14.427
  122MPD2     N 1891   4.267   3.306  14.131
  122MPD2    H5 1892   4.357   3.351  14.116
  122MPD2    N1 1893   4.072   2.922  14.331
  122MPD2    H7 1894   3.987   2.955  14.286
  123TMC2    C1 1895   2.528   1.239  10.321
  123TMC2    C2 1896   2.659   1.269  10.311
  123TMC2    C3 1897   2.709   1.266  10.183
  123TMC2    C4 1898   2.438   1.223  10.219
  123TMC2    C5 1899   2.495   1.228  10.093
  123TMC2    C6 1900   2.629   1.259  10.074
  123TMC2     C 1901   2.486   1.198  10.450
  123TMC2     O 1902   2.557   1.229  10.547
  123TMC2     H 1903   2.733   1.252  10.389
  123TMC2    H1 1904   2.330   1.227  10.225
  123TMC2    H2 1905   2.673   1.246   9.976
  123TMC2    C7 1906   2.427   1.241   9.971
  123TMC2    C8 1907   2.850   1.274  10.166
  123TMC2    O1 1908   2.450   1.352   9.917
  123TMC2    O2 1909   2.912   1.204  10.089
  123TMC2    O5 1910   2.897   1.382  10.221
  123TMC2    H5 1911   2.836   1.434  10.278
  124MPD2     C 1912   2.212   0.908  10.770
  124MPD2    C1 1913   2.171   0.879  10.641
  124MPD2    C2 1914   2.221   0.959  10.540
  124MPD2    C3 1915   2.315   1.054  10.562
  124MPD2    C4 1916   2.345   1.089  10.693
  124MPD2    C5 1917   2.289   1.016  10.795
  124MPD2     H 1918   2.201   0.941  10.435
  124MPD2    H1 1919   2.411   1.172  10.718
  124MPD2    H2 1920   2.176   0.849  10.854
  124MPD2    H3 1921   2.318   1.038  10.897
  124MPD2     N 1922   2.381   1.112  10.451
  124MPD2    H5 1923   2.348   1.077  10.362
  124MPD2    N1 1924   2.074   0.773  10.626
  124MPD2    H7 1925   2.056   0.712  10.705
  125TMC2    C1 1926   3.019   2.610   9.218
  125TMC2    C2 1927   3.100   2.514   9.270
  125TMC2    C3 1928   3.238   2.543   9.277
  125TMC2    C4 1929   3.066   2.730   9.170
  125TMC2    C5 1930   3.204   2.749   9.170
  125TMC2    C6 1931   3.292   2.664   9.237
  125TMC2     C 1932   2.874   2.589   9.201
  125TMC2     O 1933   2.797   2.685   9.183
  125TMC2     H 1934   3.055   2.424   9.311
  125TMC2    H1 1935   3.000   2.805   9.126
  125TMC2    H2 1936   3.398   2.685   9.247
  125TMC2    C7 1937   3.249   2.882   9.133
  125TMC2    C8 1938   3.332   2.443   9.327
  125TMC2    O1 1939   3.161   2.957   9.091
  125TMC2    O2 1940   3.444   2.471   9.362
  125TMC2    O5 1941   3.296   2.332   9.259
  125TMC2    H5 1942   3.212   2.344   9.209
  126MPD1     C 1943   2.455   2.304   9.241
  126MPD1    C1 1944   2.567   2.223   9.221
  126MPD1    C2 1945   2.691   2.275   9.198
  126MPD1    C3 1946   2.705   2.415   9.213
  126MPD1    C4 1947   2.596   2.494   9.240
  126MPD1    C5 1948   2.475   2.442   9.256
  126MPD1     H 1949   2.779   2.214   9.180
  126MPD1    H1 1950   2.598   2.600   9.261
  126MPD1    H2 1951   2.353   2.269   9.258
  126MPD1    H3 1952   2.394   2.511   9.277
  126MPD1     N 1953   2.837   2.460   9.196
  126MPD1    H5 1954   2.909   2.389   9.180
  126MPD1    N1 1955   2.550   2.085   9.214
  126MPD1    H6 1956   2.635   2.036   9.240
  126MPD1    H7 1957   2.471   2.048   9.267
  127TMC2    C1 1958   4.228   1.904  10.075
  127TMC2    C2 1959   4.271   1.862  10.199
  127TMC2    C3 1960   4.191   1.784  10.271
  127TMC2    C4 1961   4.105   1.863  10.023
  127TMC2    C5 1962   4.035   1.778  10.095
  127TMC2    C6 1963   4.078   1.732  10.218
  127TMC2     C 1964   4.317   1.995  10.002
  127TMC2     O 1965   4.428   2.016  10.059
  127TMC2     H 1966   4.362   1.896  10.247
  127TMC2    H1 1967   4.062   1.901   9.931
  127TMC2    H2 1968   4.015   1.673  10.282
  127TMC2    C7 1969   3.934   1.702  10.026
  127TMC2    C8 1970   4.242   1.744  10.395
  127TMC2    O1 1971   3.888   1.755   9.927
  127TMC2    O2 1972   4.364   1.733  10.416
  127TMC2    O5 1973   4.142   1.738  10.486
  127TMC2    H5 1974   4.060   1.783  10.455
  128MPD2     C 1975   4.319   2.111   9.652
  128MPD2    C1 1976   4.360   2.115   9.786
  128MPD2    C2 1977   4.465   2.202   9.826
  128MPD2    C3 1978   4.517   2.296   9.734
  128MPD2    C4 1979   4.467   2.285   9.601
  128MPD2    C5 1980   4.367   2.199   9.566
  128MPD2     H 1981   4.483   2.189   9.932
  128MPD2    H1 1982   4.500   2.348   9.519
  128MPD2    H2 1983   4.230   2.054   9.625
  128MPD2    H3 1984   4.329   2.198   9.465
  128MPD2     N 1985   4.604   2.394   9.774
  128MPD2    H5 1986   4.597   2.410   9.874
  128MPD2    N1 1987   4.294   2.026   9.871
  128MPD2    H7 1988   4.197   2.016   9.843
  129TMC2    C1 1989   2.534   2.566  19.608
  129TMC2    C2 1990   2.625   2.639  19.688
  129TMC2    C3 1991   2.700   2.583  19.779
  129TMC2    C4 1992   2.518   2.431  19.627
  129TMC2    C5 1993   2.583   2.374  19.732
  129TMC2    C6 1994   2.678   2.448  19.806
  129TMC2     C 1995   2.469   2.626  19.500
  129TMC2     O 1996   2.358   2.579  19.466
  129TMC2     H 1997   2.643   2.742  19.662
  129TMC2    H1 1998   2.454   2.366  19.568
  129TMC2    H2 1999   2.738   2.399  19.883
  129TMC2    C7 2000   2.540   2.240  19.771
  129TMC2    C8 2001   2.821   2.652  19.816
  129TMC2    O1 2002   2.437   2.203  19.719
  129TMC2    O2 2003   2.883   2.728  19.743
  129TMC2    O5 2004   2.837   2.656  19.950
  129TMC2    H5 2005   2.769   2.605  20.000
  130MPD2     C 2006   2.401   2.767  19.251
  130MPD2    C1 2007   2.506   2.800  19.330
  130MPD2    C2 2008   2.591   2.899  19.280
  130MPD2    C3 2009   2.580   2.949  19.155
  130MPD2    C4 2010   2.472   2.912  19.081
  130MPD2    C5 2011   2.379   2.824  19.132
  130MPD2     H 2012   2.685   2.916  19.332
  130MPD2    H1 2013   2.453   2.961  18.986
  130MPD2    H2 2014   2.335   2.682  19.269
  130MPD2    H3 2015   2.301   2.783  19.069
  130MPD2     N 2016   2.680   3.039  19.113
  130MPD2    H5 2017   2.748   3.060  19.185
  130MPD2    N1 2018   2.541   2.730  19.449
  130MPD2    H7 2019   2.627   2.753  19.499
  131TMC2    C1 2020   2.097   1.422  10.166
  131TMC2    C2 2021   2.087   1.512  10.271
  131TMC2    C3 2022   2.084   1.645  10.251
  131TMC2    C4 2023   2.142   1.474  10.048
  131TMC2    C5 2024   2.158   1.606  10.031
  131TMC2    C6 2025   2.131   1.699  10.131
  131TMC2     C 2026   2.036   1.291  10.181
  131TMC2     O 2027   2.054   1.235  10.287
  131TMC2     H 2028   2.054   1.476  10.368
  131TMC2    H1 2029   2.166   1.408   9.965
  131TMC2    H2 2030   2.128   1.805  10.110
  131TMC2    C7 2031   2.207   1.649   9.903
  131TMC2    C8 2032   2.075   1.740  10.360
  131TMC2    O1 2033   2.172   1.589   9.805
  131TMC2    O2 2034   2.137   1.842  10.349
  131TMC2    O5 2035   2.038   1.681  10.476
  131TMC2    H5 2036   1.974   1.609  10.458
  132MPD2     C 2037   1.776   1.138   9.961
  132MPD2    C1 2038   1.869   1.139  10.064
  132MPD2    C2 2039   1.861   1.047  10.166
  132MPD2    C3 2040   1.762   0.946  10.161
  132MPD2    C4 2041   1.662   0.956  10.065
  132MPD2    C5 2042   1.682   1.044   9.960
  132MPD2     H 2043   1.935   1.042  10.246
  132MPD2    H1 2044   1.582   0.883  10.052
  132MPD2    H2 2045   1.787   1.205   9.877
  132MPD2    H3 2046   1.607   1.038   9.882
  132MPD2     N 2047   1.759   0.843  10.257
  132MPD2    H5 2048   1.843   0.828  10.312
  132MPD2    N1 2049   1.956   1.254  10.073
  132MPD2    H7 2050   1.965   1.328  10.004
  133MPD2     C 2051   1.279   2.882   9.600
  133MPD2    C1 2052   1.391   2.807   9.635
  133MPD2    C2 2053   1.397   2.669   9.616
  133MPD2    C3 2054   1.280   2.604   9.574
  133MPD2    C4 2055   1.167   2.683   9.545
  133MPD2    C5 2056   1.162   2.817   9.550
  133MPD2     H 2057   1.482   2.610   9.648
  133MPD2    H1 2058   1.079   2.625   9.521
  133MPD2    H2 2059   1.275   2.988   9.622
  133MPD2    H3 2060   1.072   2.870   9.521
  133MPD2     N 2061   1.257   2.464   9.563
  133MPD2    H5 2062   1.161   2.442   9.542
  133MPD2    N1 2063   1.492   2.889   9.692
  133MPD2    H7 2064   1.470   2.988   9.697
  134TCq2    C1 2065   1.630   2.860   9.698
  134TCq2    O2 2066   1.691   2.751   9.685
  134TCq2    C2 2067   1.707   2.989   9.723
  134TCq2    C3 2068   1.840   2.985   9.691
  134TCq2    C4 2069   1.919   3.086   9.734
  134TCq2    C5 2070   1.870   3.195   9.798
  134TCq2    C6 2071   1.743   3.187   9.848
  134TCq2    C7 2072   1.655   3.091   9.802
  134TCq2    C8 2073   1.704   3.308   9.917
  134TCq2    O4 2074   1.779   3.405   9.915
  134TCq2    C9 2075   2.055   3.095   9.683
  134TCq2    O5 2076   2.125   3.189   9.726
  134TCq2    O6 2077   2.094   2.990   9.628
  134TCq2    H2 2078   1.885   2.903   9.636
  134TCq2    H3 2079   1.930   3.283   9.817
  134TCq2    H4 2080   1.549   3.094   9.823
  135TMC2    C1 2081   3.803   3.704  10.220
  135TMC2    C2 2082   3.764   3.741  10.345
  135TMC2    C3 2083   3.716   3.650  10.424
  135TMC2    C4 2084   3.796   3.571  10.180
  135TMC2    C5 2085   3.726   3.486  10.261
  135TMC2    C6 2086   3.688   3.521  10.390
  135TMC2     C 2087   3.885   3.804  10.151
  135TMC2     O 2088   3.872   3.921  10.192
  135TMC2     H 2089   3.766   3.837  10.395
  135TMC2    H1 2090   3.822   3.547  10.077
  135TMC2    H2 2091   3.621   3.460  10.450
  135TMC2    C7 2092   3.653   3.389  10.189
  135TMC2    C8 2093   3.672   3.699  10.556
  135TMC2    O1 2094   3.646   3.397  10.065
  135TMC2    O2 2095   3.618   3.808  10.571
  135TMC2    O5 2096   3.669   3.594  10.642
  135TMC2    H5 2097   3.736   3.523  10.629
  136MPD2     C 2098   4.111   3.930  10.013
  136MPD2    C1 2099   4.049   3.818   9.965
  136MPD2    C2 2100   4.071   3.778   9.835
  136MPD2    C3 2101   4.171   3.821   9.758
  136MPD2    C4 2102   4.253   3.920   9.814
  136MPD2    C5 2103   4.213   3.976   9.934
  136MPD2     H 2104   4.016   3.691   9.801
  136MPD2    H1 2105   4.326   3.977   9.758
  136MPD2    H2 2106   4.109   3.959  10.117
  136MPD2    H3 2107   4.265   4.060   9.979
  136MPD2     N 2108   4.205   3.784   9.629
  136MPD2    H5 2109   4.281   3.839   9.591
  136MPD2    N1 2110   3.943   3.752  10.039
  136MPD2    H7 2111   3.939   3.651  10.034
  137TMC2    C1 2112   3.659   2.697   9.584
  137TMC2    C2 2113   3.765   2.779   9.574
  137TMC2    C3 2114   3.734   2.905   9.522
  137TMC2    C4 2115   3.529   2.720   9.543
  137TMC2    C5 2116   3.506   2.851   9.502
  137TMC2    C6 2117   3.608   2.944   9.491
  137TMC2     C 2118   3.681   2.581   9.666
  137TMC2     O 2119   3.752   2.583   9.763
  137TMC2     H 2120   3.865   2.760   9.612
  137TMC2    H1 2121   3.457   2.640   9.542
  137TMC2    H2 2122   3.601   3.041   9.443
  137TMC2    C7 2123   3.372   2.899   9.474
  137TMC2    C8 2124   3.844   2.991   9.500
  137TMC2    O1 2125   3.354   3.013   9.432
  137TMC2    O2 2126   3.957   2.948   9.516
  137TMC2    O5 2127   3.808   3.123   9.521
  137TMC2    H5 2128   3.716   3.137   9.551
  138MPD2     C 2129   3.575   2.247   9.588
  138MPD2    C1 2130   3.621   2.343   9.666
  138MPD2    C2 2131   3.649   2.317   9.800
  138MPD2    C3 2132   3.615   2.192   9.858
  138MPD2    C4 2133   3.570   2.090   9.774
  138MPD2    C5 2134   3.552   2.125   9.646
  138MPD2     H 2135   3.687   2.391   9.869
  138MPD2    H1 2136   3.553   1.985   9.795
  138MPD2    H2 2137   3.565   2.260   9.481
  138MPD2    H3 2138   3.522   2.039   9.587
  138MPD2     N 2139   3.607   2.176   9.996
  138MPD2    H5 2140   3.636   2.251  10.058
  138MPD2    N1 2141   3.624   2.471   9.611
  138MPD2    H7 2142   3.589   2.473   9.515
  139TMC2    C1 2143   4.122   0.565  13.791
  139TMC2    C2 2144   4.198   0.641  13.703
  139TMC2    C3 2145   4.161   0.774  13.685
  139TMC2    C4 2146   4.021   0.618  13.869
  139TMC2    C5 2147   3.993   0.750  13.850
  139TMC2    C6 2148   4.062   0.829  13.758
  139TMC2     C 2149   4.183   0.436  13.820
  139TMC2     O 2150   4.300   0.430  13.796
  139TMC2     H 2151   4.280   0.594  13.649
  139TMC2    H1 2152   3.973   0.557  13.946
  139TMC2    H2 2153   4.040   0.936  13.755
  139TMC2    C7 2154   3.903   0.828  13.935
  139TMC2    C8 2155   4.248   0.845  13.604
  139TMC2    O1 2156   3.870   0.941  13.904
  139TMC2    O2 2157   4.331   0.781  13.541
  139TMC2    O5 2158   4.173   0.949  13.555
  139TMC2    H5 2159   4.218   0.998  13.482
  140MPD2     C 2160   4.020   0.116  13.904
  140MPD2    C1 2161   4.120   0.206  13.867
  140MPD2    C2 2162   4.249   0.155  13.865
  140MPD2    C3 2163   4.278   0.021  13.893
  140MPD2    C4 2164   4.174   4.720  13.927
  140MPD2    C5 2165   4.045   4.773  13.929
  140MPD2     H 2166   4.331   0.218  13.831
  140MPD2    H1 2167   4.188   4.614  13.949
  140MPD2    H2 2168   3.919   0.155  13.908
  140MPD2    H3 2169   3.968   4.700  13.951
  140MPD2     N 2170   4.414   4.760  13.885
  140MPD2    H5 2171   4.475   0.039  13.831
  140MPD2    N1 2172   4.089   0.338  13.839
  140MPD2    H7 2173   3.988   0.347  13.833
  141TMC2    C1 2174   4.440   1.602  14.717
  141TMC2    C2 2175   4.506   1.482  14.737
  141TMC2    C3 2176   4.512   1.439  14.865
  141TMC2    C4 2177   4.387   1.674  14.821
  141TMC2    C5 2178   4.409   1.630  14.948
  141TMC2    C6 2179   4.466   1.514  14.971
  141TMC2     C 2180   4.427   1.668  14.589
  141TMC2     O 2181   4.383   1.781  14.589
  141TMC2     H 2182   4.574   1.441  14.662
  141TMC2    H1 2183   4.324   1.762  14.811
  141TMC2    H2 2184   4.487   1.472  15.068
  141TMC2    C7 2185   4.414   1.722  15.056
  141TMC2    C8 2186   4.595   1.333  14.890
  141TMC2    O1 2187   4.397   1.683  15.168
  141TMC2    O2 2188   4.648   1.322  14.997
  141TMC2    O5 2189   4.566   1.240  14.803
  141TMC2    H5 2190   4.490   1.268  14.747
  142TMC2    C1 2191   2.434   0.609  10.629
  142TMC2    C2 2192   2.561   0.608  10.681
  142TMC2    C3 2193   2.658   0.676  10.612
  142TMC2    C4 2194   2.401   0.664  10.503
  142TMC2    C5 2195   2.503   0.733  10.436
  142TMC2    C6 2196   2.625   0.741  10.497
  142TMC2     C 2197   2.338   0.519  10.689
  142TMC2     O 2198   2.240   0.489  10.623
  142TMC2     H 2199   2.588   0.551  10.769
  142TMC2    H1 2200   2.300   0.665  10.463
  142TMC2    H2 2201   2.702   0.800  10.449
  142TMC2    C7 2202   2.480   0.801  10.314
  142TMC2    C8 2203   2.796   0.674  10.653
  142TMC2    O1 2204   2.553   0.899  10.288
  142TMC2    O2 2205   2.890   0.675  10.568
  142TMC2    O5 2206   2.810   0.656  10.788
  142TMC2    H5 2207   2.725   0.679  10.831
  143MPD2     C 2208   2.205   0.257  11.108
  143MPD2    C1 2209   2.172   0.231  10.980
  143MPD2    C2 2210   2.221   0.315  10.883
  143MPD2    C3 2211   2.298   0.435  10.917
  143MPD2    C4 2212   2.327   0.452  11.051
  143MPD2    C5 2213   2.274   0.369  11.140
  143MPD2     H 2214   2.186   0.309  10.780
  143MPD2    H1 2215   2.381   0.539  11.086
  143MPD2    H2 2216   2.163   0.196  11.188
  143MPD2    H3 2217   2.298   0.397  11.242
  143MPD2     N 2218   2.360   0.519  10.826
  143MPD2    H5 2219   2.414   0.589  10.876
  143MPD2    N1 2220   2.093   0.120  10.951
  143MPD2    H7 2221   2.050   0.072  11.030
  144TMC2    C1 2222   0.530   4.442  19.196
  144TMC2    C2 2223   0.573   4.318  19.233
  144TMC2    C3 2224   0.665   4.291  19.336
  144TMC2    C4 2225   0.578   4.551  19.271
  144TMC2    C5 2226   0.666   4.517  19.374
  144TMC2    C6 2227   0.706   4.394  19.414
  144TMC2     C 2228   0.471   4.453  19.062
  144TMC2     O 2229   0.443   4.349  19.006
  144TMC2     H 2230   0.541   4.241  19.164
  144TMC2    H1 2231   0.549   4.655  19.259
  144TMC2    H2 2232   0.780   4.388  19.493
  144TMC2    C7 2233   0.748   4.620  19.436
  144TMC2    C8 2234   0.717   4.158  19.359
  144TMC2    O1 2235   0.865   4.589  19.441
  144TMC2    O2 2236   0.756   4.130  19.472
  144TMC2    O5 2237   0.765   4.119  19.248
  144TMC2    H5 2238   0.753   4.165  19.163
  145MPD2     C 2239   0.354   4.732  18.645
  145MPD2    C1 2240   0.330   4.593  18.671
  145MPD2    C2 2241   0.368   4.543  18.791
  145MPD2    C3 2242   0.437   4.625  18.884
  145MPD2    C4 2243   0.467   4.752  18.859
  145MPD2    C5 2244   0.422   0.027  18.741
  145MPD2     H 2245   0.352   4.439  18.815
  145MPD2    H1 2246   0.518   0.038  18.928
  145MPD2    H2 2247   0.348   4.772  18.544
  145MPD2    H3 2248   0.438   0.133  18.723
  145MPD2     N 2249   0.474   4.585  19.016
  145MPD2    H5 2250   0.490   4.660  19.082
  145MPD2    N1 2251   0.259   4.504  18.588
  145MPD2    H7 2252   0.262   4.405  18.613
  146TMC2    C1 2253   1.293   3.171  12.623
  146TMC2    C2 2254   1.175   3.104  12.604
  146TMC2    C3 2255   1.176   2.991  12.532
  146TMC2    C4 2256   1.410   3.127  12.568
  146TMC2    C5 2257   1.406   3.007  12.501
  146TMC2    C6 2258   1.289   2.941  12.476
  146TMC2     C 2259   1.313   3.279  12.717
  146TMC2     O 2260   1.231   3.365  12.743
  146TMC2     H 2261   1.081   3.139  12.645
  146TMC2    H1 2262   1.502   3.183  12.580
  146TMC2    H2 2263   1.297   2.841  12.435
  146TMC2    C7 2264   1.533   2.944  12.474
  146TMC2    C8 2265   1.058   2.907  12.516
  146TMC2    O1 2266   1.542   2.873  12.374
  146TMC2    O2 2267   1.052   2.846  12.409
  146TMC2    O5 2268   1.007   2.870  12.639
  146TMC2    H5 2269   1.062   2.914  12.707
  147MPD2     C 2270   2.035   2.911  12.541
  147MPD2    C1 2271   1.979   2.911  12.671
  147MPD2    C2 2272   1.840   2.921  12.669
  147MPD2    C3 2273   1.766   2.914  12.553
  147MPD2    C4 2274   1.825   2.917  12.427
  147MPD2    C5 2275   1.965   2.911  12.424
  147MPD2     H 2276   1.778   2.933  12.756
  147MPD2    H1 2277   1.764   2.915  12.338
  147MPD2    H2 2278   2.142   2.914  12.525
  147MPD2    H3 2279   2.018   2.901  12.330
  147MPD2     N 2280   1.631   2.959  12.568
  147MPD2    H5 2281   1.596   2.997  12.655
  147MPD2    N1 2282   2.064   2.912  12.783
  147MPD2    H7 2283   2.157   2.878  12.760
  148MPD2     C 2284   1.459   1.784  11.164
  148MPD2    C1 2285   1.539   1.683  11.111
  148MPD2    C2 2286   1.479   1.587  11.033
  148MPD2    C3 2287   1.347   1.606  10.994
  148MPD2    C4 2288   1.272   1.714  11.034
  148MPD2    C5 2289   1.334   1.801  11.124
  148MPD2     H 2290   1.538   1.499  11.011
  148MPD2    H1 2291   1.169   1.726  11.001
  148MPD2    H2 2292   1.492   1.864  11.230
  148MPD2    H3 2293   1.287   1.894  11.154
  148MPD2     N 2294   1.287   1.525  10.889
  148MPD2    H5 2295   1.212   1.571  10.839
  148MPD2    N1 2296   1.681   1.676  11.138
  148MPD2    H7 2297   1.733   1.595  11.103
  149TCq2    C1 2298   1.752   1.770  11.205
  149TCq2    O2 2299   1.712   1.877  11.250
  149TCq2    C2 2300   1.898   1.749  11.200
  149TCq2    C3 2301   1.980   1.855  11.207
  149TCq2    C4 2302   2.103   1.843  11.153
  149TCq2    C5 2303   2.148   1.723  11.112
  149TCq2    C6 2304   2.070   1.615  11.130
  149TCq2    C7 2305   1.937   1.624  11.172
  149TCq2    C8 2306   2.073   1.519  11.023
  149TCq2    O4 2307   1.995   1.428  11.028
  149TCq2    C9 2308   2.202   1.944  11.178
  149TCq2    O5 2309   2.186   2.015  11.281
  149TCq2    O6 2310   2.292   1.951  11.089
  149TCq2    H2 2311   1.936   1.949  11.239
  149TCq2    H3 2312   2.253   1.705  11.093
  149TCq2    H4 2313   1.875   1.540  11.199
  150TMC2    C1 2314   3.537   1.210  12.510
  150TMC2    C2 2315   3.518   1.292  12.399
  150TMC2    C3 2316   3.618   1.369  12.360
  150TMC2    C4 2317   3.661   1.203  12.567
  150TMC2    C5 2318   3.766   1.275  12.518
  150TMC2    C6 2319   3.746   1.358  12.409
  150TMC2     C 2320   3.439   1.113  12.556
  150TMC2     O 2321   3.449   1.086  12.675
  150TMC2     H 2322   3.418   1.305  12.360
  150TMC2    H1 2323   3.677   1.153  12.662
  150TMC2    H2 2324   3.829   1.403  12.357
  150TMC2    C7 2325   3.891   1.302  12.590
  150TMC2    C8 2326   3.604   1.429  12.224
  150TMC2    O1 2327   3.941   1.407  12.542
  150TMC2    O2 2328   3.526   1.386  12.138
  150TMC2    O5 2329   3.702   1.524  12.197
  150TMC2    H5 2330   3.750   1.545  12.280
  151MPD2     C 2331   2.963   0.901  12.513
  151MPD2    C1 2332   3.009   0.933  12.384
  151MPD2    C2 2333   3.131   0.997  12.370
  151MPD2    C3 2334   3.215   1.026  12.486
  151MPD2    C4 2335   3.165   0.979  12.609
  151MPD2    C5 2336   3.045   0.927  12.618
  151MPD2     H 2337   3.168   1.017  12.270
  151MPD2    H1 2338   3.226   0.983  12.698
  151MPD2    H2 2339   2.865   0.854  12.522
  151MPD2    H3 2340   3.024   0.881  12.715
  151MPD2     N 2341   3.335   1.095  12.468
  151MPD2    H5 2342   3.351   1.127  12.373
  151MPD2    N1 2343   2.928   0.894  12.272
  151MPD2    H7 2344   2.837   0.853  12.289
  152TMC2    C1 2345   3.483   0.843  13.075
  152TMC2    C2 2346   3.544   0.727  13.082
  152TMC2    C3 2347   3.676   0.742  13.112
  152TMC2    C4 2348   3.533   0.970  13.071
  152TMC2    C5 2349   3.665   0.973  13.090
  152TMC2    C6 2350   3.741   0.861  13.115
  152TMC2     C 2351   3.344   0.849  13.027
  152TMC2     O 2352   3.285   0.954  13.004
  152TMC2     H 2353   3.500   0.628  13.078
  152TMC2    H1 2354   3.473   1.056  13.044
  152TMC2    H2 2355   3.849   0.856  13.108
  152TMC2    C7 2356   3.730   1.105  13.084
  152TMC2    C8 2357   3.757   0.619  13.113
  152TMC2    O1 2358   3.666   1.194  13.033
  152TMC2    O2 2359   3.876   0.611  13.082
  152TMC2    O5 2360   3.693   0.536  13.193
  152TMC2    H5 2361   3.617   0.572  13.244
  153MPD2     C 2362   3.116   0.557  12.970
  153MPD2    C1 2363   3.155   0.692  12.990
  153MPD2    C2 2364   3.052   0.785  12.983
  153MPD2    C3 2365   2.923   0.753  12.951
  153MPD2    C4 2366   2.887   0.622  12.925
  153MPD2    C5 2367   2.983   0.528  12.936
  153MPD2     H 2368   3.073   0.889  13.003
  153MPD2    H1 2369   2.783   0.597  12.906
  153MPD2    H2 2370   3.190   0.478  12.971
  153MPD2    H3 2371   2.958   0.425  12.914
  153MPD2     N 2372   2.824   0.855  12.950
  153MPD2    H5 2373   2.846   0.933  13.011
  153MPD2    N1 2374   3.288   0.719  13.021
  153MPD2    H7 2375   3.350   0.638  13.015
  154TMC2    C1 2376   0.653   0.585  18.427
  154TMC2    C2 2377   0.679   0.559  18.557
  154TMC2    C3 2378   0.783   0.474  18.581
  154TMC2    C4 2379   0.712   0.525  18.321
  154TMC2    C5 2380   0.809   0.430  18.347
  154TMC2    C6 2381   0.847   0.406  18.477
  154TMC2     C 2382   0.536   0.671  18.398
  154TMC2     O 2383   0.456   0.692  18.484
  154TMC2     H 2384   0.624   0.605  18.638
  154TMC2    H1 2385   0.671   0.522  18.221
  154TMC2    H2 2386   0.929   0.339  18.499
  154TMC2    C7 2387   0.897   0.382  18.239
  154TMC2    C8 2388   0.817   0.453  18.715
  154TMC2    O1 2389   0.946   0.270  18.255
  154TMC2    O2 2390   0.779   0.527  18.800
  154TMC2    O5 2391   0.821   0.318  18.736
  154TMC2    H5 2392   0.831   0.262  18.655
  155MPD2     C 2393   0.435   0.787  18.065
  155MPD2    C1 2394   0.422   0.766  18.201
  155MPD2    C2 2395   0.304   0.801  18.260
  155MPD2    C3 2396   0.205   0.865  18.196
  155MPD2    C4 2397   0.211   0.879  18.060
  155MPD2    C5 2398   0.329   0.842  17.995
  155MPD2     H 2399   0.289   0.777  18.365
  155MPD2    H1 2400   0.126   0.915  18.003
  155MPD2    H2 2401   0.521   0.756  18.006
  155MPD2    H3 2402   0.349   0.852  17.889
  155MPD2     N 2403   0.083   0.883  18.267
  155MPD2    H5 2404   0.080   0.850  18.363
  155MPD2    N1 2405   0.532   0.708  18.271
  155MPD2    H7 2406   0.617   0.702  18.216
  156TMC2    C1 2407   3.634   3.544  12.013
  156TMC2    C2 2408   3.676   3.442  11.932
  156TMC2    C3 2409   3.663   3.458  11.797
  156TMC2    C4 2410   3.570   3.653  11.968
  156TMC2    C5 2411   3.551   3.657  11.829
  156TMC2    C6 2412   3.600   3.562  11.744
  156TMC2     C 2413   3.655   3.525  12.158
  156TMC2     O 2414   3.571   3.572  12.233
  156TMC2     H 2415   3.698   3.347  11.981
  156TMC2    H1 2416   3.532   3.730  12.034
  156TMC2    H2 2417   3.570   3.568  11.640
  156TMC2    C7 2418   3.514   3.782  11.770
  156TMC2    C8 2419   3.662   3.333  11.715
  156TMC2    O1 2420   3.552   3.799  11.655
  156TMC2    O2 2421   3.597   3.317  11.611
  156TMC2    O5 2422   3.770   3.260  11.756
  156TMC2    H5 2423   3.823   3.299  11.829
  157MPD2     C 2424   3.931   3.362  12.337
  157MPD2    C1 2425   3.822   3.452  12.313
  157MPD2    C2 2426   3.790   3.531  12.423
  157MPD2    C3 2427   3.850   3.522  12.550
  157MPD2    C4 2428   3.956   3.437  12.566
  157MPD2    C5 2429   3.992   3.352  12.465
  157MPD2     H 2430   3.712   3.606  12.418
  157MPD2    H1 2431   4.005   3.436  12.663
  157MPD2    H2 2432   3.955   3.284  12.266
  157MPD2    H3 2433   4.085   3.299  12.480
  157MPD2     N 2434   3.819   3.626  12.645
  157MPD2    H5 2435   3.750   3.698  12.626
  157MPD2    N1 2436   3.769   3.456  12.187
  157MPD2    H7 2437   3.821   3.404  12.116
  158TMC2    C1 2438   4.132   2.035  13.781
  158TMC2    C2 2439   4.172   2.152  13.724
  158TMC2    C3 2440   4.076   2.240  13.678
  158TMC2    C4 2441   4.000   2.006  13.793
  158TMC2    C5 2442   3.911   2.098  13.762
  158TMC2    C6 2443   3.944   2.217  13.703
  158TMC2     C 2444   4.234   1.933  13.797
  158TMC2     O 2445   4.324   1.930  13.720
  158TMC2     H 2446   4.273   2.185  13.703
  158TMC2    H1 2447   3.968   1.905  13.815
  158TMC2    H2 2448   3.867   2.290  13.685
  158TMC2    C7 2449   3.770   2.091  13.809
  158TMC2    C8 2450   4.132   2.371  13.638
  158TMC2    O1 2451   3.694   2.175  13.765
  158TMC2    O2 2452   4.231   2.413  13.699
  158TMC2    O5 2453   4.035   2.430  13.573
  158TMC2    H5 2454   3.961   2.373  13.546
  159MPD2     C 2455   4.020   1.877  14.273
  159MPD2    C1 2456   4.083   1.763  14.232
  159MPD2    C2 2457   4.155   1.760  14.109
  159MPD2    C3 2458   4.153   1.872  14.028
  159MPD2    C4 2459   4.100   1.988  14.080
  159MPD2    C5 2460   4.042   1.995  14.205
  159MPD2     H 2461   4.205   1.674  14.066
  159MPD2    H1 2462   4.109   2.083  14.028
  159MPD2    H2 2463   3.961   1.881  14.364
  159MPD2    H3 2464   3.989   2.083  14.240
  159MPD2     N 2465   4.226   1.854  13.905
  159MPD2    H5 2466   4.291   1.778  13.886
  159MPD2    N1 2467   4.090   1.658  14.320
  159MPD2    H7 2468   4.033   1.671  14.403
  160TMC2    C1 2469   4.115   0.254  19.491
  160TMC2    C2 2470   4.194   0.153  19.539
  160TMC2    C3 2471   4.275   0.092  19.457
  160TMC2    C4 2472   4.118   0.286  19.358
  160TMC2    C5 2473   4.203   0.216  19.274
  160TMC2    C6 2474   4.283   0.113  19.322
  160TMC2     C 2475   4.014   0.305  19.585
  160TMC2     O 2476   4.021   0.247  19.693
  160TMC2     H 2477   4.202   0.121  19.642
  160TMC2    H1 2478   4.047   0.358  19.319
  160TMC2    H2 2479   4.359   0.073  19.256
  160TMC2    C7 2480   4.274   0.296  19.175
  160TMC2    C8 2481   4.370   4.778  19.508
  160TMC2    O1 2482   4.324   0.235  19.082
  160TMC2    O2 2483   4.339   4.688  19.586
  160TMC2    O5 2484   4.490   0.060  19.506
  160TMC2    H5 2485   4.491   0.143  19.455
  161MPD2     C 2486   3.774   0.393  19.707
  161MPD2    C1 2487   3.810   0.441  19.588
  161MPD2    C2 2488   3.725   0.533  19.517
  161MPD2    C3 2489   3.610   0.573  19.579
  161MPD2    C4 2490   3.580   0.533  19.702
  161MPD2    C5 2491   3.661   0.438  19.765
  161MPD2     H 2492   3.761   0.576  19.424
  161MPD2    H1 2493   3.496   0.575  19.756
  161MPD2    H2 2494   3.827   0.319  19.768
  161MPD2    H3 2495   3.642   0.418  19.870
  161MPD2     N 2496   3.518   0.665  19.521
  161MPD2    H5 2497   3.431   0.682  19.570
  161MPD2    N1 2498   3.930   0.398  19.530
  161MPD2    H7 2499   3.969   0.453  19.454
  162TMC2    C1 2500   1.694   2.096  19.029
  162TMC2    C2 2501   1.730   2.186  18.933
  162TMC2    C3 2502   1.838   2.153  18.856
  162TMC2    C4 2503   1.766   1.983  19.058
  162TMC2    C5 2504   1.873   1.956  18.979
  162TMC2    C6 2505   1.914   2.039  18.878
  162TMC2     C 2506   1.564   2.111  19.100
  162TMC2     O 2507   1.575   2.102  19.223
  162TMC2     H 2508   1.674   2.279  18.928
  162TMC2    H1 2509   1.731   1.904  19.123
  162TMC2    H2 2510   1.987   2.011  18.803
  162TMC2    C7 2511   1.910   1.816  18.977
  162TMC2    C8 2512   1.848   2.221  18.732
  162TMC2    O1 2513   1.912   1.752  18.877
  162TMC2    O2 2514   1.816   2.337  18.713
  162TMC2    O5 2515   1.870   2.129  18.630
  162TMC2    H5 2516   1.883   2.034  18.649
  163MPD2     C 2517   1.357   2.216  18.644
  163MPD2    C1 2518   1.445   2.113  18.670
  163MPD2    C2 2519   1.467   2.092  18.803
  163MPD2    C3 2520   1.428   2.180  18.901
  163MPD2    C4 2521   1.342   2.279  18.872
  163MPD2    C5 2522   1.297   2.290  18.739
  163MPD2     H 2523   1.521   2.003  18.835
  163MPD2    H1 2524   1.296   2.336  18.952
  163MPD2    H2 2525   1.330   2.246  18.543
  163MPD2    H3 2526   1.226   2.368  18.717
  163MPD2     N 2527   1.452   2.167  19.037
  163MPD2    H5 2528   1.381   2.199  19.102
  163MPD2    N1 2529   1.502   2.038  18.568
  163MPD2    H7 2530   1.473   2.069  18.476
  164TMC2    C1 2531   2.218   1.622  11.479
  164TMC2    C2 2532   2.301   1.729  11.511
  164TMC2    C3 2533   2.249   1.844  11.557
  164TMC2    C4 2534   2.087   1.634  11.505
  164TMC2    C5 2535   2.040   1.755  11.548
  164TMC2    C6 2536   2.121   1.857  11.589
  164TMC2     C 2537   2.271   1.497  11.419
  164TMC2     O 2538   2.204   1.395  11.446
  164TMC2     H 2539   2.408   1.728  11.495
  164TMC2    H1 2540   2.025   1.548  11.480
  164TMC2    H2 2541   2.080   1.946  11.634
  164TMC2    C7 2542   1.903   1.764  11.586
  164TMC2    C8 2543   2.332   1.955  11.587
  164TMC2    O1 2544   1.817   1.712  11.514
  164TMC2    O2 2545   2.444   1.949  11.647
  164TMC2    O5 2546   2.288   2.054  11.507
  164TMC2    H5 2547   2.236   2.022  11.430
  165TMC2    C1 2548   3.129   4.017  19.184
  165TMC2    C2 2549   3.145   3.884  19.165
  165TMC2    C3 2550   3.264   3.836  19.204
  165TMC2    C4 2551   3.215   4.099  19.248
  165TMC2    C5 2552   3.328   4.045  19.304
  165TMC2    C6 2553   3.350   3.912  19.278
  165TMC2     C 2554   3.006   4.076  19.126
  165TMC2     O 2555   2.974   4.180  19.185
  165TMC2     H 2556   3.068   3.814  19.132
  165TMC2    H1 2557   3.185   4.203  19.259
  165TMC2    H2 2558   3.451   3.881  19.301
  165TMC2    C7 2559   3.440   4.126  19.345
  165TMC2    C8 2560   3.308   3.706  19.167
  165TMC2    O1 2561   3.543   4.068  19.379
  165TMC2    O2 2562   3.377   3.636  19.240
  165TMC2    O5 2563   3.264   3.666  19.047
  165TMC2    H5 2564   3.209   3.731  18.998
  166MPD2     C 2565   2.618   4.113  18.799
  166MPD2    C1 2566   2.621   4.146  18.935
  166MPD2    C2 2567   2.733   4.117  19.013
  166MPD2    C3 2568   2.838   4.049  18.953
  166MPD2    C4 2569   2.827   4.010  18.818
  166MPD2    C5 2570   2.724   4.043  18.747
  166MPD2     H 2571   2.758   4.160  19.109
  166MPD2    H1 2572   2.907   3.950  18.774
  166MPD2    H2 2573   2.525   4.131  18.747
  166MPD2    H3 2574   2.725   3.999  18.649
  166MPD2     N 2575   2.963   4.013  19.013
  166MPD2    H5 2576   3.006   3.931  18.971
  166MPD2    N1 2577   2.504   4.212  18.978
  166MPD2    H7 2578   2.442   4.246  18.905
  167TMC2    C1 2579   1.530   1.641  13.103
  167TMC2    C2 2580   1.461   1.640  13.219
  167TMC2    C3 2581   1.467   1.526  13.290
  167TMC2    C4 2582   1.601   1.533  13.057
  167TMC2    C5 2583   1.594   1.413  13.127
  167TMC2    C6 2584   1.524   1.413  13.242
  167TMC2     C 2585   1.517   1.768  13.030
  167TMC2     O 2586   1.434   1.844  13.075
  167TMC2     H 2587   1.383   1.713  13.239
  167TMC2    H1 2588   1.661   1.534  12.966
  167TMC2    H2 2589   1.520   1.319  13.297
  167TMC2    C7 2590   1.675   1.294  13.095
  167TMC2    C8 2591   1.412   1.530  13.421
  167TMC2    O1 2592   1.672   1.205  13.177
  167TMC2    O2 2593   1.387   1.434  13.490
  167TMC2    O5 2594   1.419   1.658  13.473
  167TMC2    H5 2595   1.465   1.718  13.409
  168MPD2     C 2596   1.564   2.007  12.865
  168MPD2    C1 2597   1.625   1.884  12.846
  168MPD2    C2 2598   1.702   1.870  12.734
  168MPD2    C3 2599   1.706   1.965  12.634
  168MPD2    C4 2600   1.639   2.081  12.652
  168MPD2    C5 2601   1.566   2.102  12.763
  168MPD2     H 2602   1.747   1.773  12.721
  168MPD2    H1 2603   1.640   2.156  12.574
  168MPD2    H2 2604   1.507   2.046  12.949
  168MPD2    H3 2605   1.506   2.191  12.778
  168MPD2     N 2606   1.756   1.935  12.506
  168MPD2    H5 2607   1.739   1.999  12.428
  168MPD2    N1 2608   1.607   1.774  12.934
  168MPD2    H7 2609   1.666   1.694  12.913
  169MPD1     C 2610   4.075   1.831   8.907
  169MPD1    C1 2611   4.172   1.739   8.941
  169MPD1    C2 2612   4.155   1.641   9.036
  169MPD1    C3 2613   4.037   1.638   9.110
  169MPD1    C4 2614   3.941   1.736   9.083
  169MPD1    C5 2615   3.963   1.832   8.988
  169MPD1     H 2616   4.234   1.572   9.064
  169MPD1    H1 2617   3.855   1.752   9.147
  169MPD1    H2 2618   4.089   1.896   8.821
  169MPD1    H3 2619   3.892   1.913   8.979
  169MPD1     N 2620   4.026   1.551   9.217
  169MPD1    H5 2621   4.107   1.504   9.256
  169MPD1    N1 2622   4.288   1.740   8.866
  169MPD1    H6 2623   4.364   1.688   8.909
  169MPD1    H7 2624   4.323   1.836   8.864
  170MPD1     C 2625   2.809   3.996  13.172
  170MPD1    C1 2626   2.735   4.108  13.169
  170MPD1    C2 2627   2.662   4.139  13.282
  170MPD1    C3 2628   2.677   4.066  13.400
  170MPD1    C4 2629   2.767   3.964  13.401
  170MPD1    C5 2630   2.831   3.927  13.288
  170MPD1     H 2631   2.590   4.219  13.286
  170MPD1    H1 2632   2.778   3.903  13.490
  170MPD1    H2 2633   2.858   3.960  13.082
  170MPD1    H3 2634   2.898   3.842  13.297
  170MPD1     N 2635   2.620   4.129  13.510
  170MPD1    H5 2636   2.555   4.207  13.505
  170MPD1    N1 2637   2.699   4.162  13.043
  170MPD1    H6 2638   2.787   4.157  12.993
  170MPD1    H7 2639   2.672   4.260  13.051
  171MPD1     C 2640   1.220   0.380  15.716
  171MPD1    C1 2641   1.231   0.265  15.640
  171MPD1    C2 2642   1.270   0.158  15.720
  171MPD1    C3 2643   1.323   0.170  15.848
  171MPD1    C4 2644   1.328   0.293  15.910
  171MPD1    C5 2645   1.273   0.397  15.835
  171MPD1     H 2646   1.264   0.060  15.673
  171MPD1    H1 2647   1.378   0.313  16.004
  171MPD1    H2 2648   1.186   0.470  15.665
  171MPD1    H3 2649   1.259   0.491  15.887
  171MPD1     N 2650   1.368   0.063  15.938
  171MPD1    H5 2651   1.409   0.093  16.026
  171MPD1    N1 2652   1.157   0.247  15.522
  171MPD1    H6 2653   1.169   0.328  15.463
  171MPD1    H7 2654   1.188   0.162  15.475
  172MPD1     C 2655   0.425   4.024  17.637
  172MPD1    C1 2656   0.430   4.163  17.626
  172MPD1    C2 2657   0.467   4.239  17.737
  172MPD1    C3 2658   0.487   4.179  17.857
  172MPD1    C4 2659   0.479   4.039  17.867
  172MPD1    C5 2660   0.455   3.963  17.755
  172MPD1     H 2661   0.472   4.348  17.733
  172MPD1    H1 2662   0.504   3.981  17.955
  172MPD1    H2 2663   0.411   3.953  17.556
  172MPD1    H3 2664   0.461   3.856  17.768
  172MPD1     N 2665   0.515   4.246  17.982
  172MPD1    H5 2666   0.515   4.185  18.063
  172MPD1    N1 2667   0.389   4.232  17.514
  172MPD1    H6 2668   0.427   4.326  17.503
  172MPD1    H7 2669   0.420   4.182  17.432
  173MPD1     C 2670   1.617   4.716  14.401
  173MPD1    C1 2671   1.714   4.626  14.425
  173MPD1    C2 2672   1.669   4.499  14.478
  173MPD1    C3 2673   1.537   4.464  14.483
  173MPD1    C4 2674   1.440   4.556  14.445
  173MPD1    C5 2675   1.485   4.683  14.405
  173MPD1     H 2676   1.746   4.428  14.508
  173MPD1    H1 2677   1.332   4.541  14.443
  173MPD1    H2 2678   1.637   0.030  14.353
  173MPD1    H3 2679   1.410   4.755  14.376
  173MPD1     N 2680   1.499   4.337  14.521
  173MPD1    H5 2681   1.568   4.272  14.557
  173MPD1    N1 2682   1.848   4.664  14.432
  173MPD1    H6 2683   1.865   4.737  14.362
  173MPD1    H7 2684   1.921   4.595  14.417
  174MPD1     C 2685   1.948   3.740  14.832
  174MPD1    C1 2686   1.818   3.689  14.834
  174MPD1    C2 2687   1.740   3.728  14.734
  174MPD1    C3 2688   1.763   3.838  14.657
  174MPD1    C4 2689   1.882   3.904  14.672
  174MPD1    C5 2690   1.973   3.846  14.753
  174MPD1     H 2691   1.647   3.674  14.720
  174MPD1    H1 2692   1.903   3.992  14.612
  174MPD1    H2 2693   2.022   3.703  14.903
  174MPD1    H3 2694   2.074   3.886  14.758
  174MPD1     N 2695   1.669   3.893  14.571
  174MPD1    H5 2696   1.686   3.992  14.556
  174MPD1    N1 2697   1.801   3.567  14.900
  174MPD1    H6 2698   1.843   3.581  14.992
  174MPD1    H7 2699   1.704   3.542  14.922
  175MPD1     C 2700   0.217   0.021  15.717
  175MPD1    C1 2701   0.093   0.068  15.746
  175MPD1    C2 2702   0.066   0.124  15.867
  175MPD1    C3 2703   0.168   0.150  15.956
  175MPD1    C4 2704   0.300   0.108  15.925
  175MPD1    C5 2705   0.318   0.046  15.804
  175MPD1     H 2706   4.744   0.154  15.881
  175MPD1    H1 2707   0.386   0.124  15.988
  175MPD1    H2 2708   0.237   4.749  15.624
  175MPD1    H3 2709   0.416   0.004  15.781
  175MPD1     N 2710   0.151   0.205  16.080
  175MPD1    H5 2711   0.237   0.207  16.133
  175MPD1    N1 2712   4.772   0.029  15.655
  175MPD1    H6 2713   4.692   0.092  15.649
  175MPD1    H7 2714   0.030   0.001  15.565
  176MPD1     C 2715   1.351   2.118  17.004
  176MPD1    C1 2716   1.467   2.185  16.997
  176MPD1    C2 2717   1.478   2.287  17.091
  176MPD1    C3 2718   1.371   2.343  17.149
  176MPD1    C4 2719   1.246   2.292  17.129
  176MPD1    C5 2720   1.242   2.180  17.050
  176MPD1     H 2721   1.572   2.324  17.132
  176MPD1    H1 2722   1.160   2.332  17.182
  176MPD1    H2 2723   1.329   2.026  16.951
  176MPD1    H3 2724   1.150   2.129  17.024
  176MPD1     N 2725   1.398   2.449  17.240
  176MPD1    H5 2726   1.495   2.466  17.266
  176MPD1    N1 2727   1.579   2.110  16.960
  176MPD1    H6 2728   1.663   2.164  16.940
  176MPD1    H7 2729   1.548   2.045  16.888
  177MPD1     C 2730   0.347   2.425  10.482
  177MPD1    C1 2731   0.255   2.342  10.424
  177MPD1    C2 2732   0.190   2.376  10.304
  177MPD1    C3 2733   0.217   2.501  10.242
  177MPD1    C4 2734   0.320   2.572  10.300
  177MPD1    C5 2735   0.385   2.535  10.416
  177MPD1     H 2736   0.120   2.307  10.260
  177MPD1    H1 2737   0.351   2.671  10.266
  177MPD1    H2 2738   0.398   2.397  10.574
  177MPD1    H3 2739   0.462   2.600  10.455
  177MPD1     N 2740   0.146   2.525  10.124
  177MPD1    H5 2741   0.077   2.459  10.088
  177MPD1    N1 2742   0.248   2.210  10.476
  177MPD1    H6 2743   0.156   2.173  10.454
  177MPD1    H7 2744   0.258   2.212  10.577
  178MPD1     C 2745   2.457   3.463  17.922
  178MPD1    C1 2746   2.430   3.332  17.953
  178MPD1    C2 2747   2.506   3.233  17.886
  178MPD1    C3 2748   2.604   3.266  17.794
  178MPD1    C4 2749   2.640   3.402  17.776
  178MPD1    C5 2750   2.565   3.498  17.835
  178MPD1     H 2751   2.476   3.131  17.907
  178MPD1    H1 2752   2.715   3.440  17.708
  178MPD1    H2 2753   2.401   3.535  17.981
  178MPD1    H3 2754   2.593   3.601  17.818
  178MPD1     N 2755   2.673   3.178  17.715
  178MPD1    H5 2756   2.742   3.223  17.656
  178MPD1    N1 2757   2.318   3.300  18.036
  178MPD1    H6 2758   2.299   3.363  18.113
  178MPD1    H7 2759   2.337   3.212  18.083
  179MPD1     C 2760   2.225   1.575  16.206
  179MPD1    C1 2761   2.104   1.514  16.201
  179MPD1    C2 2762   2.104   1.375  16.178
  179MPD1    C3 2763   2.228   1.313  16.154
  179MPD1    C4 2764   2.349   1.382  16.149
  179MPD1    C5 2765   2.345   1.514  16.182
  179MPD1     H 2766   2.009   1.323  16.189
  179MPD1    H1 2767   2.444   1.333  16.131
  179MPD1    H2 2768   2.233   1.679  16.236
  179MPD1    H3 2769   2.432   1.578  16.172
  179MPD1     N 2770   2.234   1.171  16.134
  179MPD1    H5 2771   2.328   1.146  16.104
  179MPD1    N1 2772   1.986   1.574  16.259
  179MPD1    H6 2773   1.908   1.544  16.201
  179MPD1    H7 2774   1.988   1.675  16.248
  180MPD1     C 2775   2.013   2.497  14.910
  180MPD1    C1 2776   2.071   2.553  14.793
  180MPD1    C2 2777   1.987   2.586  14.697
  180MPD1    C3 2778   1.850   2.619  14.719
  180MPD1    C4 2779   1.798   2.576  14.838
  180MPD1    C5 2780   1.877   2.514  14.929
  180MPD1     H 2781   2.033   2.590  14.599
  180MPD1    H1 2782   1.695   2.587  14.870
  180MPD1    H2 2783   2.077   2.446  14.981
  180MPD1    H3 2784   1.830   2.489  15.024
  180MPD1     N 2785   1.768   2.644  14.600
  180MPD1    H5 2786   1.814   2.660  14.511
  180MPD1    N1 2787   2.213   2.526  14.763
  180MPD1    H6 2788   2.257   2.572  14.683
  180MPD1    H7 2789   2.275   2.517  14.843
  181MPD1     C 2790   3.984   4.657   9.549
  181MPD1    C1 2791   3.952   4.756   9.632
  181MPD1    C2 2792   3.979   4.740   9.766
  181MPD1    C3 2793   4.017   4.612   9.820
  181MPD1    C4 2794   4.036   4.514   9.732
  181MPD1    C5 2795   4.033   4.537   9.598
  181MPD1     H 2796   3.972   0.041   9.836
  181MPD1    H1 2797   4.043   4.411   9.764
  181MPD1    H2 2798   3.984   4.672   9.441
  181MPD1    H3 2799   4.055   4.452   9.534
  181MPD1     N 2800   4.041   4.580   9.957
  181MPD1    H5 2801   4.047   4.480   9.970
  181MPD1    N1 2802   3.913   0.096   9.581
  181MPD1    H6 2803   3.862   0.143   9.656
  181MPD1    H7 2804   3.854   0.080   9.500
  182MPD1     C 2805   4.343   3.557  19.335
  182MPD1    C1 2806   4.257   3.466  19.287
  182MPD1    C2 2807   4.247   3.440  19.154
  182MPD1    C3 2808   4.319   3.506  19.059
  182MPD1    C4 2809   4.406   3.607  19.110
  182MPD1    C5 2810   4.408   3.635  19.246
  182MPD1     H 2811   4.187   3.355  19.122
  182MPD1    H1 2812   4.470   3.660  19.041
  182MPD1    H2 2813   4.349   3.580  19.441
  182MPD1    H3 2814   4.475   3.709  19.287
  182MPD1     N 2815   4.310   3.491  18.924
  182MPD1    H5 2816   4.381   3.544  18.874
  182MPD1    N1 2817   4.198   3.374  19.374
  182MPD1    H6 2818   4.185   3.429  19.459
  182MPD1    H7 2819   4.103   3.355  19.341
  183MPD1     C 2820   1.268   4.517   9.850
  183MPD1    C1 2821   1.248   4.431   9.948
  183MPD1    C2 2822   1.132   4.429  10.036
  183MPD1    C3 2823   1.041   4.527  10.032
  183MPD1    C4 2824   1.069   4.627   9.939
  183MPD1    C5 2825   1.171   4.615   9.843
  183MPD1     H 2826   1.116   4.347  10.105
  183MPD1    H1 2827   1.010   4.716   9.919
  183MPD1    H2 2828   1.346   4.516   9.774
  183MPD1    H3 2829   1.194   4.688   9.767
  183MPD1     N 2830   0.923   4.525  10.111
  183MPD1    H5 2831   0.913   4.455  10.184
  183MPD1    N1 2832   1.352   4.332   9.965
  183MPD1    H6 2833   1.339   4.302  10.062
  183MPD1    H7 2834   1.443   4.376   9.955
  184MPD1     C 2835   3.980   2.014  10.582
  184MPD1    C1 2836   3.934   1.965  10.462
  184MPD1    C2 2837   3.953   2.046  10.355
  184MPD1    C3 2838   4.019   2.168  10.361
  184MPD1    C4 2839   4.073   2.206  10.480
  184MPD1    C5 2840   4.053   2.131  10.592
  184MPD1     H 2841   3.918   2.015  10.257
  184MPD1    H1 2842   4.136   2.294  10.478
  184MPD1    H2 2843   3.966   1.956  10.672
  184MPD1    H3 2844   4.099   2.149  10.689
  184MPD1     N 2845   4.041   2.246  10.247
  184MPD1    H5 2846   4.083   2.334  10.273
  184MPD1    N1 2847   3.881   1.838  10.446
  184MPD1    H6 2848   3.832   1.827  10.357
  184MPD1    H7 2849   3.814   1.825  10.521
  185MPD1     C 2850   3.882   2.613   9.224
  185MPD1    C1 2851   3.844   2.493   9.271
  185MPD1    C2 2852   3.899   2.443   9.390
  185MPD1    C3 2853   3.980   2.525   9.469
  185MPD1    C4 2854   4.018   2.643   9.416
  185MPD1    C5 2855   3.963   2.682   9.301
  185MPD1     H 2856   3.871   2.343   9.422
  185MPD1    H1 2857   4.080   2.713   9.470
  185MPD1    H2 2858   3.850   2.647   9.126
  185MPD1    H3 2859   3.988   2.787   9.287
  185MPD1     N 2860   4.026   2.494   9.600
  185MPD1    H5 2861   4.094   2.554   9.644
  185MPD1    N1 2862   3.766   2.408   9.193
  185MPD1    H6 2863   3.704   2.467   9.137
  185MPD1    H7 2864   3.702   2.368   9.262
  186MPD1     C 2865   2.795   0.891  16.126
  186MPD1    C1 2866   2.717   0.900  16.239
  186MPD1    C2 2867   2.688   1.026  16.282
  186MPD1    C3 2868   2.750   1.141  16.219
  186MPD1    C4 2869   2.815   1.133  16.102
  186MPD1    C5 2870   2.835   1.006  16.062
  186MPD1     H 2871   2.636   1.037  16.376
  186MPD1    H1 2872   2.845   1.217  16.040
  186MPD1    H2 2873   2.822   0.797  16.081
  186MPD1    H3 2874   2.893   1.004  15.971
  186MPD1     N 2875   2.720   1.278  16.264
  186MPD1    H5 2876   2.757   1.357  16.212
  186MPD1    N1 2877   2.680   0.783  16.309
  186MPD1    H6 2878   2.686   0.700  16.249
  186MPD1    H7 2879   2.584   0.793  16.341
  187MPD1     C 2880   1.491   3.305  18.266
  187MPD1    C1 2881   1.464   3.204  18.173
  187MPD1    C2 2882   1.514   3.220  18.044
  187MPD1    C3 2883   1.574   3.336  18.000
  187MPD1    C4 2884   1.574   3.439  18.084
  187MPD1    C5 2885   1.535   3.426  18.222
  187MPD1     H 2886   1.510   3.140  17.971
  187MPD1    H1 2887   1.604   3.541  18.064
  187MPD1    H2 2888   1.453   3.303  18.367
  187MPD1    H3 2889   1.549   3.503  18.297
  187MPD1     N 2890   1.619   3.359  17.869
  187MPD1    H5 2891   1.618   3.458  17.847
  187MPD1    N1 2892   1.415   3.088  18.215
  187MPD1    H6 2893   1.381   3.027  18.141
  187MPD1    H7 2894   1.348   3.094  18.292
  188MPD1     C 2895   2.027   3.493  10.682
  188MPD1    C1 2896   1.980   3.526  10.558
  188MPD1    C2 2897   1.940   3.434  10.472
  188MPD1    C3 2898   1.962   3.298  10.501
  188MPD1    C4 2899   2.007   3.264  10.629
  188MPD1    C5 2900   2.039   3.362  10.718
  188MPD1     H 2901   1.912   3.462  10.371
  188MPD1    H1 2902   2.038   3.164  10.654
  188MPD1    H2 2903   2.063   3.569  10.750
  188MPD1    H3 2904   2.087   3.341  10.813
  188MPD1     N 2905   1.926   3.189  10.420
  188MPD1    H5 2906   1.964   3.097  10.442
  188MPD1    N1 2907   1.989   3.661  10.517
  188MPD1    H6 2908   1.930   3.678  10.436
  188MPD1    H7 2909   1.963   3.730  10.587
  189MPD1     C 2910   3.590   3.807  18.711
  189MPD1    C1 2911   3.643   3.938  18.707
  189MPD1    C2 2912   3.554   4.035  18.670
  189MPD1    C3 2913   3.418   4.011  18.644
  189MPD1    C4 2914   3.369   3.878  18.652
  189MPD1    C5 2915   3.451   3.785  18.700
  189MPD1     H 2916   3.581   4.140  18.672
  189MPD1    H1 2917   3.266   3.847  18.639
  189MPD1    H2 2918   3.651   3.730  18.757
  189MPD1    H3 2919   3.418   3.683  18.716
  189MPD1     N 2920   3.333   4.123  18.614
  189MPD1    H5 2921   3.379   4.209  18.586
  189MPD1    N1 2922   3.777   3.971  18.720
  189MPD1    H6 2923   3.830   3.917  18.789
  189MPD1    H7 2924   3.787   4.064  18.759
  190MPD1     C 2925   1.832   2.338  15.643
  190MPD1    C1 2926   1.856   2.347  15.778
  190MPD1    C2 2927   1.986   2.375  15.821
  190MPD1    C3 2928   2.093   2.383  15.731
  190MPD1    C4 2929   2.070   2.373  15.598
  190MPD1    C5 2930   1.940   2.345  15.559
  190MPD1     H 2931   2.009   2.394  15.925
  190MPD1    H1 2932   2.135   2.371  15.511
  190MPD1    H2 2933   1.732   2.332  15.601
  190MPD1    H3 2934   1.927   2.339  15.452
  190MPD1     N 2935   2.222   2.403  15.783
  190MPD1    H5 2936   2.228   2.421  15.883
  190MPD1    N1 2937   1.746   2.358  15.862
  190MPD1    H6 2938   1.661   2.325  15.818
  190MPD1    H7 2939   1.756   2.323  15.957
  191MPD1     C 2940   2.025   4.460  13.317
  191MPD1    C1 2941   1.900   4.402  13.340
  191MPD1    C2 2942   1.824   4.378  13.229
  191MPD1    C3 2943   1.858   4.421  13.108
  191MPD1    C4 2944   1.970   4.502  13.089
  191MPD1    C5 2945   2.048   4.518  13.195
  191MPD1     H 2946   1.731   4.322  13.236
  191MPD1    H1 2947   1.998   4.539  12.991
  191MPD1    H2 2948   2.092   4.488  13.397
  191MPD1    H3 2949   2.134   4.580  13.175
  191MPD1     N 2950   1.766   4.389  13.007
  191MPD1    H5 2951   1.678   4.349  13.035
  191MPD1    N1 2952   1.881   4.348  13.461
  191MPD1    H6 2953   1.935   4.403  13.527
  191MPD1    H7 2954   1.783   4.346  13.492
  192MPD1     C 2955   1.064   0.142  13.024
  192MPD1    C1 2956   1.087   0.144  12.889
  192MPD1    C2 2957   1.186   0.059  12.838
  192MPD1    C3 2958   1.244   4.737  12.911
  192MPD1    C4 2959   1.203   4.725  13.041
  192MPD1    C5 2960   1.113   0.034  13.093
  192MPD1     H 2961   1.215   0.088  12.737
  192MPD1    H1 2962   1.246   4.647  13.104
  192MPD1    H2 2963   0.992   0.212  13.065
  192MPD1    H3 2964   1.070   0.015  13.190
  192MPD1     N 2965   1.354   4.656  12.861
  192MPD1    H5 2966   1.393   4.602  12.937
  192MPD1    N1 2967   1.036   0.251  12.817
  192MPD1    H6 2968   1.011   0.239  12.719
  192MPD1    H7 2969   0.952   0.279  12.868
  193MPD1     C 2970   1.154   4.589  16.362
  193MPD1    C1 2971   1.148   4.691  16.446
  193MPD1    C2 2972   1.230   4.707  16.558
  193MPD1    C3 2973   1.315   4.602  16.588
  193MPD1    C4 2974   1.320   4.491  16.506
  193MPD1    C5 2975   1.242   4.488  16.390
  193MPD1     H 2976   1.221   0.018  16.614
  193MPD1    H1 2977   1.388   4.407  16.516
  193MPD1    H2 2978   1.086   4.586  16.278
  193MPD1    H3 2979   1.255   4.404  16.323
  193MPD1     N 2980   1.404   4.609  16.699
  193MPD1    H5 2981   1.478   4.541  16.685
  193MPD1    N1 2982   1.072   0.021  16.397
  193MPD1    H6 2983   0.995   4.771  16.338
  193MPD1    H7 2984   1.050   0.084  16.473
  194MPD1     C 2985   3.736   2.568  17.069
  194MPD1    C1 2986   3.656   2.460  17.032
  194MPD1    C2 2987   3.697   2.331  17.058
  194MPD1    C3 2988   3.829   2.311  17.097
  194MPD1    C4 2989   3.914   2.416  17.117
  194MPD1    C5 2990   3.870   2.542  17.097
  194MPD1     H 2991   3.625   2.251  17.045
  194MPD1    H1 2992   4.013   2.403  17.159
  194MPD1    H2 2993   3.704   2.671  17.072
  194MPD1    H3 2994   3.936   2.626  17.114
  194MPD1     N 2995   3.879   2.179  17.122
  194MPD1    H5 2996   3.971   2.174  17.165
  194MPD1    N1 2997   3.519   2.486  17.015
  194MPD1    H6 2998   3.513   2.572  16.961
  194MPD1    H7 2999   3.483   2.427  16.940
  195MPD1     C 3000   1.202   4.254  18.421
  195MPD1    C1 3001   1.092   4.181  18.464
  195MPD1    C2 3002   1.077   4.048  18.427
  195MPD1    C3 3003   1.171   3.983  18.345
  195MPD1    C4 3004   1.274   4.059  18.308
  195MPD1    C5 3005   1.291   4.191  18.343
  195MPD1     H 3006   0.991   3.989  18.454
  195MPD1    H1 3007   1.356   4.017  18.251
  195MPD1    H2 3008   1.202   4.362  18.420
  195MPD1    H3 3009   1.374   4.253  18.311
  195MPD1     N 3010   1.161   3.850  18.301
  195MPD1    H5 3011   1.221   3.821  18.225
  195MPD1    N1 3012   0.984   4.253  18.520
  195MPD1    H6 3013   0.935   4.185  18.579
  195MPD1    H7 3014   1.019   4.325  18.582
  196MPD1     C 3015   0.246   2.572  18.550
  196MPD1    C1 3016   0.308   2.691  18.528
  196MPD1    C2 3017   0.414   2.722  18.608
  196MPD1    C3 3018   0.465   2.644  18.709
  196MPD1    C4 3019   0.395   2.529  18.730
  196MPD1    C5 3020   0.290   2.495  18.657
  196MPD1     H 3021   0.459   2.819  18.586
  196MPD1    H1 3022   0.427   2.468  18.814
  196MPD1    H2 3023   0.150   2.546  18.508
  196MPD1    H3 3024   0.249   2.402  18.694
  196MPD1     N 3025   0.570   2.672  18.793
  196MPD1    H5 3026   0.584   2.607  18.870
  196MPD1    N1 3027   0.241   2.795  18.453
  196MPD1    H6 3028   0.166   2.768  18.390
  196MPD1    H7 3029   0.282   2.884  18.426
  197MPD1     C 3030   0.657   0.549  17.847
  197MPD1    C1 3031   0.661   0.671  17.787
  197MPD1    C2 3032   0.546   0.722  17.715
  197MPD1    C3 3033   0.434   0.643  17.706
  197MPD1    C4 3034   0.438   0.520  17.766
  197MPD1    C5 3035   0.543   0.476  17.839
  197MPD1     H 3036   0.555   0.823  17.678
  197MPD1    H1 3037   0.360   0.446  17.752
  197MPD1    H2 3038   0.735   0.494  17.899
  197MPD1    H3 3039   0.538   0.375  17.880
  197MPD1     N 3040   0.317   0.675  17.627
  197MPD1    H5 3041   0.260   0.596  17.598
  197MPD1    N1 3042   0.773   0.754  17.809
  197MPD1    H6 3043   0.784   0.832  17.744
  197MPD1    H7 3044   0.857   0.696  17.802
  198MPD1     C 3045   2.491   3.198  15.453
  198MPD1    C1 3046   2.435   3.320  15.471
  198MPD1    C2 3047   2.350   3.350  15.577
  198MPD1    C3 3048   2.315   3.251  15.668
  198MPD1    C4 3049   2.383   3.130  15.659
  198MPD1    C5 3050   2.464   3.103  15.551
  198MPD1     H 3051   2.306   3.449  15.582
  198MPD1    H1 3052   2.363   3.054  15.735
  198MPD1    H2 3053   2.558   3.167  15.374
  198MPD1    H3 3054   2.519   3.010  15.551
  198MPD1     N 3055   2.231   3.288  15.775
  198MPD1    H5 3056   2.184   3.375  15.755
  198MPD1    N1 3057   2.446   3.416  15.363
  198MPD1    H6 3058   2.418   3.510  15.391
  198MPD1    H7 3059   2.531   3.416  15.308
  199MPD1     C 3060   4.491   0.156  10.366
  199MPD1    C1 3061   4.428   0.257  10.429
  199MPD1    C2 3062   4.308   0.303  10.372
  199MPD1    C3 3063   4.249   0.232  10.265
  199MPD1    C4 3064   4.313   0.120  10.218
  199MPD1    C5 3065   4.427   0.080  10.273
  199MPD1     H 3066   4.260   0.389  10.418
  199MPD1    H1 3067   4.266   0.060  10.141
  199MPD1    H2 3068   4.588   0.123  10.402
  199MPD1    H3 3069   4.478   4.775  10.231
  199MPD1     N 3070   4.132   0.271  10.191
  199MPD1    H5 3071   4.094   0.197  10.133
  199MPD1    N1 3072   4.489   0.330  10.532
  199MPD1    H6 3073   4.421   0.383  10.588
  199MPD1    H7 3074   4.553   0.278  10.592
  200MPD1     C 3075   2.829   0.189  15.508
  200MPD1    C1 3076   2.797   0.137  15.381
  200MPD1    C2 3077   2.904   0.087  15.302
  200MPD1    C3 3078   3.036   0.116  15.341
  200MPD1    C4 3079   3.060   0.167  15.459
  200MPD1    C5 3080   2.959   0.199  15.550
  200MPD1     H 3081   2.892   0.022  15.216
  200MPD1    H1 3082   3.162   0.186  15.492
  200MPD1    H2 3083   2.757   0.221  15.583
  200MPD1    H3 3084   2.983   0.223  15.652
  200MPD1     N 3085   3.138   0.088  15.246
  200MPD1    H5 3086   3.107   0.067  15.152
  200MPD1    N1 3087   2.666   0.104  15.343
  200MPD1    H6 3088   2.605   0.185  15.355
  200MPD1    H7 3089   2.644   0.077  15.248
  201MPD1     C 3090   0.462   4.446  13.690
  201MPD1    C1 3091   0.356   4.356  13.679
  201MPD1    C2 3092   0.391   4.227  13.727
  201MPD1    C3 3093   0.519   4.195  13.774
  201MPD1    C4 3094   0.619   4.288  13.783
  201MPD1    C5 3095   0.580   4.412  13.748
  201MPD1     H 3096   0.316   4.148  13.726
  201MPD1    H1 3097   0.718   4.273  13.825
  201MPD1    H2 3098   0.444   4.548  13.658
  201MPD1    H3 3099   0.656   4.490  13.755
  201MPD1     N 3100   0.541   4.055  13.801
  201MPD1    H5 3101   0.462   3.992  13.788
  201MPD1    N1 3102   0.226   4.398  13.648
  201MPD1    H6 3103   0.171   4.320  13.612
  201MPD1    H7 3104   0.225   4.479  13.587
  202MPD1     C 3105   0.472   3.576   9.522
  202MPD1    C1 3106   0.537   3.462   9.537
  202MPD1    C2 3107   0.607   3.438   9.660
  202MPD1    C3 3108   0.595   3.529   9.765
  202MPD1    C4 3109   0.513   3.640   9.742
  202MPD1    C5 3110   0.454   3.671   9.620
  202MPD1     H 3111   0.666   3.347   9.668
  202MPD1    H1 3112   0.503   3.713   9.822
  202MPD1    H2 3113   0.429   3.589   9.423
  202MPD1    H3 3114   0.403   3.764   9.600
  202MPD1     N 3115   0.662   3.512   9.892
  202MPD1    H5 3116   0.653   3.593   9.953
  202MPD1    N1 3117   0.557   3.386   9.421
  202MPD1    H6 3118   0.487   3.388   9.348
  202MPD1    H7 3119   0.590   3.292   9.443
  203MPD1     C 3120   4.147   4.588  12.829
  203MPD1    C1 3121   4.232   4.522  12.740
  203MPD1    C2 3122   4.283   4.403  12.772
  203MPD1    C3 3123   4.249   4.339  12.890
  203MPD1    C4 3124   4.162   4.400  12.980
  203MPD1    C5 3125   4.112   4.522  12.943
  203MPD1     H 3126   4.342   4.345  12.701
  203MPD1    H1 3127   4.108   4.352  13.061
  203MPD1    H2 3128   4.103   4.684  12.803
  203MPD1    H3 3129   4.026   4.565  12.994
  203MPD1     N 3130   4.319   4.221  12.929
  203MPD1    H5 3131   4.373   4.176  12.856
  203MPD1    N1 3132   4.262   4.584  12.618
  203MPD1    H6 3133   4.346   4.539  12.581
  203MPD1    H7 3134   4.283   4.683  12.623
  204MPD1     C 3135   3.761   0.651  18.368
  204MPD1    C1 3136   3.835   0.679  18.259
  204MPD1    C2 3137   3.860   0.577  18.168
  204MPD1    C3 3138   3.814   0.448  18.186
  204MPD1    C4 3139   3.729   0.426  18.291
  204MPD1    C5 3140   3.707   0.526  18.380
  204MPD1     H 3141   3.915   0.595  18.076
  204MPD1    H1 3142   3.685   0.328  18.306
  204MPD1    H2 3143   3.730   0.731  18.434
  204MPD1    H3 3144   3.634   0.510  18.459
  204MPD1     N 3145   3.848   0.348  18.086
  204MPD1    H5 3146   3.907   0.384  18.011
  204MPD1    N1 3147   3.903   0.797  18.246
  204MPD1    H6 3148   3.908   0.823  18.148
  204MPD1    H7 3149   3.853   0.876  18.289
  205MPD1     C 3150   4.138   4.095  16.876
  205MPD1    C1 3151   4.135   3.967  16.923
  205MPD1    C2 3152   4.052   3.939  17.027
  205MPD1    C3 3153   3.963   4.032  17.069
  205MPD1    C4 3154   3.955   4.156  17.013
  205MPD1    C5 3155   4.042   4.190  16.914
  205MPD1     H 3156   4.069   3.845  17.079
  205MPD1    H1 3157   3.867   4.215  17.035
  205MPD1    H2 3158   4.205   4.135  16.801
  205MPD1    H3 3159   4.042   4.287  16.867
  205MPD1     N 3160   3.873   4.013  17.181
  205MPD1    H5 3161   3.842   4.097  17.229
  205MPD1    N1 3162   4.238   3.874  16.897
  205MPD1    H6 3163   4.286   3.883  16.808
  205MPD1    H7 3164   4.196   3.782  16.907
  206MPD1     C 3165   4.616   2.505  16.735
  206MPD1    C1 3166   4.579   2.426  16.842
  206MPD1    C2 3167   4.442   2.397  16.853
  206MPD1    C3 3168   4.352   2.436  16.753
  206MPD1    C4 3169   4.396   2.511  16.645
  206MPD1    C5 3170   4.527   2.540  16.641
  206MPD1     H 3171   4.398   2.352  16.942
  206MPD1    H1 3172   4.328   2.534  16.564
  206MPD1    H2 3173   4.718   2.539  16.723
  206MPD1    H3 3174   4.568   2.584  16.551
  206MPD1     N 3175   4.219   2.404  16.750
  206MPD1    H5 3176   4.155   2.459  16.692
  206MPD1    N1 3177   4.663   2.408  16.951
  206MPD1    H6 3178   4.651   2.319  16.999
  206MPD1    H7 3179   4.762   2.421  16.930
  207MPD1     C 3180   1.235   4.365  10.632
  207MPD1    C1 3181   1.309   4.439  10.542
  207MPD1    C2 3182   1.439   4.481  10.571
  207MPD1    C3 3183   1.496   4.445  10.688
  207MPD1    C4 3184   1.425   4.376  10.781
  207MPD1    C5 3185   1.298   4.338  10.752
  207MPD1     H 3186   1.486   4.547  10.498
  207MPD1    H1 3187   1.455   4.358  10.884
  207MPD1    H2 3188   1.132   4.335  10.620
  207MPD1    H3 3189   1.240   4.301  10.836
  207MPD1     N 3190   1.630   4.472  10.726
  207MPD1    H5 3191   1.659   4.429  10.813
  207MPD1    N1 3192   1.266   4.459  10.410
  207MPD1    H6 3193   1.307   4.545  10.376
  207MPD1    H7 3194   1.164   4.467  10.408
  208MPD1     C 3195   4.595   3.490  17.428
  208MPD1    C1 3196   4.539   3.502  17.554
  208MPD1    C2 3197   4.469   3.396  17.603
  208MPD1    C3 3198   4.460   3.276  17.527
  208MPD1    C4 3199   4.496   3.272  17.397
  208MPD1    C5 3200   4.571   3.376  17.352
  208MPD1     H 3201   4.429   3.404  17.703
  208MPD1    H1 3202   4.485   3.184  17.334
  208MPD1    H2 3203   4.651   3.570  17.381
  208MPD1    H3 3204   4.610   3.380  17.251
  208MPD1     N 3205   4.371   3.181  17.583
  208MPD1    H5 3206   4.341   3.203  17.677
  208MPD1    N1 3207   4.576   3.613  17.636
  208MPD1    H6 3208   4.497   3.654  17.684
  208MPD1    H7 3209   4.628   3.683  17.582
  209MPD1     C 3210   1.758   3.581  11.957
  209MPD1    C1 3211   1.804   3.576  11.830
  209MPD1    C2 3212   1.897   3.668  11.793
  209MPD1    C3 3213   1.932   3.777  11.867
  209MPD1    C4 3214   1.883   3.773  11.997
  209MPD1    C5 3215   1.797   3.680  12.042
  209MPD1     H 3216   1.934   3.660  11.691
  209MPD1    H1 3217   1.909   3.846  12.073
  209MPD1    H2 3218   1.699   3.500  11.999
  209MPD1    H3 3219   1.772   3.688  12.148
  209MPD1     N 3220   2.028   3.871  11.817
  209MPD1    H5 3221   2.046   3.867  11.717
  209MPD1    N1 3222   1.758   3.479  11.741
  209MPD1    H6 3223   1.741   3.384  11.773
  209MPD1    H7 3224   1.823   3.475  11.663
  210MPD1     C 3225   2.922   4.456  11.984
  210MPD1    C1 3226   2.875   4.337  12.036
  210MPD1    C2 3227   2.748   4.295  11.994
  210MPD1    C3 3228   2.670   4.377  11.908
  210MPD1    C4 3229   2.723   4.505  11.870
  210MPD1    C5 3230   2.850   4.544  11.907
  210MPD1     H 3231   2.721   4.191  12.008
  210MPD1    H1 3232   2.662   4.568  11.807
  210MPD1    H2 3233   3.023   4.484  12.011
  210MPD1    H3 3234   2.890   4.638  11.873
  210MPD1     N 3235   2.552   4.330  11.845
  210MPD1    H5 3236   2.515   4.393  11.774
  210MPD1    N1 3237   2.973   4.253  12.093
  210MPD1    H6 3238   3.039   4.308  12.148
  210MPD1    H7 3239   2.936   4.194  12.168
  211MPD1     C 3240   4.758   3.936  16.738
  211MPD1    C1 3241   4.753   4.042  16.649
  211MPD1    C2 3242   4.633   4.070  16.585
  211MPD1    C3 3243   4.521   3.988  16.601
  211MPD1    C4 3244   4.535   3.874  16.685
  211MPD1    C5 3245   4.649   3.856  16.752
  211MPD1     H 3246   4.607   4.159  16.529
  211MPD1    H1 3247   4.456   3.800  16.698
  211MPD1    H2 3248   0.072   3.908  16.781
  211MPD1    H3 3249   4.664   3.768  16.813
  211MPD1     N 3250   4.399   4.013  16.528
  211MPD1    H5 3251   4.391   4.088  16.460
  211MPD1    N1 3252   0.081   4.128  16.644
  211MPD1    H6 3253   0.172   4.087  16.626
  211MPD1    H7 3254   0.084   4.187  16.561
  212MPD1     C 3255   3.419   2.381  16.730
  212MPD1    C1 3256   3.301   2.446  16.755
  212MPD1    C2 3257   3.211   2.375  16.838
  212MPD1    C3 3258   3.242   2.253  16.895
  212MPD1    C4 3259   3.364   2.187  16.864
  212MPD1    C5 3260   3.452   2.260  16.785
  212MPD1     H 3261   3.118   2.426  16.862
  212MPD1    H1 3262   3.397   2.087  16.893
  212MPD1    H2 3263   3.492   2.421  16.661
  212MPD1    H3 3264   3.547   2.216  16.759
  212MPD1     N 3265   3.156   2.182  16.985
  212MPD1    H5 3266   3.174   2.082  16.977
  212MPD1    N1 3267   3.269   2.573  16.696
  212MPD1    H6 3268   3.194   2.622  16.744
  212MPD1    H7 3269   3.351   2.632  16.705
  213MPD1     C 3270   2.007   2.730  15.545
  213MPD1    C1 3271   1.996   2.808  15.433
  213MPD1    C2 3272   1.876   2.867  15.412
  213MPD1    C3 3273   1.759   2.832  15.481
  213MPD1    C4 3274   1.771   2.741  15.587
  213MPD1    C5 3275   1.897   2.691  15.616
  213MPD1     H 3276   1.867   2.931  15.324
  213MPD1    H1 3277   1.686   2.708  15.645
  213MPD1    H2 3278   2.102   2.680  15.563
  213MPD1    H3 3279   1.895   2.624  15.701
  213MPD1     N 3280   1.639   2.886  15.437
  213MPD1    H5 3281   1.645   2.956  15.364
  213MPD1    N1 3282   2.106   2.847  15.365
  213MPD1    H6 3283   2.085   2.836  15.267
  213MPD1    H7 3284   2.188   2.789  15.385
  214MPD1     C 3285   0.620   2.653  15.568
  214MPD1    C1 3286   0.651   2.656  15.435
  214MPD1    C2 3287   0.784   2.696  15.404
  214MPD1    C3 3288   0.882   2.719  15.498
  214MPD1    C4 3289   0.849   2.707  15.630
  214MPD1    C5 3290   0.720   2.674  15.660
  214MPD1     H 3291   0.806   2.708  15.299
  214MPD1    H1 3292   0.917   2.719  15.714
  214MPD1    H2 3293   0.527   2.611  15.605
  214MPD1    H3 3294   0.691   2.662  15.764
  214MPD1     N 3295   1.016   2.762  15.463
  214MPD1    H5 3296   1.081   2.758  15.541
  214MPD1    N1 3297   0.555   2.655  15.333
  214MPD1    H6 3298   0.470   2.609  15.362
  214MPD1    H7 3299   0.581   2.613  15.243
  215MPD1     C 3300   1.756   3.338  11.343
  215MPD1    C1 3301   1.868   3.378  11.415
  215MPD1    C2 3302   1.884   3.514  11.426
  215MPD1    C3 3303   1.782   3.602  11.394
  215MPD1    C4 3304   1.660   3.558  11.347
  215MPD1    C5 3305   1.653   3.427  11.317
  215MPD1     H 3306   1.984   3.551  11.445
  215MPD1    H1 3307   1.572   3.620  11.336
  215MPD1    H2 3308   1.760   3.234  11.313
  215MPD1    H3 3309   1.563   3.379  11.282
  215MPD1     N 3310   1.804   3.739  11.415
  215MPD1    H5 3311   1.894   3.770  11.448
  215MPD1    N1 3312   1.985   3.303  11.385
  215MPD1    H6 3313   1.967   3.204  11.399
  215MPD1    H7 3314   2.057   3.333  11.451
  216MPD1     C 3315   3.314   2.220  17.323
  216MPD1    C1 3316   3.346   2.092  17.283
  216MPD1    C2 3317   3.306   1.994  17.374
  216MPD1    C3 3318   3.218   2.009  17.480
  216MPD1    C4 3319   3.171   2.139  17.500
  216MPD1    C5 3320   3.228   2.244  17.428
  216MPD1     H 3321   3.338   1.891  17.359
  216MPD1    H1 3322   3.109   2.160  17.586
  216MPD1    H2 3323   3.342   2.311  17.272
  216MPD1    H3 3324   3.189   2.343  17.449
  216MPD1     N 3325   3.184   1.896  17.553
  216MPD1    H5 3326   3.239   1.812  17.542
  216MPD1    N1 3327   3.442   2.069  17.184
  216MPD1    H6 3328   3.424   1.977  17.143
  216MPD1    H7 3329   3.433   2.141  17.113
  217MPD1     C 3330   3.682   3.451   8.839
  217MPD1    C1 3331   3.802   3.386   8.828
  217MPD1    C2 3332   3.905   3.409   8.916
  217MPD1    C3 3333   3.884   3.502   9.020
  217MPD1    C4 3334   3.760   3.562   9.040
  217MPD1    C5 3335   3.661   3.526   8.955
  217MPD1     H 3336   3.999   3.355   8.906
  217MPD1    H1 3337   3.742   3.621   9.130
  217MPD1    H2 3338   3.601   3.435   8.769
  217MPD1    H3 3339   3.559   3.559   8.974
  217MPD1     N 3340   3.984   3.542   9.116
  217MPD1    H5 3341   3.953   3.589   9.201
  217MPD1    N1 3342   3.815   3.306   8.711
  217MPD1    H6 3343   3.723   3.271   8.685
  217MPD1    H7 3344   3.880   3.228   8.718
  218MPD1     C 3345   0.639   4.703  13.229
  218MPD1    C1 3346   0.709   4.757  13.123
  218MPD1    C2 3347   0.817   4.686  13.072
  218MPD1    C3 3348   0.848   4.562  13.125
  218MPD1    C4 3349   0.781   4.508  13.228
  218MPD1    C5 3350   0.672   4.579  13.279
  218MPD1     H 3351   0.874   4.712  12.984
  218MPD1    H1 3352   0.805   4.413  13.273
  218MPD1    H2 3353   0.554   4.750  13.276
  218MPD1    H3 3354   0.620   4.546  13.368
  218MPD1     N 3355   0.958   4.496  13.062
  218MPD1    H5 3356   1.003   4.535  12.980
  218MPD1    N1 3357   0.668   0.086  13.061
  218MPD1    H6 3358   0.736   0.136  13.004
  218MPD1    H7 3359   0.632   0.151  13.130
  219MPD1     C 3360   1.317   4.165  12.201
  219MPD1    C1 3361   1.372   4.263  12.275
  219MPD1    C2 3362   1.332   4.283  12.408
  219MPD1    C3 3363   1.234   4.204  12.460
  219MPD1    C4 3364   1.187   4.096  12.385
  219MPD1    C5 3365   1.227   4.079  12.256
  219MPD1     H 3366   1.371   4.366  12.466
  219MPD1    H1 3367   1.112   4.037  12.436
  219MPD1    H2 3368   1.347   4.151  12.097
  219MPD1    H3 3369   1.180   4.001  12.197
  219MPD1     N 3370   1.198   4.205  12.600
  219MPD1    H5 3371   1.136   4.133  12.635
  219MPD1    N1 3372   1.470   4.339  12.212
  219MPD1    H6 3373   1.513   4.398  12.283
  219MPD1    H7 3374   1.535   4.280  12.162
  220MPD1     C 3375   1.096   0.263  10.157
  220MPD1    C1 3376   1.104   0.351  10.260
  220MPD1    C2 3377   1.102   0.290  10.390
  220MPD1    C3 3378   1.077   0.153  10.404
  220MPD1    C4 3379   1.057   0.075  10.292
  220MPD1    C5 3380   1.074   0.129  10.167
  220MPD1     H 3381   1.138   0.350  10.472
  220MPD1    H1 3382   1.047   4.748  10.299
  220MPD1    H2 3383   1.116   0.304  10.059
  220MPD1    H3 3384   1.082   0.064  10.080
  220MPD1     N 3385   1.085   0.096  10.532
  220MPD1    H5 3386   1.111   0.151  10.614
  220MPD1    N1 3387   1.140   0.486  10.237
  220MPD1    H6 3388   1.099   0.542  10.312
  220MPD1    H7 3389   1.102   0.526  10.151
  221MPD1     C 3390   3.306   3.190  16.477
  221MPD1    C1 3391   3.404   3.194  16.567
  221MPD1    C2 3392   3.535   3.181  16.528
  221MPD1    C3 3393   3.574   3.193  16.398
  221MPD1    C4 3394   3.475   3.210  16.309
  221MPD1    C5 3395   3.344   3.202  16.344
  221MPD1     H 3396   3.611   3.173  16.605
  221MPD1    H1 3397   3.502   3.228  16.206
  221MPD1    H2 3398   3.201   3.200  16.502
  221MPD1    H3 3399   3.272   3.211  16.263
  221MPD1     N 3400   3.708   3.196  16.345
  221MPD1    H5 3401   3.729   3.177  16.247
  221MPD1    N1 3402   3.372   3.184  16.707
  221MPD1    H6 3403   3.439   3.228  16.769
  221MPD1    H7 3404   3.281   3.228  16.719
  222MPD1     C 3405   2.486   1.910  18.171
  222MPD1    C1 3406   2.552   1.931  18.049
  222MPD1    C2 3407   2.591   2.060  18.027
  222MPD1    C3 3408   2.558   2.164  18.110
  222MPD1    C4 3409   2.488   2.143  18.223
  222MPD1    C5 3410   2.456   2.014  18.257
  222MPD1     H 3411   2.646   2.079  17.936
  222MPD1    H1 3412   2.452   2.225  18.285
  222MPD1    H2 3413   2.456   1.811  18.204
  222MPD1    H3 3414   2.400   1.993  18.347
  222MPD1     N 3415   2.597   2.301  18.084
  222MPD1    H5 3416   2.558   2.371  18.146
  222MPD1    N1 3417   2.608   1.827  17.972
  222MPD1    H6 3418   2.639   1.852  17.878
  222MPD1    H7 3419   2.553   1.742  17.961
  223MPD1     C 3420   2.309   3.164  18.354
  223MPD1    C1 3421   2.441   3.181  18.319
  223MPD1    C2 3422   2.501   3.087  18.239
  223MPD1    C3 3423   2.434   2.976  18.185
  223MPD1    C4 3424   2.297   2.971  18.216
  223MPD1    C5 3425   2.240   3.052  18.299
  223MPD1     H 3426   2.609   3.090  18.227
  223MPD1    H1 3427   2.238   2.893  18.168
  223MPD1    H2 3428   2.261   3.234  18.423
  223MPD1    H3 3429   2.138   3.040  18.331
  223MPD1     N 3430   2.503   2.879  18.104
  223MPD1    H5 3431   2.591   2.924  18.080
  223MPD1    N1 3432   2.514   3.277  18.391
  223MPD1    H6 3433   2.456   3.358  18.410
  223MPD1    H7 3434   2.600   3.309  18.345
  224MPD1     C 3435   0.841   4.536   9.607
  224MPD1    C1 3436   0.786   4.594   9.710
  224MPD1    C2 3437   0.672   4.540   9.764
  224MPD1    C3 3438   0.642   4.408   9.734
  224MPD1    C4 3439   0.708   4.344   9.633
  224MPD1    C5 3440   0.812   4.408   9.572
  224MPD1     H 3441   0.624   4.598   9.842
  224MPD1    H1 3442   0.699   4.237   9.618
  224MPD1    H2 3443   0.923   4.585   9.556
  224MPD1    H3 3444   0.861   4.358   9.490
  224MPD1     N 3445   0.534   4.332   9.791
  224MPD1    H5 3446   0.526   4.238   9.754
  224MPD1    N1 3447   0.818   4.728   9.744
  224MPD1    H6 3448   0.913   4.743   9.710
  224MPD1    H7 3449   0.803   4.749   9.842
  225MPD1     C 3450   1.086   0.701  13.123
  225MPD1    C1 3451   1.048   0.570  13.137
  225MPD1    C2 3452   0.943   0.525  13.064
  225MPD1    C3 3453   0.874   0.604  12.979
  225MPD1    C4 3454   0.907   0.735  12.972
  225MPD1    C5 3455   1.016   0.782  13.043
  225MPD1     H 3456   0.912   0.422  13.080
  225MPD1    H1 3457   0.858   0.812  12.914
  225MPD1    H2 3458   1.178   0.732  13.171
  225MPD1    H3 3459   1.042   0.887  13.035
  225MPD1     N 3460   0.769   0.561  12.899
  225MPD1    H5 3461   0.725   0.630  12.838
  225MPD1    N1 3462   1.133   0.481  13.208
  225MPD1    H6 3463   1.087   0.399  13.247
  225MPD1    H7 3464   1.184   0.529  13.282
  226MPD1     C 3465   4.494   4.279   9.807
  226MPD1    C1 3466   4.588   4.322   9.897
  226MPD1    C2 3467   4.584   4.457   9.925
  226MPD1    C3 3468   4.489   4.540   9.873
  226MPD1    C4 3469   4.385   4.485   9.801
  226MPD1    C5 3470   4.393   4.354   9.767
  226MPD1     H 3471   4.663   4.496   9.987
  226MPD1    H1 3472   4.297   4.539   9.768
  226MPD1    H2 3473   4.494   4.173   9.785
  226MPD1    H3 3474   4.314   4.308   9.709
  226MPD1     N 3475   4.497   4.677   9.904
  226MPD1    H5 3476   4.571   4.711   9.964
  226MPD1    N1 3477   4.694   4.246   9.938
  226MPD1    H6 3478   4.663   4.156   9.972
  226MPD1    H7 3479   4.724   4.294  10.023
  227MPD1     C 3480   3.907   0.641   9.558
  227MPD1    C1 3481   3.921   0.509   9.527
  227MPD1    C2 3482   4.023   0.434   9.585
  227MPD1    C3 3483   4.100   0.488   9.681
  227MPD1    C4 3484   4.088   0.620   9.714
  227MPD1    C5 3485   3.988   0.692   9.655
  227MPD1     H 3486   4.043   0.330   9.563
  227MPD1    H1 3487   4.143   0.675   9.790
  227MPD1    H2 3488   3.822   0.702   9.528
  227MPD1    H3 3489   3.975   0.795   9.684
  227MPD1     N 3490   4.186   0.406   9.756
  227MPD1    H5 3491   4.197   0.309   9.727
  227MPD1    N1 3492   3.825   0.449   9.441
  227MPD1    H6 3493   3.876   0.374   9.394
  227MPD1    H7 3494   3.811   0.515   9.365
  228MPD1     C 3495   2.922   3.055  12.834
  228MPD1    C1 3496   2.819   3.143  12.804
  228MPD1    C2 3497   2.691   3.095  12.836
  228MPD1    C3 3498   2.668   2.979  12.911
  228MPD1    C4 3499   2.776   2.897  12.931
  228MPD1    C5 3500   2.900   2.937  12.889
  228MPD1     H 3501   2.611   3.164  12.809
  228MPD1    H1 3502   2.764   2.806  12.989
  228MPD1    H2 3503   3.023   3.072  12.799
  228MPD1    H3 3504   2.987   2.879  12.916
  228MPD1     N 3505   2.533   2.952  12.948
  228MPD1    H5 3506   2.457   3.008  12.911
  228MPD1    N1 3507   2.826   3.262  12.723
  228MPD1    H6 3508   2.922   3.296  12.719
  228MPD1    H7 3509   2.754   3.329  12.751
  229MPD1     C 3510   2.183   1.508  14.906
  229MPD1    C1 3511   2.157   1.525  15.043
  229MPD1    C2 3512   2.250   1.466  15.132
  229MPD1    C3 3513   2.366   1.405  15.086
  229MPD1    C4 3514   2.378   1.392  14.946
  229MPD1    C5 3515   2.291   1.447  14.860
  229MPD1     H 3516   2.228   1.471  15.238
  229MPD1    H1 3517   2.465   1.345  14.903
  229MPD1    H2 3518   2.112   1.543  14.831
  229MPD1    H3 3519   2.313   1.448  14.754
  229MPD1     N 3520   2.458   1.335  15.169
  229MPD1    H5 3521   2.536   1.293  15.120
  229MPD1    N1 3522   2.034   1.581  15.081
  229MPD1    H6 3523   2.062   1.618  15.172
  229MPD1    H7 3524   2.023   1.662  15.020
  230MPD1     C 3525   3.150   1.281  16.000
  230MPD1    C1 3526   3.168   1.157  15.933
  230MPD1    C2 3527   3.071   1.134  15.842
  230MPD1    C3 3528   2.977   1.223  15.800
  230MPD1    C4 3529   2.976   1.348  15.855
  230MPD1    C5 3530   3.060   1.373  15.954
  230MPD1     H 3531   3.067   1.036  15.795
  230MPD1    H1 3532   2.908   1.430  15.836
  230MPD1    H2 3533   3.202   1.316  16.088
  230MPD1    H3 3534   3.056   1.466  16.009
  230MPD1     N 3535   2.870   1.180  15.713
  230MPD1    H5 3536   2.878   1.085  15.676
  230MPD1    N1 3537   3.261   1.061  15.982
  230MPD1    H6 3538   3.303   1.005  15.908
  230MPD1    H7 3539   3.337   1.095  16.040
  231MPD1     C 3540   0.621   2.986  15.974
  231MPD1    C1 3541   0.545   3.043  15.877
  231MPD1    C2 3542   0.595   3.074  15.754
  231MPD1    C3 3543   0.730   3.046  15.726
  231MPD1    C4 3544   0.812   3.007  15.825
  231MPD1    C5 3545   0.760   2.989  15.953
  231MPD1     H 3546   0.538   3.115  15.671
  231MPD1    H1 3547   0.916   2.990  15.803
  231MPD1    H2 3548   0.576   2.958  16.069
  231MPD1    H3 3549   0.826   2.958  16.033
  231MPD1     N 3550   0.770   3.062  15.590
  231MPD1    H5 3551   0.702   3.090  15.520
  231MPD1    N1 3552   0.407   3.052  15.900
  231MPD1    H6 3553   0.378   3.069  15.996
  231MPD1    H7 3554   0.365   3.131  15.852
  232MPD1     C 3555   2.734   0.821  18.299
  232MPD1    C1 3556   2.738   0.714  18.216
  232MPD1    C2 3557   2.691   0.594  18.277
  232MPD1    C3 3558   2.657   0.588  18.410
  232MPD1    C4 3559   2.664   0.701  18.489
  232MPD1    C5 3560   2.696   0.815  18.430
  232MPD1     H 3561   2.678   0.508  18.212
  232MPD1    H1 3562   2.625   0.705  18.590
  232MPD1    H2 3563   2.761   0.913  18.250
  232MPD1    H3 3564   2.707   0.905  18.490
  232MPD1     N 3565   2.596   0.465  18.447
  232MPD1    H5 3566   2.594   0.389  18.380
  232MPD1    N1 3567   2.778   0.723  18.082
  232MPD1    H6 3568   2.820   0.635  18.050
  232MPD1    H7 3569   2.845   0.799  18.073
  233MPD1     C 3570   4.011   3.662  17.705
  233MPD1    C1 3571   4.013   3.586  17.824
  233MPD1    C2 3572   4.026   3.658  17.941
  233MPD1    C3 3573   4.066   3.790  17.937
  233MPD1    C4 3574   4.081   3.855  17.820
  233MPD1    C5 3575   4.054   3.792  17.704
  233MPD1     H 3576   4.009   3.616  18.040
  233MPD1    H1 3577   4.115   3.958  17.814
  233MPD1    H2 3578   3.985   3.610  17.614
  233MPD1    H3 3579   4.067   3.846  17.610
  233MPD1     N 3580   4.091   3.867  18.054
  233MPD1    H5 3581   4.101   3.966  18.036
  233MPD1    N1 3582   3.958   3.455  17.826
  233MPD1    H6 3583   4.003   3.402  17.901
  233MPD1    H7 3584   3.979   3.409  17.738
  234MPD1     C 3585   0.554   2.500   9.402
  234MPD1    C1 3586   0.467   2.585   9.335
  234MPD1    C2 3587   0.434   2.711   9.389
  234MPD1    C3 3588   0.464   2.742   9.520
  234MPD1    C4 3589   0.544   2.657   9.586
  234MPD1    C5 3590   0.591   2.541   9.531
  234MPD1     H 3591   0.374   2.785   9.337
  234MPD1    H1 3592   0.573   2.672   9.689
  234MPD1    H2 3593   0.598   2.406   9.372
  234MPD1    H3 3594   0.659   2.481   9.590
  234MPD1     N 3595   0.419   2.867   9.567
  234MPD1    H5 3596   0.339   2.909   9.522
  234MPD1    N1 3597   0.453   2.565   9.192
  234MPD1    H6 3598   0.455   2.464   9.186
  234MPD1    H7 3599   0.365   2.602   9.159
  235MPD1     C 3600   1.254   0.269  10.914
  235MPD1    C1 3601   1.205   0.334  10.806
  235MPD1    C2 3602   1.280   0.435  10.737
  235MPD1    C3 3603   1.407   0.464  10.783
  235MPD1    C4 3604   1.453   0.396  10.892
  235MPD1    C5 3605   1.378   0.310  10.958
  235MPD1     H 3606   1.237   0.495  10.658
  235MPD1    H1 3607   1.558   0.397  10.917
  235MPD1    H2 3608   1.201   0.185  10.959
  235MPD1    H3 3609   1.430   0.248  11.029
  235MPD1     N 3610   1.490   0.544  10.696
  235MPD1    H5 3611   1.448   0.568  10.607
  235MPD1    N1 3612   1.080   0.300  10.754
  235MPD1    H6 3613   1.016   0.296  10.833
  235MPD1    H7 3614   1.039   0.376  10.701
  236MPD1     C 3615   1.063   2.004  10.256
  236MPD1    C1 3616   0.986   1.882  10.247
  236MPD1    C2 3617   1.041   1.763  10.296
  236MPD1    C3 3618   1.163   1.764  10.368
  236MPD1    C4 3619   1.231   1.884  10.382
  236MPD1    C5 3620   1.184   2.001  10.324
  236MPD1     H 3621   0.990   1.668  10.286
  236MPD1    H1 3622   1.327   1.883  10.432
  236MPD1    H2 3623   1.024   2.096  10.215
  236MPD1    H3 3624   1.255   2.082  10.316
  236MPD1     N 3625   1.219   1.648  10.433
  236MPD1    H5 3626   1.297   1.663  10.496
  236MPD1    N1 3627   0.861   1.884  10.202
  236MPD1    H6 3628   0.816   1.793  10.195
  236MPD1    H7 3629   0.842   1.939  10.119
  237MPD1     C 3630   1.488   4.328  15.470
  237MPD1    C1 3631   1.443   4.399  15.580
  237MPD1    C2 3632   1.305   4.396  15.603
  237MPD1    C3 3633   1.214   4.352  15.503
  237MPD1    C4 3634   1.267   4.294  15.390
  237MPD1    C5 3635   1.403   4.279  15.382
  237MPD1     H 3636   1.269   4.437  15.697
  237MPD1    H1 3637   1.206   4.259  15.308
  237MPD1    H2 3638   1.592   4.307  15.447
  237MPD1    H3 3639   1.449   4.230  15.297
  237MPD1     N 3640   1.072   4.353  15.509
  237MPD1    H5 3641   1.018   4.319  15.430
  237MPD1    N1 3642   1.533   4.439  15.679
  237MPD1    H6 3643   1.627   4.467  15.654
  237MPD1    H7 3644   1.497   4.528  15.713
  238MPD1     C 3645   2.787   3.433  15.005
  238MPD1    C1 3646   2.727   3.347  15.099
  238MPD1    C2 3647   2.629   3.261  15.052
  238MPD1    C3 3648   2.607   3.248  14.914
  238MPD1    C4 3649   2.660   3.343  14.824
  238MPD1    C5 3650   2.746   3.436  14.876
  238MPD1     H 3651   2.566   3.205  15.119
  238MPD1    H1 3652   2.617   3.343  14.724
  238MPD1    H2 3653   2.853   3.515  15.033
  238MPD1    H3 3654   2.792   3.514  14.817
  238MPD1     N 3655   2.504   3.168  14.855
  238MPD1    H5 3656   2.490   3.180  14.756
  238MPD1    N1 3657   2.731   3.370  15.238
  238MPD1    H6 3658   2.819   3.416  15.259
  238MPD1    H7 3659   2.736   3.285  15.293
  239MPD1     C 3660   2.685   3.705  15.229
  239MPD1    C1 3661   2.799   3.758  15.168
  239MPD1    C2 3662   2.789   3.867  15.083
  239MPD1    C3 3663   2.672   3.937  15.073
  239MPD1    C4 3664   2.562   3.884  15.136
  239MPD1    C5 3665   2.569   3.774  15.214
  239MPD1     H 3666   2.882   3.904  15.041
  239MPD1    H1 3667   2.466   3.934  15.130
  239MPD1    H2 3668   2.689   3.626  15.302
  239MPD1    H3 3669   2.479   3.727  15.251
  239MPD1     N 3670   2.655   4.048  14.987
  239MPD1    H5 3671   2.561   4.072  14.958
  239MPD1    N1 3672   2.927   3.696  15.179
  239MPD1    H6 3673   3.011   3.753  15.178
  239MPD1    H7 3674   2.918   3.632  15.258
  240MPD1     C 3675   1.902   4.170  13.774
  240MPD1    C1 3676   1.780   4.113  13.814
  240MPD1    C2 3677   1.781   4.034  13.926
  240MPD1    C3 3678   1.895   4.007  13.998
  240MPD1    C4 3679   2.015   4.059  13.962
  240MPD1    C5 3680   2.018   4.136  13.847
  240MPD1     H 3681   1.692   3.979  13.954
  240MPD1    H1 3682   2.107   4.051  14.019
  240MPD1    H2 3683   1.927   4.235  13.691
  240MPD1    H3 3684   2.105   4.193  13.818
  240MPD1     N 3685   1.887   3.916  14.111
  240MPD1    H5 3686   1.804   3.859  14.123
  240MPD1    N1 3687   1.670   4.122  13.726
  240MPD1    H6 3688   1.579   4.115  13.772
  240MPD1    H7 3689   1.681   4.210  13.675
  241MPD1     C 3690   2.263   3.371  15.000
  241MPD1    C1 3691   2.324   3.469  14.927
  241MPD1    C2 3692   2.263   3.521  14.815
  241MPD1    C3 3693   2.147   3.465  14.765
  241MPD1    C4 3694   2.088   3.363  14.841
  241MPD1    C5 3695   2.143   3.323  14.961
  241MPD1     H 3696   2.308   3.605  14.763
  241MPD1    H1 3697   1.998   3.305  14.824
  241MPD1    H2 3698   2.321   3.329  15.081
  241MPD1    H3 3699   2.092   3.250  15.023
  241MPD1     N 3700   2.084   3.508  14.648
  241MPD1    H5 3701   1.986   3.480  14.643
  241MPD1    N1 3702   2.436   3.538  14.989
  241MPD1    H6 3703   2.483   3.604  14.927
  241MPD1    H7 3704   2.501   3.483  15.044
  242MPD1     C 3705   1.878   1.922  16.305
  242MPD1    C1 3706   2.009   1.963  16.289
  242MPD1    C2 3707   2.047   1.982  16.157
  242MPD1    C3 3708   1.990   1.923  16.046
  242MPD1    C4 3709   1.864   1.864  16.072
  242MPD1    C5 3710   1.814   1.866  16.200
  242MPD1     H 3711   2.131   2.050  16.141
  242MPD1    H1 3712   1.805   1.816  15.995
  242MPD1    H2 3713   1.830   1.925  16.403
  242MPD1    H3 3714   1.708   1.846  16.211
  242MPD1     N 3715   2.031   1.947  15.915
  242MPD1    H5 3716   1.977   1.910  15.837
  242MPD1    N1 3717   2.071   2.047  16.380
  242MPD1    H6 3718   2.172   2.050  16.378
  242MPD1    H7 3719   2.045   2.021  16.475
  243MPD1     C 3720   3.373   0.718  18.589
  243MPD1    C1 3721   3.342   0.598  18.532
  243MPD1    C2 3722   3.358   0.583  18.400
  243MPD1    C3 3723   3.421   0.684  18.324
  243MPD1    C4 3724   3.462   0.801  18.383
  243MPD1    C5 3725   3.432   0.819  18.517
  243MPD1     H 3726   3.319   0.491  18.358
  243MPD1    H1 3727   3.511   0.884  18.334
  243MPD1    H2 3728   3.344   0.730  18.692
  243MPD1    H3 3729   3.469   0.911  18.560
  243MPD1     N 3730   3.442   0.661  18.185
  243MPD1    H5 3731   3.391   0.582  18.147
  243MPD1    N1 3732   3.267   0.504  18.609
  243MPD1    H6 3733   3.292   0.406  18.599
  243MPD1    H7 3734   3.261   0.523  18.709
  244MPD1     C 3735   3.469   4.658  17.906
  244MPD1    C1 3736   3.426   4.734  18.008
  244MPD1    C2 3737   3.442   0.092  18.004
  244MPD1    C3 3738   3.500   0.147  17.898
  244MPD1    C4 3739   3.547   0.072  17.792
  244MPD1    C5 3740   3.534   4.719  17.801
  244MPD1     H 3741   3.409   0.154  18.087
  244MPD1    H1 3742   3.599   0.115  17.707
  244MPD1    H2 3743   3.464   4.550  17.900
  244MPD1    H3 3744   3.566   4.666  17.712
  244MPD1     N 3745   3.516   0.289  17.906
  244MPD1    H5 3746   3.472   0.338  17.983
  244MPD1    N1 3747   3.370   4.670  18.122
  244MPD1    H6 3748   3.296   4.724  18.167
  244MPD1    H7 3749   3.346   4.573  18.102
  245MPD1     C 3750   0.391   0.843  13.495
  245MPD1    C1 3751   0.462   0.838  13.612
  245MPD1    C2 3752   0.472   0.957  13.686
  245MPD1    C3 3753   0.395   1.070  13.654
  245MPD1    C4 3754   0.327   1.071  13.533
  245MPD1    C5 3755   0.323   0.956  13.462
  245MPD1     H 3756   0.532   0.966  13.776
  245MPD1    H1 3757   0.285   1.165  13.500
  245MPD1    H2 3758   0.381   0.756  13.432
  245MPD1    H3 3759   0.272   0.961  13.366
  245MPD1     N 3760   0.392   1.179  13.742
  245MPD1    H5 3761   0.435   1.165  13.833
  245MPD1    N1 3762   0.554   0.734  13.638
  245MPD1    H6 3763   0.561   0.726  13.739
  245MPD1    H7 3764   0.514   0.649  13.600
  246MPD1     C 3765   1.353   3.578  10.191
  246MPD1    C1 3766   1.307   3.447  10.175
  246MPD1    C2 3767   1.396   3.357  10.118
  246MPD1    C3 3768   1.514   3.396  10.061
  246MPD1    C4 3769   1.562   3.519  10.099
  246MPD1    C5 3770   1.476   3.613  10.157
  246MPD1     H 3771   1.366   3.255  10.102
  246MPD1    H1 3772   1.651   3.555  10.049
  246MPD1    H2 3773   1.299   3.669  10.211
  246MPD1    H3 3774   1.497   3.719  10.169
  246MPD1     N 3775   1.580   3.295   9.978
  246MPD1    H5 3776   1.528   3.209   9.960
  246MPD1    N1 3777   1.183   3.411  10.227
  246MPD1    H6 3778   1.136   3.334  10.180
  246MPD1    H7 3779   1.125   3.494  10.239
  247MPD1     C 3780   4.376   0.655  15.156
  247MPD1    C1 3781   4.457   0.770  15.183
  247MPD1    C2 3782   4.514   0.778  15.309
  247MPD1    C3 3783   4.468   0.690  15.415
  247MPD1    C4 3784   4.376   0.592  15.389
  247MPD1    C5 3785   4.334   0.573  15.264
  247MPD1     H 3786   4.584   0.859  15.325
  247MPD1    H1 3787   4.361   0.513  15.461
  247MPD1    H2 3788   4.337   0.638  15.057
  247MPD1    H3 3789   4.264   0.491  15.249
  247MPD1     N 3790   4.519   0.691  15.550
  247MPD1    H5 3791   4.494   0.616  15.613
  247MPD1    N1 3792   4.503   0.844  15.075
  247MPD1    H6 3793   4.535   0.937  15.103
  247MPD1    H7 3794   4.433   0.855  15.002
  248MPD1     C 3795   1.180   0.486  17.828
  248MPD1    C1 3796   1.109   0.601  17.857
  248MPD1    C2 3797   1.039   0.600  17.976
  248MPD1    C3 3798   1.023   0.483  18.052
  248MPD1    C4 3799   1.096   0.367  18.018
  248MPD1    C5 3800   1.173   0.379  17.907
  248MPD1     H 3801   0.984   0.688  18.008
  248MPD1    H1 3802   1.086   0.273  18.070
  248MPD1    H2 3803   1.251   0.486  17.745
  248MPD1    H3 3804   1.235   0.293  17.887
  248MPD1     N 3805   0.931   0.486  18.160
  248MPD1    H5 3806   0.859   0.557  18.151
  248MPD1    N1 3807   1.146   0.719  17.790
  248MPD1    H6 3808   1.193   0.706  17.701
  248MPD1    H7 3809   1.069   0.786  17.794
  249MPD1     C 3810   2.145   4.226  10.565
  249MPD1    C1 3811   2.224   4.280  10.663
  249MPD1    C2 3812   2.244   4.417  10.662
  249MPD1    C3 3813   2.179   4.501  10.572
  249MPD1    C4 3814   2.089   4.450  10.485
  249MPD1    C5 3815   2.075   4.312  10.480
  249MPD1     H 3816   2.310   4.452  10.740
  249MPD1    H1 3817   2.040   4.511  10.409
  249MPD1    H2 3818   2.123   4.121  10.555
  249MPD1    H3 3819   2.005   4.269  10.409
  249MPD1     N 3820   2.206   4.641  10.571
  249MPD1    H5 3821   2.288   4.672  10.622
  249MPD1    N1 3822   2.287   4.199  10.753
  249MPD1    H6 3823   2.245   4.107  10.766
  249MPD1    H7 3824   2.300   4.246  10.842
  250MPD2     C 3825   4.009   4.325  13.353
  250MPD2    C1 3826   3.916   4.430  13.348
  250MPD2    C2 3827   3.785   4.400  13.304
  250MPD2    C3 3828   3.753   4.265  13.274
  250MPD2    C4 3829   3.847   4.170  13.273
  250MPD2    C5 3830   3.972   4.198  13.310
  250MPD2     H 3831   3.710   4.477  13.304
  250MPD2    H1 3832   3.834   4.065  13.249
  250MPD2    H2 3833   4.107   4.352  13.392
  250MPD2    H3 3834   4.045   4.119  13.323
  250MPD2     N 3835   3.623   4.230  13.240
  250MPD2    H5 3836   3.607   4.134  13.210
  250MPD2    N1 3837   3.955   4.554  13.402
  250MPD2    H7 3838   4.034   4.553  13.465
  251TMC3    C1 3839   3.958   0.010  13.446
  251TMC3    C2 3840   3.895   0.135  13.414
  251TMC3    C3 3841   3.969   0.253  13.438
  251TMC3    C4 3842   4.080   0.003  13.500
  251TMC3    C5 3843   4.146   0.123  13.522
  251TMC3    C6 3844   4.094   0.243  13.489
  251TMC3     C 3845   3.896   4.676  13.375
  251TMC3     O 3846   3.805   4.694  13.294
  251TMC3     H 3847   3.798   0.144  13.366
  251TMC3    H1 3848   4.117   4.691  13.542
  251TMC3    H2 3849   4.141   0.339  13.506
  251TMC3    C7 3850   4.286   0.101  13.552
  251TMC3    C8 3851   3.884   0.361  13.479
  251TMC3    O1 3852   4.322   4.766  13.566
  251TMC3    O2 3853   3.786   0.322  13.538
  252TMC3    C1 3854   3.923   1.432   9.388
  252TMC3    C2 3855   4.017   1.453   9.480
  252TMC3    C3 3856   4.012   1.381   9.596
  252TMC3    C4 3857   3.817   1.347   9.408
  252TMC3    C5 3858   3.810   1.288   9.528
  252TMC3    C6 3859   3.907   1.293   9.625
  252TMC3     C 3860   3.911   1.528   9.286
  252TMC3     O 3861   3.795   1.550   9.252
  252TMC3     H 3862   4.085   1.536   9.471
  252TMC3    H1 3863   3.745   1.327   9.330
  252TMC3    H2 3864   3.889   1.253   9.724
  252TMC3    C7 3865   3.703   1.184   9.539
  252TMC3    C8 3866   4.085   1.448   9.711
  252TMC3    O1 3867   3.602   1.203   9.472
  252TMC3    O2 3868   4.132   1.562   9.688
  253MPD2     C 3869   0.248   4.396  15.465
  253MPD2    C1 3870   0.122   4.368  15.519
  253MPD2    C2 3871   0.098   4.394  15.651
  253MPD2    C3 3872   0.194   4.458  15.726
  253MPD2    C4 3873   0.315   4.483  15.672
  253MPD2    C5 3874   0.340   4.461  15.541
  253MPD2     H 3875   0.003   4.371  15.698
  253MPD2    H1 3876   0.394   4.527  15.731
  253MPD2    H2 3877   0.272   4.377  15.360
  253MPD2    H3 3878   0.441   4.465  15.502
  253MPD2     N 3879   0.171   4.512  15.857
  253MPD2    H5 3880   0.252   4.559  15.895
  253MPD2    N1 3881   0.013   4.318  15.447
  253MPD2    H7 3882   4.710   4.295  15.498
  254TMC3    C1 3883   0.059   4.595  16.045
  254TMC3    C2 3884   4.721   4.644  16.101
  254TMC3    C3 3885   4.724   4.696  16.228
  254TMC3    C4 3886   0.172   4.589  16.119
  254TMC3    C5 3887   0.160   4.635  16.245
  254TMC3    C6 3888   0.057   4.690  16.301
  254TMC3     C 3889   0.052   4.510  15.930
  254TMC3     O 3890   4.726   4.467  15.894
  254TMC3     H 3891   4.632   4.631  16.041
  254TMC3    H1 3892   0.252   4.520  16.093
  254TMC3    H2 3893   0.059   4.703  16.408
  254TMC3    C7 3894   0.248   4.581  16.342
  254TMC3    C8 3895   4.605   4.726  16.296
  254TMC3    O1 3896   0.201   4.509  16.432
  254TMC3    O2 3897   4.614   4.731  16.419
  255MPD2     C 3898   2.874   2.317  10.565
  255MPD2    C1 3899   2.992   2.387  10.587
  255MPD2    C2 3900   3.117   2.335  10.561
  255MPD2    C3 3901   3.127   2.215  10.502
  255MPD2    C4 3902   3.010   2.132  10.487
  255MPD2    C5 3903   2.889   2.188  10.522
  255MPD2     H 3904   3.212   2.387  10.573
  255MPD2    H1 3905   3.015   2.030  10.453
  255MPD2    H2 3906   2.775   2.361  10.575
  255MPD2    H3 3907   2.801   2.125  10.512
  255MPD2     N 3908   3.258   2.173  10.478
  255MPD2    H5 3909   3.335   2.233  10.505
  255MPD2    N1 3910   2.982   2.522  10.621
  255MPD2    H7 3911   2.889   2.561  10.632
  256TMC3    C1 3912   3.041   2.735  10.698
  256TMC3    C2 3913   3.129   2.817  10.642
  256TMC3    C3 3914   3.090   2.936  10.590
  256TMC3    C4 3915   2.907   2.760  10.701
  256TMC3    C5 3916   2.870   2.883  10.648
  256TMC3    C6 3917   2.957   2.976  10.603
  256TMC3     C 3918   3.076   2.593  10.680
  256TMC3     O 3919   3.191   2.563  10.707
  256TMC3     H 3920   3.229   2.774  10.643
  256TMC3    H1 3921   2.837   2.685  10.736
  256TMC3    H2 3922   2.922   3.068  10.557
  256TMC3    C7 3923   2.764   2.854  10.558
  256TMC3    C8 3924   3.143   2.953  10.452
  256TMC3    O1 3925   2.741   2.742  10.524
  256TMC3    O2 3926   3.056   2.933  10.369
  257MPD2     C 3927   2.560   0.153  13.461
  257MPD2    C1 3928   2.504   0.052  13.379
  257MPD2    C2 3929   2.479   4.715  13.441
  257MPD2    C3 3930   2.488   4.700  13.583
  257MPD2    C4 3931   2.546   0.021  13.653
  257MPD2    C5 3932   2.585   0.134  13.591
  257MPD2     H 3933   2.426   4.635  13.391
  257MPD2    H1 3934   2.554   0.020  13.761
  257MPD2    H2 3935   2.602   0.248  13.429
  257MPD2    H3 3936   2.617   0.214  13.657
  257MPD2     N 3937   2.460   4.562  13.626
  257MPD2    H5 3938   2.412   4.498  13.564
  257MPD2    N1 3939   2.487   0.082  13.242
  257MPD2    H7 3940   2.542   0.164  13.218
  258TMC3    C1 3941   2.437   4.379  13.766
  258TMC3    C2 3942   2.522   4.304  13.689
  258TMC3    C3 3943   2.565   4.180  13.738
  258TMC3    C4 3944   2.399   4.327  13.889
  258TMC3    C5 3945   2.448   4.204  13.933
  258TMC3    C6 3946   2.530   4.122  13.854
  258TMC3     C 3947   2.467   4.522  13.753
  258TMC3     O 3948   2.486   4.581  13.858
  258TMC3     H 3949   2.579   4.351  13.609
  258TMC3    H1 3950   2.326   4.383  13.946
  258TMC3    H2 3951   2.572   4.026  13.882
  258TMC3    C7 3952   2.432   4.164  14.072
  258TMC3    C8 3953   2.643   4.095  13.641
  258TMC3    O1 3954   2.358   4.232  14.147
  258TMC3    O2 3955   2.707   4.002  13.693
  259MPD2     C 3956   1.475   0.637  18.902
  259MPD2    C1 3957   1.555   0.700  19.004
  259MPD2    C2 3958   1.671   0.769  18.974
  259MPD2    C3 3959   1.723   0.778  18.843
  259MPD2    C4 3960   1.652   0.714  18.743
  259MPD2    C5 3961   1.538   0.637  18.779
  259MPD2     H 3962   1.735   0.813  19.050
  259MPD2    H1 3963   1.697   0.685  18.649
  259MPD2    H2 3964   1.399   0.564  18.927
  259MPD2    H3 3965   1.495   0.572  18.703
  259MPD2     N 3966   1.849   0.840  18.825
  259MPD2    H5 3967   1.893   0.867  18.912
  259MPD2    N1 3968   1.504   0.689  19.133
  259MPD2    H7 3969   1.413   0.645  19.143
  260TMC3    C1 3970   2.050   0.895  18.725
  260TMC3    C2 3971   2.108   0.911  18.608
  260TMC3    C3 3972   2.230   0.846  18.576
  260TMC3    C4 3973   2.107   0.819  18.824
  260TMC3    C5 3974   2.225   0.746  18.786
  260TMC3    C6 3975   2.289   0.769  18.669
  260TMC3     C 3976   1.912   0.858  18.714
  260TMC3     O 3977   1.875   0.827  18.601
  260TMC3     H 3978   2.050   0.956  18.529
  260TMC3    H1 3979   2.076   0.836  18.927
  260TMC3    H2 3980   2.374   0.706  18.646
  260TMC3    C7 3981   2.182   0.601  18.787
  260TMC3    C8 3982   2.236   0.795  18.442
  260TMC3    O1 3983   2.207   0.534  18.687
  260TMC3    O2 3984   2.227   0.875  18.346
  261MPD2     C 3985   3.210   4.054  12.620
  261MPD2    C1 3986   3.240   4.161  12.699
  261MPD2    C2 3987   3.257   4.283  12.632
  261MPD2    C3 3988   3.231   4.299  12.495
  261MPD2    C4 3989   3.208   4.187  12.417
  261MPD2    C5 3990   3.200   4.067  12.484
  261MPD2     H 3991   3.277   4.373  12.690
  261MPD2    H1 3992   3.184   4.193  12.312
  261MPD2    H2 3993   3.203   3.959  12.671
  261MPD2    H3 3994   3.179   3.983  12.419
  261MPD2     N 3995   3.206   4.427  12.457
  261MPD2    H5 3996   3.243   4.497  12.520
  261MPD2    N1 3997   3.272   4.158  12.840
  261MPD2    H7 3998   3.308   4.245  12.876
  262TMC3    C1 3999   3.139   4.608  12.337
  262TMC3    C2 4000   3.010   4.648  12.309
  262TMC3    C3 4001   2.973   4.769  12.365
  262TMC3    C4 4002   3.223   4.667  12.426
  262TMC3    C5 4003   3.172   0.002  12.480
  262TMC3    C6 4004   3.046   0.050  12.461
  262TMC3     C 4005   3.160   4.468  12.337
  262TMC3     O 4006   3.136   4.401  12.234
  262TMC3     H 4007   2.941   4.592  12.247
  262TMC3    H1 4008   3.327   4.637  12.429
  262TMC3    H2 4009   3.016   0.149  12.494
  262TMC3    C7 4010   3.275   0.105  12.481
  262TMC3    C8 4011   2.932   0.086  12.266
  262TMC3    O1 4012   3.383   0.087  12.538
  262TMC3    O2 4013   2.991   0.190  12.275
  263MPD2     C 4014   4.160   3.896  12.293
  263MPD2    C1 4015   4.247   3.897  12.187
  263MPD2    C2 4016   4.242   3.996  12.092
  263MPD2    C3 4017   4.154   4.092  12.105
  263MPD2    C4 4018   4.056   4.087  12.203
  263MPD2    C5 4019   4.060   3.992  12.299
  263MPD2     H 4020   4.302   4.012  12.003
  263MPD2    H1 4021   3.979   4.163  12.201
  263MPD2    H2 4022   4.148   3.815  12.365
  263MPD2    H3 4023   3.980   3.982  12.371
  263MPD2     N 4024   4.144   4.172  11.986
  263MPD2    H5 4025   4.217   4.161  11.916
  263MPD2    N1 4026   4.339   3.789  12.180
  263MPD2    H7 4027   4.330   3.723  12.257
  264TMC3    C1 4028   4.065   4.308  11.827
  264TMC3    C2 4029   4.056   4.441  11.823
  264TMC3    C3 4030   4.120   4.505  11.724
  264TMC3    C4 4031   4.139   4.227  11.746
  264TMC3    C5 4032   4.194   4.292  11.638
  264TMC3    C6 4033   4.182   4.428  11.629
  264TMC3     C 4034   4.050   4.262  11.961
  264TMC3     O 4035   3.974   4.322  12.032
  264TMC3     H 4036   3.982   4.497  11.879
  264TMC3    H1 4037   4.116   4.122  11.755
  264TMC3    H2 4038   4.222   4.476  11.541
  264TMC3    C7 4039   4.286   4.227  11.555
  264TMC3    C8 4040   4.183   4.629  11.751
  264TMC3    O1 4041   4.326   4.291  11.459
  264TMC3    O2 4042   4.253   4.676  11.661
  265MPD2     C 4043   1.403   3.989  15.902
  265MPD2    C1 4044   1.462   4.100  15.843
  265MPD2    C2 4045   1.521   4.087  15.718
  265MPD2    C3 4046   1.514   3.971  15.645
  265MPD2    C4 4047   1.454   3.861  15.701
  265MPD2    C5 4048   1.394   3.874  15.830
  265MPD2     H 4049   1.566   4.174  15.671
  265MPD2    H1 4050   1.447   3.767  15.648
  265MPD2    H2 4051   1.365   3.989  16.003
  265MPD2    H3 4052   1.351   3.792  15.886
  265MPD2     N 4053   1.580   3.947  15.526
  265MPD2    H5 4054   1.564   3.859  15.478
  265MPD2    N1 4055   1.465   4.229  15.905
  265MPD2    H7 4056   1.488   4.310  15.847
  266TMC3    C1 4057   1.440   4.402  16.073
  266TMC3    C2 4058   1.491   4.447  16.188
  266TMC3    C3 4059   1.508   4.579  16.213
  266TMC3    C4 4060   1.402   4.492  15.974
  266TMC3    C5 4061   1.417   4.628  16.004
  266TMC3    C6 4062   1.471   4.671  16.117
  266TMC3     C 4063   1.438   4.260  16.043
  266TMC3     O 4064   1.439   4.180  16.139
  266TMC3     H 4065   1.518   4.378  16.267
  266TMC3    H1 4066   1.353   4.463  15.882
  266TMC3    H2 4067   1.495   4.775  16.135
  266TMC3    C7 4068   1.380   4.716  15.900
  266TMC3    C8 4069   1.582   4.617  16.331
  266TMC3    O1 4070   1.364   4.663  15.788
  266TMC3    O2 4071   1.650   4.522  16.373
  267MPD2     C 4072   3.355   1.415  18.447
  267MPD2    C1 4073   3.406   1.518  18.368
  267MPD2    C2 4074   3.335   1.562  18.258
  267MPD2    C3 4075   3.213   1.505  18.237
  267MPD2    C4 4076   3.160   1.404  18.312
  267MPD2    C5 4077   3.234   1.360  18.415
  267MPD2     H 4078   3.367   1.642  18.193
  267MPD2    H1 4079   3.068   1.352  18.286
  267MPD2    H2 4080   3.424   1.375  18.521
  267MPD2    H3 4081   3.195   1.274  18.469
  267MPD2     N 4082   3.133   1.541  18.120
  267MPD2    H5 4083   3.057   1.479  18.095
  267MPD2    N1 4084   3.535   1.567  18.398
  267MPD2    H7 4085   3.577   1.522  18.479
  268TMC3    C1 4086   3.734   1.690  18.372
  268TMC3    C2 4087   3.822   1.724  18.270
  268TMC3    C3 4088   3.956   1.709  18.297
  268TMC3    C4 4089   3.773   1.655  18.498
  268TMC3    C5 4090   3.905   1.661  18.522
  268TMC3    C6 4091   3.998   1.691  18.426
  268TMC3     C 4092   3.602   1.669  18.326
  268TMC3     O 4093   3.575   1.725  18.222
  268TMC3     H 4094   3.797   1.739  18.166
  268TMC3    H1 4095   3.703   1.620  18.574
  268TMC3    H2 4096   4.104   1.683  18.447
  268TMC3    C7 4097   3.955   1.628  18.658
  268TMC3    C8 4098   4.046   1.776  18.199
  268TMC3    O1 4099   4.075   1.622  18.673
  268TMC3    O2 4100   4.127   1.858  18.252
  269MPD2     C 4101   4.070   0.144  15.782
  269MPD2    C1 4102   4.015   0.203  15.890
  269MPD2    C2 4103   4.044   0.337  15.910
  269MPD2    C3 4104   4.110   0.415  15.816
  269MPD2    C4 4105   4.150   0.360  15.699
  269MPD2    C5 4106   4.133   0.216  15.688
  269MPD2     H 4107   4.023   0.374  16.009
  269MPD2    H1 4108   4.207   0.409  15.621
  269MPD2    H2 4109   4.062   0.037  15.772
  269MPD2    H3 4110   4.178   0.168  15.602
  269MPD2     N 4111   4.145   0.548  15.858
  269MPD2    H5 4112   4.101   0.572  15.946
  269MPD2    N1 4113   3.951   0.122  15.988
  269MPD2    H7 4114   3.955   0.023  15.965
  270TMC3    C1 4115   3.851   0.043  16.177
  270TMC3    C2 4116   3.711   0.017  16.177
  270TMC3    C3 4117   3.684   4.672  16.239
  270TMC3    C4 4118   3.954   4.747  16.226
  270TMC3    C5 4119   3.912   4.633  16.284
  270TMC3    C6 4120   3.783   4.598  16.294
  270TMC3     C 4121   3.880   0.161  16.097
  270TMC3     O 4122   3.859   0.274  16.148
  270TMC3     H 4123   3.639   0.084  16.133
  270TMC3    H1 4124   4.061   4.756  16.209
  270TMC3    H2 4125   3.745   4.528  16.367
  270TMC3    C7 4126   3.994   4.516  16.248
  270TMC3    C8 4127   3.595   4.578  16.167
  270TMC3    O1 4128   4.118   4.528  16.246
  270TMC3    O2 4129   3.628   4.460  16.169
  271MPD2     C 4130   3.042   4.576  14.364
  271MPD2    C1 4131   2.969   4.568  14.485
  271MPD2    C2 4132   2.839   4.621  14.494
  271MPD2    C3 4133   2.803   4.702  14.382
  271MPD2    C4 4134   2.883   4.716  14.271
  271MPD2    C5 4135   2.999   4.650  14.255
  271MPD2     H 4136   2.769   4.605  14.575
  271MPD2    H1 4137   2.835   4.769  14.189
  271MPD2    H2 4138   3.128   4.510  14.368
  271MPD2    H3 4139   3.058   4.659  14.165
  271MPD2     N 4140   2.677   4.762  14.375
  271MPD2    H5 4141   2.666   0.042  14.293
  271MPD2    N1 4142   3.017   4.499  14.596
  271MPD2    H7 4143   2.955   4.490  14.676
  272TMC3    C1 4144   3.155   4.342  14.721
  272TMC3    C2 4145   3.274   4.273  14.721
  272TMC3    C3 4146   3.312   4.208  14.836
  272TMC3    C4 4147   3.078   4.348  14.826
  272TMC3    C5 4148   3.131   4.291  14.942
  272TMC3    C6 4149   3.246   4.210  14.958
  272TMC3     C 4150   3.140   4.439  14.611
  272TMC3     O 4151   3.240   4.474  14.553
  272TMC3     H 4152   3.338   4.275  14.633
  272TMC3    H1 4153   2.990   4.410  14.832
  272TMC3    H2 4154   3.270   4.163  15.052
  272TMC3    C7 4155   3.075   4.339  15.060
  272TMC3    C8 4156   3.442   4.137  14.824
  272TMC3    O1 4157   2.960   4.373  15.051
  272TMC3    O2 4158   3.473   4.124  14.707
  273MPD2     C 4159   4.649   2.813  12.067
  273MPD2    C1 4160   4.772   2.847  12.029
  273MPD2    C2 4161   0.018   2.835  11.887
  273MPD2    C3 4162   4.703   2.806  11.798
  273MPD2    C4 4163   4.578   2.781  11.840
  273MPD2    C5 4164   4.549   2.790  11.976
  273MPD2     H 4165   0.120   2.851  11.853
  273MPD2    H1 4166   4.493   2.752  11.779
  273MPD2    H2 4167   4.629   2.815  12.174
  273MPD2    H3 4168   4.451   2.774  12.020
  273MPD2     N 4169   4.739   2.807  11.656
  273MPD2    H5 4170   4.655   2.813  11.599
  273MPD2    N1 4171   0.084   2.902  12.120
  273MPD2    H7 4172   0.050   2.895  12.215
  274TMC3    C1 4173   0.085   2.830  11.464
  274TMC3    C2 4174   4.746   2.862  11.399
  274TMC3    C3 4175   4.743   2.980  11.338
  274TMC3    C4 4176   0.196   2.915  11.448
  274TMC3    C5 4177   0.173   3.043  11.408
  274TMC3    C6 4178   0.066   3.069  11.327
  274TMC3     C 4179   0.081   2.783  11.605
  274TMC3     O 4180   0.188   2.760  11.657
  274TMC3     H 4181   4.655   2.802  11.402
  274TMC3    H1 4182   0.290   2.880  11.489
  274TMC3    H2 4183   0.051   3.171  11.293
  274TMC3    C7 4184   0.145   3.114  11.543
  274TMC3    C8 4185   4.635   3.006  11.244
  274TMC3    O1 4186   0.033   3.167  11.538
  274TMC3    O2 4187   4.518   2.972  11.259
  275MPD2     C 4188   4.691   0.481  14.784
  275MPD2    C1 4189   4.616   0.484  14.900
  275MPD2    C2 4190   4.498   0.423  14.907
  275MPD2    C3 4191   4.437   0.366  14.799
  275MPD2    C4 4192   4.519   0.357  14.689
  275MPD2    C5 4193   4.642   0.414  14.677
  275MPD2     H 4194   4.442   0.435  14.999
  275MPD2    H1 4195   4.492   0.294  14.605
  275MPD2    H2 4196   4.780   0.541  14.774
  275MPD2    H3 4197   4.707   0.414  14.590
  275MPD2     N 4198   4.301   0.324  14.792
  275MPD2    H5 4199   4.269   0.282  14.705
  275MPD2    N1 4200   4.666   0.540  15.022
  275MPD2    H7 4201   4.606   0.540  15.103
  276TMC3    C1 4202   0.031   0.611  15.184
  276TMC3    C2 4203   4.753   0.526  15.270
  276TMC3    C3 4204   0.014   0.512  15.395
  276TMC3    C4 4205   0.131   0.691  15.231
  276TMC3    C5 4206   0.172   0.678  15.361
  276TMC3    C6 4207   0.115   0.585  15.447
  276TMC3     C 4208   4.781   0.610  15.042
  276TMC3     O 4209   0.077   0.659  14.965
  276TMC3     H 4210   4.664   0.468  15.245
  276TMC3    H1 4211   0.187   0.750  15.160
  276TMC3    H2 4212   0.151   0.567  15.547
  276TMC3    C7 4213   0.310   0.718  15.391
  276TMC3    C8 4214   4.732   0.415  15.481
  276TMC3    O1 4215   0.340   0.720  15.508
  276TMC3    O2 4216   4.721   0.442  15.599
  277MPD2     C 4217   1.962   4.661  13.655
  277MPD2    C1 4218   1.824   4.656  13.640
  277MPD2    C2 4219   1.758   4.605  13.749
  277MPD2    C3 4220   1.822   4.544  13.856
  277MPD2    C4 4221   1.960   4.541  13.865
  277MPD2    C5 4222   2.029   4.610  13.763
  277MPD2     H 4223   1.650   4.610  13.751
  277MPD2    H1 4224   2.026   4.489  13.933
  277MPD2    H2 4225   2.020   4.695  13.570
  277MPD2    H3 4226   2.137   4.609  13.760
  277MPD2     N 4227   1.735   4.486  13.949
  277MPD2    H5 4228   1.636   4.496  13.932
  277MPD2    N1 4229   1.756   4.711  13.530
  277MPD2    H7 4230   1.814   4.757  13.461
  278TMC3    C1 4231   1.663   4.373  14.127
  278TMC3    C2 4232   1.653   4.238  14.148
  278TMC3    C3 4233   1.526   4.186  14.160
  278TMC3    C4 4234   1.557   4.457  14.128
  278TMC3    C5 4235   1.431   4.402  14.153
  278TMC3    C6 4236   1.416   4.268  14.169
  278TMC3     C 4237   1.776   4.416  14.057
  278TMC3     O 4238   1.888   4.380  14.089
  278TMC3     H 4239   1.737   4.170  14.156
  278TMC3    H1 4240   1.562   4.565  14.117
  278TMC3    H2 4241   1.320   4.222  14.190
  278TMC3    C7 4242   1.315   4.480  14.116
  278TMC3    C8 4243   1.518   4.041  14.162
  278TMC3    O1 4244   1.337   4.552  14.019
  278TMC3    O2 4245   1.608   3.977  14.205
  279MPD2     C 4246   0.721   3.955  18.333
  279MPD2    C1 4247   0.718   4.090  18.347
  279MPD2    C2 4248   0.777   4.158  18.249
  279MPD2    C3 4249   0.827   4.098  18.136
  279MPD2    C4 4250   0.832   3.963  18.126
  279MPD2    C5 4251   0.784   3.891  18.232
  279MPD2     H 4252   0.776   4.266  18.254
  279MPD2    H1 4253   0.864   3.904  18.041
  279MPD2    H2 4254   0.702   3.895  18.421
  279MPD2    H3 4255   0.785   3.783  18.226
  279MPD2     N 4256   0.872   4.171  18.024
  279MPD2    H5 4257   0.888   4.115  17.941
  279MPD2    N1 4258   0.639   4.141  18.451
  279MPD2    H7 4259   0.618   4.078  18.527
  280TMC3    C1 4260   0.579   4.359  18.367
  280TMC3    C2 4261   0.536   4.321  18.241
  280TMC3    C3 4262   0.534   4.419  18.143
  280TMC3    C4 4263   0.600   4.491  18.395
  280TMC3    C5 4264   0.584   4.583  18.295
  280TMC3    C6 4265   0.556   4.551  18.170
  280TMC3     C 4266   0.584   4.262  18.471
  280TMC3     O 4267   0.519   4.287  18.572
  280TMC3     H 4268   0.504   4.219  18.224
  280TMC3    H1 4269   0.635   4.507  18.497
  280TMC3    H2 4270   0.561   4.622  18.088
  280TMC3    C7 4271   0.551   4.713  18.345
  280TMC3    C8 4272   0.532   4.381  18.001
  280TMC3    O1 4273   0.614   4.750  18.444
  280TMC3    O2 4274   0.544   4.465  17.913
  281TMC3    C1 4275   4.591   4.601  13.874
  281TMC3    C2 4276   4.643   4.690  13.783
  281TMC3    C3 4277   4.696   4.641  13.658
  281TMC3    C4 4278   4.599   4.465  13.851
  281TMC3    C5 4279   4.647   4.418  13.727
  281TMC3    C6 4280   4.690   4.508  13.625
  281TMC3     C 4281   4.460   4.638  13.932
  281TMC3     O 4282   4.406   4.544  13.989
  281TMC3     H 4283   4.690   0.001  13.815
  281TMC3    H1 4284   4.585   4.385  13.923
  281TMC3    H2 4285   4.733   4.469  13.533
  281TMC3    C7 4286   4.551   4.326  13.664
  281TMC3    C8 4287   0.018   4.710  13.587
  281TMC3    O1 4288   4.578   4.267  13.556
  281TMC3    O2 4289   0.111   4.635  13.556
  282MPD2     C 4290   1.742   1.192  15.354
  282MPD2    C1 4291   1.615   1.248  15.377
  282MPD2    C2 4292   1.531   1.290  15.271
  282MPD2    C3 4293   1.567   1.252  15.138
  282MPD2    C4 4294   1.688   1.188  15.120
  282MPD2    C5 4295   1.770   1.159  15.226
  282MPD2     H 4296   1.428   1.318  15.290
  282MPD2    H1 4297   1.726   1.144  15.028
  282MPD2    H2 4298   1.822   1.171  15.425
  282MPD2    H3 4299   1.862   1.107  15.200
  282MPD2     N 4300   1.482   1.300  15.034
  282MPD2    H5 4301   1.395   1.334  15.074
  282MPD2    N1 4302   1.561   1.259  15.505
  282MPD2    H7 4303   1.471   1.305  15.517
  283TMC3    C1 4304   1.531   1.234  15.737
  283TMC3    C2 4305   1.492   1.361  15.746
  283TMC3    C3 4306   1.457   1.396  15.881
  283TMC3    C4 4307   1.515   1.139  15.829
  283TMC3    C5 4308   1.480   1.175  15.953
  283TMC3    C6 4309   1.451   1.307  15.983
  283TMC3     C 4310   1.609   1.198  15.617
  283TMC3     O 4311   1.675   1.092  15.626
  283TMC3     H 4312   1.520   1.430  15.667
  283TMC3    H1 4313   1.553   1.040  15.802
  283TMC3    H2 4314   1.430   1.338  16.085
  283TMC3    C7 4315   1.410   1.087  16.048
  283TMC3    C8 4316   1.485   1.534  15.927
  283TMC3    O1 4317   1.325   1.139  16.123
  283TMC3    O2 4318   1.519   1.545  16.045
  284MPD2     C 4319   4.098   0.904  12.270
  284MPD2    C1 4320   4.215   0.868  12.202
  284MPD2    C2 4321   4.292   0.761  12.256
  284MPD2    C3 4322   4.259   0.696  12.370
  284MPD2    C4 4323   4.156   0.740  12.444
  284MPD2    C5 4324   4.078   0.843  12.396
  284MPD2     H 4325   4.383   0.738  12.203
  284MPD2    H1 4326   4.131   0.702  12.543
  284MPD2    H2 4327   4.033   0.984  12.237
  284MPD2    H3 4328   3.992   0.883  12.448
  284MPD2     N 4329   4.327   0.583  12.425
  284MPD2    H5 4330   4.292   0.540  12.509
  284MPD2    N1 4331   4.262   0.925  12.082
  284MPD2    H7 4332   4.355   0.899  12.050
  285TMC3    C1 4333   4.300   1.080  11.922
  285TMC3    C2 4334   4.397   0.987  11.892
  285TMC3    C3 4335   4.522   1.031  11.864
  285TMC3    C4 4336   4.324   1.212  11.942
  285TMC3    C5 4337   4.457   1.245  11.932
  285TMC3    C6 4338   4.556   1.165  11.881
  285TMC3     C 4339   4.210   1.034  12.022
  285TMC3     O 4340   4.105   1.092  12.029
  285TMC3     H 4341   4.355   0.891  11.863
  285TMC3    H1 4342   4.253   1.284  11.982
  285TMC3    H2 4343   4.645   1.216  11.847
  285TMC3    C7 4344   4.510   1.367  12.003
  285TMC3    C8 4345   4.613   0.935  11.807
  285TMC3    O1 4346   4.440   1.469  12.020
  285TMC3    O2 4347   4.568   0.831  11.755
  286MPD2     C 4348   4.415   3.996  19.657
  286MPD2    C1 4349   4.413   4.018  19.519
  286MPD2    C2 4350   4.508   3.951  19.452
  286MPD2    C3 4351   4.599   3.863  19.505
  286MPD2    C4 4352   4.593   3.840  19.638
  286MPD2    C5 4353   4.500   3.903  19.711
  286MPD2     H 4354   4.505   3.976  19.346
  286MPD2    H1 4355   4.655   3.763  19.682
  286MPD2    H2 4356   4.348   4.042  19.729
  286MPD2    H3 4357   4.506   3.890  19.819
  286MPD2     N 4358   4.701   3.793  19.433
  286MPD2    H5 4359   4.758   3.729  19.485
  286MPD2    N1 4360   4.325   4.116  19.467
  286MPD2    H7 4361   4.328   4.130  19.366
  287TMC3    C1 4362   0.043   3.711  19.252
  287TMC3    C2 4363   0.033   3.660  19.128
  287TMC3    C3 4364   0.128   3.569  19.095
  287TMC3    C4 4365   0.149   3.693  19.336
  287TMC3    C5 4366   0.244   3.602  19.288
  287TMC3    C6 4367   0.228   3.527  19.175
  287TMC3     C 4368   4.713   3.801  19.299
  287TMC3     O 4369   4.654   3.853  19.206
  287TMC3     H 4370   4.730   3.686  19.065
  287TMC3    H1 4371   0.159   3.746  19.430
  287TMC3    H2 4372   0.294   3.449  19.140
  287TMC3    C7 4373   0.371   3.617  19.355
  287TMC3    C8 4374   0.097   3.504  18.974
  287TMC3    O1 4375   0.372   3.680  19.456
  287TMC3    O2 4376   4.759   3.489  18.941
  288TMC3    C1 4377   1.451   3.945  14.560
  288TMC3    C2 4378   1.359   3.904  14.657
  288TMC3    C3 4379   1.272   3.996  14.706
  288TMC3    C4 4380   1.463   4.067  14.511
  288TMC3    C5 4381   1.366   4.153  14.561
  288TMC3    C6 4382   1.270   4.121  14.655
  288TMC3     C 4383   1.550   3.843  14.530
  288TMC3     O 4384   1.516   3.725  14.533
  288TMC3     H 4385   1.363   3.803  14.696
  288TMC3    H1 4386   1.534   4.099  14.435
  288TMC3    H2 4387   1.196   4.200  14.669
  288TMC3    C7 4388   1.370   4.291  14.527
  288TMC3    C8 4389   1.223   3.976  14.841
  288TMC3    O1 4390   1.260   4.340  14.493
  288TMC3    O2 4391   1.227   4.083  14.905
  289MPD2     C 4392   1.686   3.165  14.454
  289MPD2    C1 4393   1.635   3.282  14.409
  289MPD2    C2 4394   1.502   3.280  14.368
  289MPD2    C3 4395   1.423   3.165  14.380
  289MPD2    C4 4396   1.482   3.047  14.420
  289MPD2    C5 4397   1.613   3.047  14.469
  289MPD2     H 4398   1.461   3.370  14.323
  289MPD2    H1 4399   1.421   2.959  14.437
  289MPD2    H2 4400   1.791   3.159  14.479
  289MPD2    H3 4401   1.653   2.956  14.512
  289MPD2     N 4402   1.282   3.161  14.338
  289MPD2    H5 4403   1.240   3.068  14.337
  289MPD2    N1 4404   1.724   3.390  14.393
  289MPD2    H7 4405   1.800   3.376  14.458
  290TMC3    C1 4406   1.065   3.235  14.280
  290TMC3    C2 4407   0.974   3.330  14.268
  290TMC3    C3 4408   0.847   3.300  14.236
  290TMC3    C4 4409   1.023   3.103  14.288
  290TMC3    C5 4410   0.890   3.076  14.265
  290TMC3    C6 4411   0.795   3.171  14.236
  290TMC3     C 4412   1.201   3.274  14.318
  290TMC3     O 4413   1.231   3.391  14.325
  290TMC3     H 4414   1.012   3.429  14.243
  290TMC3    H1 4415   1.085   3.014  14.289
  290TMC3    H2 4416   0.695   3.150  14.200
  290TMC3    C7 4417   0.839   2.936  14.280
  290TMC3    C8 4418   0.748   3.405  14.233
  290TMC3    O1 4419   0.722   2.924  14.244
  290TMC3    O2 4420   0.633   3.380  14.205
  291MPD2     C 4421   0.551   3.082  18.334
  291MPD2    C1 4422   0.672   3.017  18.357
  291MPD2    C2 4423   0.782   3.095  18.383
  291MPD2    C3 4424   0.770   3.235  18.371
  291MPD2    C4 4425   0.651   3.295  18.361
  291MPD2    C5 4426   0.539   3.220  18.353
  291MPD2     H 4427   0.880   3.052  18.398
  291MPD2    H1 4428   0.637   3.403  18.366
  291MPD2    H2 4429   0.464   3.018  18.327
  291MPD2    H3 4430   0.444   3.272  18.341
  291MPD2     N 4431   0.882   3.318  18.369
  291MPD2    H5 4432   0.862   3.413  18.399
  291MPD2    N1 4433   0.686   2.872  18.350
  291MPD2    H7 4434   0.774   2.829  18.378
  292TMC3    C1 4435   0.626   2.648  18.293
  292TMC3    C2 4436   0.676   2.598  18.411
  292TMC3    C3 4437   0.668   2.466  18.443
  292TMC3    C4 4438   0.562   2.566  18.207
  292TMC3    C5 4439   0.567   2.430  18.229
  292TMC3    C6 4440   0.617   2.381  18.350
  292TMC3     C 4441   0.594   2.793  18.289
  292TMC3     O 4442   0.502   2.832  18.222
  292TMC3     H 4443   0.700   2.671  18.487
  292TMC3    H1 4444   0.529   2.601  18.110
  292TMC3    H2 4445   0.630   2.275  18.369
  292TMC3    C7 4446   0.570   2.336  18.121
  292TMC3    C8 4447   0.709   2.429  18.573
  292TMC3    O1 4448   0.637   2.236  18.151
  292TMC3    O2 4449   0.775   2.506  18.640
  293MPD2     C 4450   2.663   4.508  12.891
  293MPD2    C1 4451   2.580   4.463  12.987
  293MPD2    C2 4452   2.607   4.502  13.119
  293MPD2    C3 4453   2.718   4.579  13.147
  293MPD2    C4 4454   2.806   4.613  13.051
  293MPD2    C5 4455   2.782   4.579  12.921
  293MPD2     H 4456   2.527   4.475  13.188
  293MPD2    H1 4457   2.911   4.635  13.067
  293MPD2    H2 4458   2.626   4.485  12.792
  293MPD2    H3 4459   2.860   4.600  12.848
  293MPD2     N 4460   2.747   4.607  13.282
  293MPD2    H5 4461   2.693   4.558  13.353
  293MPD2    N1 4462   2.465   4.393  12.950
  293MPD2    H7 4463   2.452   4.366  12.853
  294TMC3    C1 4464   2.256   4.290  12.948
  294TMC3    C2 4465   2.175   4.206  13.022
  294TMC3    C3 4466   2.074   4.152  12.945
  294TMC3    C4 4467   2.237   4.328  12.821
  294TMC3    C5 4468   2.136   4.265  12.755
  294TMC3    C6 4469   2.050   4.181  12.816
  294TMC3     C 4470   2.358   4.353  13.025
  294TMC3     O 4471   2.362   4.344  13.148
  294TMC3     H 4472   2.201   4.181  13.124
  294TMC3    H1 4473   2.289   4.412  12.775
  294TMC3    H2 4474   1.963   4.144  12.762
  294TMC3    C7 4475   2.110   4.289  12.611
  294TMC3    C8 4476   2.024   4.023  12.996
  294TMC3    O1 4477   2.016   4.222  12.564
  294TMC3    O2 4478   2.006   4.005  13.115
  295MPD2     C 4479   3.539   3.052  18.488
  295MPD2    C1 4480   3.416   3.087  18.437
  295MPD2    C2 4481   3.322   3.119  18.532
  295MPD2    C3 4482   3.339   3.104  18.667
  295MPD2    C4 4483   3.463   3.074  18.709
  295MPD2    C5 4484   3.561   3.049  18.623
  295MPD2     H 4485   3.234   3.148  18.476
  295MPD2    H1 4486   3.486   3.076  18.815
  295MPD2    H2 4487   3.623   3.047  18.419
  295MPD2    H3 4488   3.664   3.033  18.655
  295MPD2     N 4489   3.232   3.137  18.762
  295MPD2    H5 4490   3.268   3.133  18.857
  295MPD2    N1 4491   3.398   3.124  18.298
  295MPD2    H7 4492   3.321   3.186  18.275
  296TMC3    C1 4493   3.012   3.183  18.844
  296TMC3    C2 4494   3.075   3.246  18.951
  296TMC3    C3 4495   2.993   3.283  19.054
  296TMC3    C4 4496   2.877   3.147  18.843
  296TMC3    C5 4497   2.811   3.176  18.964
  296TMC3    C6 4498   2.861   3.249  19.066
  296TMC3     C 4499   3.098   3.137  18.734
  296TMC3     O 4500   3.038   3.095  18.636
  296TMC3     H 4501   3.179   3.274  18.957
  296TMC3    H1 4502   2.827   3.086  18.769
  296TMC3    H2 4503   2.821   3.266  19.165
  296TMC3    C7 4504   2.689   3.098  18.986
  296TMC3    C8 4505   3.063   3.363  19.163
  296TMC3    O1 4506   2.610   3.079  18.890
  296TMC3    O2 4507   3.144   3.300  19.231
  297MPD2     C 4508   0.474   0.026  16.650
  297MPD2    C1 4509   0.462   0.151  16.589
  297MPD2    C2 4510   0.577   0.226  16.574
  297MPD2    C3 4511   0.697   0.182  16.625
  297MPD2    C4 4512   0.709   0.057  16.678
  297MPD2    C5 4513   0.590   4.757  16.686
  297MPD2     H 4514   0.575   0.323  16.526
  297MPD2    H1 4515   0.803   0.021  16.717
  297MPD2    H2 4516   0.385   4.745  16.650
  297MPD2    H3 4517   0.592   4.658  16.729
  297MPD2     N 4518   0.805   0.277  16.624
  297MPD2    H5 4519   0.775   0.369  16.593
  297MPD2    N1 4520   0.344   0.206  16.539
  297MPD2    H7 4521   0.353   0.300  16.501
  298TMC3    C1 4522   0.117   0.230  16.481
  298TMC3    C2 4523   0.140   0.246  16.347
  298TMC3    C3 4524   0.034   0.285  16.276
  298TMC3    C4 4525   4.774   0.264  16.532
  298TMC3    C5 4526   4.672   0.309  16.455
  298TMC3    C6 4527   4.688   0.321  16.322
  298TMC3     C 4528   0.216   0.161  16.560
  298TMC3     O 4529   0.171   0.072  16.636
  298TMC3     H 4530   0.241   0.234  16.309
  298TMC3    H1 4531   4.761   0.248  16.639
  298TMC3    H2 4532   4.600   0.329  16.258
  298TMC3    C7 4533   4.560   0.382  16.518
  298TMC3    C8 4534   0.029   0.260  16.127
  298TMC3    O1 4535   4.567   0.379  16.638
  298TMC3    O2 4536   4.710   0.291  16.065
  299MPD2     C 4537   0.733   0.026  11.269
  299MPD2    C1 4538   0.793   0.104  11.175
  299MPD2    C2 4539   0.749   0.098  11.042
  299MPD2    C3 4540   0.636   0.017  11.013
  299MPD2    C4 4541   0.586   4.713  11.110
  299MPD2    C5 4542   0.625   4.726  11.239
  299MPD2     H 4543   0.802   0.158  10.969
  299MPD2    H1 4544   0.512   4.638  11.084
  299MPD2    H2 4545   0.773   0.033  11.369
  299MPD2    H3 4546   0.579   4.667  11.317
  299MPD2     N 4547   0.581   0.005  10.885
  299MPD2    H5 4548   0.494   4.734  10.886
  299MPD2    N1 4549   0.907   0.180  11.218
  299MPD2    H7 4550   0.946   0.165  11.310
  300TMC3    C1 4551   0.517   0.067  10.669
  300TMC3    C2 4552   0.480   0.197  10.625
  300TMC3    C3 4553   0.344   0.226  10.647
  300TMC3    C4 4554   0.426   4.750  10.699
  300TMC3    C5 4555   0.297   0.002  10.709
  300TMC3    C6 4556   0.251   0.127  10.687
  300TMC3     C 4557   0.629   0.071  10.766
  300TMC3     O 4558   0.720   0.146  10.755
  300TMC3     H 4559   0.551   0.279  10.622
  300TMC3    H1 4560   0.451   4.648  10.727
  300TMC3    H2 4561   0.145   0.145  10.705
  300TMC3    C7 4562   0.231   4.705  10.812
  300TMC3    C8 4563   0.315   0.370  10.661
  300TMC3    O1 4564   0.203   4.592  10.771
  300TMC3    O2 4565   0.414   0.445  10.669
  301MPD2     C 4566   3.308   1.470  19.828
  301MPD2    C1 4567   3.208   1.458  19.738
  301MPD2    C2 4568   3.218   1.352  19.647
  301MPD2    C3 4569   3.313   1.245  19.657
  301MPD2    C4 4570   3.404   1.265  19.751
  301MPD2    C5 4571   3.405   1.375  19.835
  301MPD2     H 4572   3.150   1.355  19.562
  301MPD2    H1 4573   3.483   1.193  19.772
  301MPD2    H2 4574   3.298   1.543  19.908
  301MPD2    H3 4575   3.474   1.377  19.919
  301MPD2     N 4576   3.315   1.131  19.576
  301MPD2    H5 4577   3.406   1.086  19.576
  301MPD2    N1 4578   3.103   1.543  19.726
  301MPD2    H7 4579   3.027   1.511  19.666
  302TMC3    C1 4580   3.246   0.970  19.427
  302TMC3    C2 4581   3.348   0.880  19.468
  302TMC3    C3 4582   3.394   0.791  19.373
  302TMC3    C4 4583   3.190   0.959  19.303
  302TMC3    C5 4584   3.231   0.860  19.215
  302TMC3    C6 4585   3.334   0.772  19.251
  302TMC3     C 4586   3.211   1.084  19.502
  302TMC3     O 4587   3.110   1.145  19.462
  302TMC3     H 4588   3.390   0.900  19.566
  302TMC3    H1 4589   3.117   1.032  19.267
  302TMC3    H2 4590   3.367   0.688  19.192
  302TMC3    C7 4591   3.148   0.835  19.099
  302TMC3    C8 4592   3.510   0.711  19.395
  302TMC3    O1 4593   3.196   0.769  19.007
  302TMC3    O2 4594   3.583   0.685  19.299
  303MPD2     C 4595   3.445   4.469  10.924
  303MPD2    C1 4596   3.356   4.377  10.884
  303MPD2    C2 4597   3.356   4.335  10.752
  303MPD2    C3 4598   3.449   4.379  10.666
  303MPD2    C4 4599   3.539   4.472  10.711
  303MPD2    C5 4600   3.543   4.520  10.839
  303MPD2     H 4601   3.284   4.255  10.738
  303MPD2    H1 4602   3.614   4.516  10.646
  303MPD2    H2 4603   3.442   4.503  11.027
  303MPD2    H3 4604   3.613   4.595  10.875
  303MPD2     N 4605   3.461   4.335  10.533
  303MPD2    H5 4606   3.545   4.370  10.487
  303MPD2    N1 4607   3.265   4.323  10.981
  303MPD2    H7 4608   3.280   4.366  11.072
  304TMC3    C1 4609   3.112   4.174  11.101
  304TMC3    C2 4610   2.983   4.121  11.099
  304TMC3    C3 4611   2.944   4.050  11.206
  304TMC3    C4 4612   3.201   4.151  11.203
  304TMC3    C5 4613   3.160   4.071  11.306
  304TMC3    C6 4614   3.026   4.043  11.318
  304TMC3     C 4615   3.171   4.221  10.974
  304TMC3     O 4616   3.113   4.178  10.875
  304TMC3     H 4617   2.926   4.122  11.007
  304TMC3    H1 4618   3.305   4.181  11.197
  304TMC3    H2 4619   2.990   3.979  11.398
  304TMC3    C7 4620   3.226   3.949  11.291
  304TMC3    C8 4621   2.877   3.921  11.167
  304TMC3    O1 4622   3.285   3.931  11.187
  304TMC3    O2 4623   2.909   3.889  11.053
  305MPD2     C 4624   1.565   1.764  14.320
  305MPD2    C1 4625   1.558   1.632  14.349
  305MPD2    C2 4626   1.538   1.547  14.245
  305MPD2    C3 4627   1.521   1.590  14.112
  305MPD2    C4 4628   1.520   1.726  14.085
  305MPD2    C5 4629   1.547   1.806  14.189
  305MPD2     H 4630   1.544   1.440  14.264
  305MPD2    H1 4631   1.503   1.765  13.986
  305MPD2    H2 4632   1.579   1.841  14.395
  305MPD2    H3 4633   1.542   1.912  14.166
  305MPD2     N 4634   1.503   1.504  13.998
  305MPD2    H5 4635   1.503   1.553  13.910
  305MPD2    N1 4636   1.578   1.599  14.486
  305MPD2    H7 4637   1.593   1.673  14.554
  306TMC3    C1 4638   1.634   1.451  14.663
  306TMC3    C2 4639   1.729   1.360  14.684
  306TMC3    C3 4640   1.808   1.367  14.796
  306TMC3    C4 4641   1.618   1.550  14.757
  306TMC3    C5 4642   1.693   1.556  14.868
  306TMC3    C6 4643   1.789   1.460  14.895
  306TMC3     C 4644   1.575   1.468  14.533
  306TMC3     O 4645   1.537   1.363  14.479
  306TMC3     H 4646   1.738   1.274  14.619
  306TMC3    H1 4647   1.545   1.630  14.750
  306TMC3    H2 4648   1.842   1.457  14.990
  306TMC3    C7 4649   1.643   1.643  14.973
  306TMC3    C8 4650   1.883   1.242  14.823
  306TMC3    O1 4651   1.521   1.656  14.978
  306TMC3    O2 4652   1.848   1.143  14.762
  307MPD2     C 4653   3.909   4.185  18.226
  307MPD2    C1 4654   4.010   4.279  18.244
  307MPD2    C2 4655   4.039   4.333  18.365
  307MPD2    C3 4656   3.966   4.290  18.480
  307MPD2    C4 4657   3.868   4.191  18.458
  307MPD2    C5 4658   3.838   4.148  18.335
  307MPD2     H 4659   4.121   4.403  18.373
  307MPD2    H1 4660   3.813   4.146  18.540
  307MPD2    H2 4661   3.882   4.155  18.125
  307MPD2    H3 4662   3.747   4.089  18.331
  307MPD2     N 4663   4.010   4.341  18.608
  307MPD2    H5 4664   4.079   4.415  18.598
  307MPD2    N1 4665   4.085   4.330  18.137
  307MPD2    H7 4666   4.136   4.417  18.147
  308TMC3    C1 4667   3.994   4.267  19.057
  308TMC3    C2 4668   3.985   4.396  19.105
  308TMC3    C3 4669   4.011   4.501  19.022
  308TMC3    C4 4670   4.031   4.246  18.925
  308TMC3    C5 4671   4.041   4.351  18.837
  308TMC3    C6 4672   4.033   4.483  18.890
  308TMC3     C 4673   3.870   4.204  19.075
  308TMC3     O 4674   3.859   4.084  19.069
  308TMC3     H 4675   3.962   4.415  19.209
  308TMC3    H1 4676   4.026   4.141  18.899
  308TMC3    H2 4677   4.038   4.561  18.815
  308TMC3    C7 4678   3.957   4.314  18.726
  308TMC3    C8 4679   3.920   4.613  19.065
  308TMC3    O1 4680   3.863   4.238  18.754
  308TMC3    O2 4681   3.813   4.581  19.124
  309MPD2     C 4682   3.206   4.567  17.669
  309MPD2    C1 4683   3.166   4.677  17.591
  309MPD2    C2 4684   3.090   4.776  17.648
  309MPD2    C3 4685   3.045   4.770  17.778
  309MPD2    C4 4686   3.101   4.672  17.860
  309MPD2    C5 4687   3.173   4.567  17.800
  309MPD2     H 4688   3.058   0.074  17.580
  309MPD2    H1 4689   3.077   4.663  17.966
  309MPD2    H2 4690   3.263   4.485  17.628
  309MPD2    H3 4691   3.202   4.482  17.860
  309MPD2     N 4692   2.957   0.083  17.835
  309MPD2    H5 4693   2.946   0.072  17.935
  309MPD2    N1 4694   3.212   4.694  17.459
  309MPD2    H7 4695   3.189   0.002  17.417
  310TMC3    C1 4696   3.324   4.636  17.244
  310TMC3    C2 4697   3.242   4.721  17.175
  310TMC3    C3 4698   3.283   4.744  17.047
  310TMC3    C4 4699   3.427   4.564  17.187
  310TMC3    C5 4700   3.461   4.595  17.056
  310TMC3    C6 4701   3.393   4.686  16.988
  310TMC3     C 4702   3.296   4.608  17.387
  310TMC3     O 4703   3.338   4.500  17.430
  310TMC3     H 4704   3.166   0.007  17.213
  310TMC3    H1 4705   3.507   4.519  17.246
  310TMC3    H2 4706   3.401   4.690  16.880
  310TMC3    C7 4707   3.591   4.544  17.009
  310TMC3    C8 4708   3.216   0.061  16.967
  310TMC3    O1 4709   3.633   4.432  17.023
  310TMC3    O2 4710   3.097   0.091  16.978
  311MPD2     C 4711   0.356   1.295  13.029
  311MPD2    C1 4712   0.370   1.363  13.149
  311MPD2    C2 4713   0.271   1.345  13.243
  311MPD2    C3 4714   0.169   1.261  13.216
  311MPD2    C4 4715   0.160   1.192  13.097
  311MPD2    C5 4716   0.250   1.211  13.006
  311MPD2     H 4717   0.277   1.395  13.339
  311MPD2    H1 4718   0.087   1.116  13.073
  311MPD2    H2 4719   0.422   1.297  12.944
  311MPD2    H3 4720   0.238   1.153  12.916
  311MPD2     N 4721   0.078   1.244  13.326
  311MPD2    H5 4722   0.091   1.307  13.406
  311MPD2    N1 4723   0.482   1.447  13.178
  311MPD2    H7 4724   0.481   1.500  13.265
  312TMC3    C1 4725   4.668   1.159  13.438
  312TMC3    C2 4726   4.536   1.123  13.407
  312TMC3    C3 4727   4.436   1.210  13.436
  312TMC3    C4 4728   4.693   1.267  13.516
  312TMC3    C5 4729   4.586   1.339  13.558
  312TMC3    C6 4730   4.454   1.317  13.519
  312TMC3     C 4731   4.762   1.141  13.332
  312TMC3     O 4732   4.740   1.049  13.250
  312TMC3     H 4733   4.519   1.038  13.342
  312TMC3    H1 4734   0.011   1.297  13.549
  312TMC3    H2 4735   4.373   1.371  13.565
  312TMC3    C7 4736   4.609   1.464  13.622
  312TMC3    C8 4737   4.307   1.198  13.365
  312TMC3    O1 4738   4.547   1.568  13.599
  312TMC3    O2 4739   4.282   1.079  13.346
  313MPD2     C 4740   4.271   0.453  11.709
  313MPD2    C1 4741   4.314   0.538  11.607
  313MPD2    C2 4742   4.395   0.482  11.514
  313MPD2    C3 4743   4.442   0.352  11.521
  313MPD2    C4 4744   4.391   0.269  11.622
  313MPD2    C5 4745   4.309   0.322  11.719
  313MPD2     H 4746   4.425   0.547  11.433
  313MPD2    H1 4747   4.415   0.165  11.640
  313MPD2    H2 4748   4.199   0.485  11.783
  313MPD2    H3 4749   4.260   0.262  11.794
  313MPD2     N 4750   4.534   0.306  11.423
  313MPD2    H5 4751   4.550   0.370  11.346
  313MPD2    N1 4752   4.270   0.667  11.592
  313MPD2    H7 4753   4.334   0.734  11.552
  314TMC3    C1 4754   4.137   0.858  11.618
  314TMC3    C2 4755   4.245   0.934  11.591
  314TMC3    C3 4756   4.228   1.058  11.531
  314TMC3    C4 4757   4.009   0.908  11.600
  314TMC3    C5 4758   3.992   1.030  11.544
  314TMC3    C6 4759   4.102   1.109  11.518
  314TMC3     C 4760   4.155   0.718  11.646
  314TMC3     O 4761   4.060   0.658  11.695
  314TMC3     H 4762   4.342   0.896  11.621
  314TMC3    H1 4763   3.931   0.835  11.613
  314TMC3    H2 4764   4.081   1.213  11.497
  314TMC3    C7 4765   3.904   1.030  11.431
  314TMC3    C8 4766   4.341   1.148  11.537
  314TMC3    O1 4767   3.796   0.972  11.443
  314TMC3    O2 4768   4.314   1.263  11.554
  315MPD2     C 4769   4.613   4.526  17.880
  315MPD2    C1 4770   4.641   4.591  17.999
  315MPD2    C2 4771   4.647   4.726  18.007
  315MPD2    C3 4772   4.619   0.023  17.897
  315MPD2    C4 4773   4.596   4.749  17.776
  315MPD2    C5 4774   4.591   4.610  17.773
  315MPD2     H 4775   4.692   4.777  18.091
  315MPD2    H1 4776   4.578   0.019  17.682
  315MPD2    H2 4777   4.621   4.419  17.870
  315MPD2    H3 4778   4.567   4.563  17.679
  315MPD2     N 4779   4.635   0.164  17.912
  315MPD2    H5 4780   4.674   0.189  18.002
  315MPD2    N1 4781   4.669   4.525  18.124
  315MPD2    H7 4782   4.695   4.574  18.209
  316TMC3    C1 4783   4.685   0.378  17.842
  316TMC3    C2 4784   0.015   0.362  17.915
  316TMC3    C3 4785   0.076   0.483  17.940
  316TMC3    C4 4786   4.658   0.488  17.768
  316TMC3    C5 4787   4.727   0.602  17.795
  316TMC3    C6 4788   0.045   0.602  17.886
  316TMC3     C 4789   4.617   0.259  17.812
  316TMC3     O 4790   4.572   0.241  17.702
  316TMC3     H 4791   0.044   0.271  17.966
  316TMC3    H1 4792   4.576   0.490  17.697
  316TMC3    H2 4793   0.087   0.699  17.911
  316TMC3    C7 4794   4.709   0.728  17.724
  316TMC3    C8 4795   0.150   0.478  18.060
  316TMC3    O1 4796   4.750   0.825  17.789
  316TMC3    O2 4797   0.134   0.556  18.158
  317MPD2     C 4798   1.424   3.418  12.964
  317MPD2    C1 4799   1.464   3.297  12.915
  317MPD2    C2 4800   1.535   3.219  13.010
  317MPD2    C3 4801   1.585   3.269  13.124
  317MPD2    C4 4802   1.564   3.401  13.160
  317MPD2    C5 4803   1.484   3.471  13.075
  317MPD2     H 4804   1.537   3.113  12.989
  317MPD2    H1 4805   1.601   3.450  13.249
  317MPD2    H2 4806   1.361   3.486  12.908
  317MPD2    H3 4807   1.457   3.575  13.087
  317MPD2     N 4808   1.659   3.181  13.211
  317MPD2    H5 4809   1.664   3.083  13.187
  317MPD2    N1 4810   1.414   3.231  12.801
  317MPD2    H7 4811   1.463   3.143  12.793
  318TMC3    C1 4812   1.780   3.106  13.396
  318TMC3    C2 4813   1.675   3.019  13.432
  318TMC3    C3 4814   1.707   2.908  13.505
  318TMC3    C4 4815   1.911   3.096  13.438
  318TMC3    C5 4816   1.937   2.981  13.510
  318TMC3    C6 4817   1.839   2.886  13.538
  318TMC3     C 4818   1.750   3.221  13.312
  318TMC3     O 4819   1.819   3.321  13.312
  318TMC3     H 4820   1.573   3.040  13.402
  318TMC3    H1 4821   1.992   3.162  13.409
  318TMC3    H2 4822   1.863   2.790  13.582
  318TMC3    C7 4823   2.065   2.984  13.568
  318TMC3    C8 4824   1.637   2.785  13.475
  318TMC3    O1 4825   2.126   3.088  13.556
  318TMC3    O2 4826   1.702   2.681  13.456
  319MPD2     C 4827   2.666   4.336  16.732
  319MPD2    C1 4828   2.556   4.287  16.807
  319MPD2    C2 4829   2.490   4.175  16.757
  319MPD2    C3 4830   2.508   4.127  16.629
  319MPD2    C4 4831   2.609   4.192  16.558
  319MPD2    C5 4832   2.690   4.285  16.605
  319MPD2     H 4833   2.422   4.117  16.819
  319MPD2    H1 4834   2.624   4.165  16.454
  319MPD2    H2 4835   2.733   4.411  16.774
  319MPD2    H3 4836   2.781   4.318  16.555
  319MPD2     N 4837   2.427   4.034  16.562
  319MPD2    H5 4838   2.452   4.015  16.465
  319MPD2    N1 4839   2.528   4.334  16.937
  319MPD2    H7 4840   2.465   4.284  16.998
  320TMC3    C1 4841   2.221   3.928  16.514
  320TMC3    C2 4842   2.182   4.015  16.413
  320TMC3    C3 4843   2.072   3.977  16.338
  320TMC3    C4 4844   2.152   3.816  16.542
  320TMC3    C5 4845   2.031   3.789  16.481
  320TMC3    C6 4846   1.990   3.872  16.379
  320TMC3     C 4847   2.316   3.975  16.615
  320TMC3     O 4848   2.291   3.941  16.730
  320TMC3     H 4849   2.249   4.094  16.383
  320TMC3    H1 4850   2.185   3.752  16.624
  320TMC3    H2 4851   1.892   3.865  16.335
  320TMC3    C7 4852   1.995   3.656  16.447
  320TMC3    C8 4853   2.012   4.088  16.267
  320TMC3    O1 4854   1.959   3.634  16.336
  320TMC3    O2 4855   2.067   4.192  16.295
  321TMC3    C1 4856   2.535   4.459  17.140
  321TMC3    C2 4857   2.451   4.372  17.197
  321TMC3    C3 4858   2.389   4.405  17.312
  321TMC3    C4 4859   2.574   4.576  17.205
  321TMC3    C5 4860   2.507   4.609  17.320
  321TMC3    C6 4861   2.407   4.528  17.366
  321TMC3     C 4862   2.581   4.445  16.998
  321TMC3     O 4863   2.651   4.538  16.952
  321TMC3     H 4864   2.442   4.271  17.158
  321TMC3    H1 4865   2.655   4.641  17.177
  321TMC3    H2 4866   2.344   4.555  17.450
  321TMC3    C7 4867   2.603   4.624  17.427
  321TMC3    C8 4868   2.385   4.307  17.422
  321TMC3    O1 4869   2.702   4.550  17.410
  321TMC3    O2 4870   2.379   4.351  17.537
  322MPD2     C 4871   1.133   0.911  13.957
  322MPD2    C1 4872   1.209   0.844  14.057
  322MPD2    C2 4873   1.238   0.712  14.032
  322MPD2    C3 4874   1.244   0.663  13.903
  322MPD2    C4 4875   1.167   0.724  13.808
  322MPD2    C5 4876   1.114   0.849  13.838
  322MPD2     H 4877   1.301   0.659  14.103
  322MPD2    H1 4878   1.138   0.678  13.715
  322MPD2    H2 4879   1.096   1.013  13.959
  322MPD2    H3 4880   1.065   0.903  13.758
  322MPD2     N 4881   1.313   0.549  13.873
  322MPD2    H5 4882   1.340   0.481  13.943
  322MPD2    N1 4883   1.232   0.909  14.180
  322MPD2    H7 4884   1.226   1.010  14.186
  323TMC3    C1 4885   1.334   0.950  14.382
  323TMC3    C2 4886   1.425   1.037  14.331
  323TMC3    C3 4887   1.525   1.069  14.419
  323TMC3    C4 4888   1.340   0.900  14.512
  323TMC3    C5 4889   1.437   0.945  14.596
  323TMC3    C6 4890   1.536   1.034  14.557
  323TMC3     C 4891   1.281   0.851  14.296
  323TMC3     O 4892   1.278   0.734  14.332
  323TMC3     H 4893   1.425   1.053  14.224
  323TMC3    H1 4894   1.263   0.831  14.546
  323TMC3    H2 4895   1.622   1.065  14.614
  323TMC3    C7 4896   1.468   0.846  14.701
  323TMC3    C8 4897   1.654   1.098  14.365
  323TMC3    O1 4898   1.397   0.745  14.709
  323TMC3    O2 4899   1.748   1.044  14.424
  324MPD2     C 4900   2.870   1.753  14.534
  324MPD2    C1 4901   2.885   1.880  14.486
  324MPD2    C2 4902   2.786   1.938  14.410
  324MPD2    C3 4903   2.668   1.864  14.373
  324MPD2    C4 4904   2.652   1.739  14.429
  324MPD2    C5 4905   2.758   1.685  14.503
  324MPD2     H 4906   2.794   2.038  14.370
  324MPD2    H1 4907   2.571   1.669  14.411
  324MPD2    H2 4908   2.944   1.699  14.592
  324MPD2    H3 4909   2.747   1.585  14.543
  324MPD2     N 4910   2.571   1.908  14.290
  324MPD2    H5 4911   2.494   1.842  14.280
  324MPD2    N1 4912   3.002   1.955  14.506
  324MPD2    H7 4913   2.999   2.048  14.466
  325TMC3    C1 4914   2.433   2.055  14.169
  325TMC3    C2 4915   2.316   1.997  14.216
  325TMC3    C3 4916   2.195   2.027  14.163
  325TMC3    C4 4917   2.428   2.155  14.078
  325TMC3    C5 4918   2.303   2.193  14.042
  325TMC3    C6 4919   2.191   2.119  14.065
  325TMC3     C 4920   2.563   2.030  14.230
  325TMC3     O 4921   2.654   2.111  14.215
  325TMC3     H 4922   2.322   1.924  14.296
  325TMC3    H1 4923   2.521   2.201  14.048
  325TMC3    H2 4924   2.101   2.133  14.006
  325TMC3    C7 4925   2.294   2.329  14.012
  325TMC3    C8 4926   2.096   1.922  14.166
  325TMC3    O1 4927   2.390   2.396  13.984
  325TMC3    O2 4928   2.127   1.826  14.234
  326MPD2     C 4929   4.307   3.587  11.554
  326MPD2    C1 4930   4.334   3.516  11.442
  326MPD2    C2 4931   4.465   3.483  11.412
  326MPD2    C3 4932   4.572   3.507  11.495
  326MPD2    C4 4933   4.544   3.565  11.616
  326MPD2    C5 4934   4.414   3.610  11.637
  326MPD2     H 4935   4.487   3.443  11.314
  326MPD2    H1 4936   4.611   3.570  11.701
  326MPD2    H2 4937   4.207   3.616  11.582
  326MPD2    H3 4938   4.396   3.662  11.730
  326MPD2     N 4939   4.712   3.470  11.473
  326MPD2    H5 4940   4.769   3.467  11.557
  326MPD2    N1 4941   4.236   3.480  11.346
  326MPD2    H7 4942   4.264   3.419  11.269
  327TMC3    C1 4943   4.043   3.496  11.208
  327TMC3    C2 4944   3.975   3.598  11.153
  327TMC3    C3 4945   3.962   3.595  11.018
  327TMC3    C4 4946   4.100   3.396  11.131
  327TMC3    C5 4947   4.090   3.400  10.992
  327TMC3    C6 4948   4.018   3.501  10.936
  327TMC3     C 4949   4.107   3.532  11.335
  327TMC3     O 4950   4.047   3.614  11.406
  327TMC3     H 4951   3.932   3.676  11.215
  327TMC3    H1 4952   4.138   3.309  11.183
  327TMC3    H2 4953   4.006   3.509  10.828
  327TMC3    C7 4954   4.217   3.370  10.921
  327TMC3    C8 4955   3.911   3.715  10.949
  327TMC3    O1 4956   4.248   3.444  10.830
  327TMC3    O2 4957   3.958   3.738  10.837
  328MPD2     C 4958   1.894   3.029  17.574
  328MPD2    C1 4959   1.842   2.940  17.484
  328MPD2    C2 4960   1.852   2.976  17.355
  328MPD2    C3 4961   1.883   3.105  17.321
  328MPD2    C4 4962   1.953   3.172  17.410
  328MPD2    C5 4963   1.945   3.146  17.540
  328MPD2     H 4964   1.799   2.910  17.287
  328MPD2    H1 4965   1.989   3.268  17.375
  328MPD2    H2 4966   1.897   3.013  17.682
  328MPD2    H3 4967   1.986   3.217  17.611
  328MPD2     N 4968   1.872   3.157  17.184
  328MPD2    H5 4969   1.913   3.249  17.171
  328MPD2    N1 4970   1.752   2.845  17.532
  328MPD2    H7 4971   1.712   2.853  17.626
  329TMC3    C1 4972   1.563   2.706  17.506
  329TMC3    C2 4973   1.487   2.802  17.572
  329TMC3    C3 4974   1.353   2.794  17.551
  329TMC3    C4 4975   1.515   2.597  17.443
  329TMC3    C5 4976   1.377   2.597  17.425
  329TMC3    C6 4977   1.299   2.699  17.473
  329TMC3     C 4978   1.691   2.749  17.454
  329TMC3     O 4979   1.724   2.705  17.349
  329TMC3     H 4980   1.534   2.891  17.612
  329TMC3    H1 4981   1.576   2.529  17.385
  329TMC3    H2 4982   1.192   2.703  17.451
  329TMC3    C7 4983   1.312   2.510  17.323
  329TMC3    C8 4984   1.283   2.924  17.542
  329TMC3    O1 4985   1.189   2.509  17.327
  329TMC3    O2 4986   1.211   2.952  17.452
  330TMC3    C1 4987   0.060   2.797   9.752
  330TMC3    C2 4988   4.746   2.710   9.701
  330TMC3    C3 4989   4.729   2.589   9.766
  330TMC3    C4 4990   0.131   2.771   9.861
  330TMC3    C5 4991   0.116   2.646   9.919
  330TMC3    C6 4992   0.031   2.554   9.869
  330TMC3     C 4993   0.035   2.936   9.735
  330TMC3     O 4994   0.066   3.016   9.824
  330TMC3     H 4995   4.687   2.725   9.612
  330TMC3    H1 4996   0.208   2.839   9.896
  330TMC3    H2 4997   0.026   2.455   9.913
  330TMC3    C7 4998   0.171   2.636  10.053
  330TMC3    C8 4999   4.648   2.493   9.695
  330TMC3    O1 5000   0.242   2.731  10.084
  330TMC3    O2 5001   4.634   2.511   9.574
  331MPD2     C 5002   2.941   1.389  13.569
  331MPD2    C1 5003   2.997   1.438  13.459
  331MPD2    C2 5004   2.940   1.398  13.337
  331MPD2    C3 5005   2.833   1.310  13.333
  331MPD2    C4 5006   2.783   1.259  13.455
  331MPD2    C5 5007   2.840   1.300  13.571
  331MPD2     H 5008   2.968   1.454  13.248
  331MPD2    H1 5009   2.693   1.203  13.476
  331MPD2    H2 5010   2.966   1.438  13.663
  331MPD2    H3 5011   2.797   1.278  13.668
  331MPD2     N 5012   2.774   1.281  13.208
  331MPD2    H5 5013   2.813   1.333  13.129
  331MPD2    N1 5014   3.100   1.535  13.459
  331MPD2    H7 5015   3.123   1.571  13.552
  332TMC3    C1 5016   2.650   1.179  13.043
  332TMC3    C2 5017   2.716   1.249  12.946
  332TMC3    C3 5018   2.741   1.190  12.829
  332TMC3    C4 5019   2.608   1.052  13.023
  332TMC3    C5 5020   2.638   0.990  12.903
  332TMC3    C6 5021   2.695   1.064  12.800
  332TMC3     C 5022   2.672   1.206  13.184
  332TMC3     O 5023   2.605   1.141  13.264
  332TMC3     H 5024   2.762   1.347  12.952
  332TMC3    H1 5025   2.553   0.985  13.089
  332TMC3    H2 5026   2.722   1.007  12.712
  332TMC3    C7 5027   2.687   0.852  12.916
  332TMC3    C8 5028   2.838   1.260  12.739
  332TMC3    O1 5029   2.627   0.764  12.858
  332TMC3    O2 5030   2.915   1.346  12.777
  333MPD2     C 5031   2.908   1.824  11.321
  333MPD2    C1 5032   2.844   1.781  11.206
  333MPD2    C2 5033   2.798   1.643  11.217
  333MPD2    C3 5034   2.815   1.568  11.335
  333MPD2    C4 5035   2.872   1.630  11.441
  333MPD2    C5 5036   2.909   1.757  11.439
  333MPD2     H 5037   2.775   1.588  11.126
  333MPD2    H1 5038   2.887   1.575  11.534
  333MPD2    H2 5039   2.946   1.925  11.316
  333MPD2    H3 5040   2.964   1.796  11.524
  333MPD2     N 5041   2.772   1.443  11.331
  333MPD2    H5 5042   2.743   1.402  11.243
  333MPD2    N1 5043   2.858   1.850  11.084
  333MPD2    H7 5044   2.906   1.938  11.102
  334TMC3    C1 5045   2.880   1.912  10.869
  334TMC3    C2 5046   2.976   1.849  10.789
  334TMC3    C3 5047   3.091   1.922  10.757
  334TMC3    C4 5048   2.888   2.042  10.919
  334TMC3    C5 5049   3.004   2.108  10.887
  334TMC3    C6 5050   3.105   2.051  10.810
  334TMC3     C 5051   2.821   1.815  10.957
  334TMC3     O 5052   2.765   1.708  10.916
  334TMC3     H 5053   2.967   1.751  10.743
  334TMC3    H1 5054   2.811   2.091  10.978
  334TMC3    H2 5055   3.188   2.110  10.773
  334TMC3    C7 5056   3.023   2.249  10.916
  334TMC3    C8 5057   3.205   1.840  10.712
  334TMC3    O1 5058   3.137   2.286  10.949
  334TMC3    O2 5059   3.186   1.747  10.632
  335TMC3    C1 5060   2.715   2.984  17.587
  335TMC3    C2 5061   2.639   2.895  17.511
  335TMC3    C3 5062   2.694   2.843  17.400
  335TMC3    C4 5063   2.845   3.014  17.556
  335TMC3    C5 5064   2.897   2.935  17.450
  335TMC3    C6 5065   2.831   2.841  17.383
  335TMC3     C 5066   2.632   3.046  17.691
  335TMC3     O 5067   2.531   2.985  17.724
  335TMC3     H 5068   2.531   2.893  17.524
  335TMC3    H1 5069   2.898   3.079  17.626
  335TMC3    H2 5070   2.875   2.786  17.300
  335TMC3    C7 5071   3.013   2.989  17.385
  335TMC3    C8 5072   2.611   2.782  17.291
  335TMC3    O1 5073   3.061   2.924  17.290
  335TMC3    O2 5074   2.670   2.779  17.186
  336MPD2     C 5075   2.483   0.527  16.502
  336MPD2    C1 5076   2.431   0.484  16.380
  336MPD2    C2 5077   2.452   0.349  16.344
  336MPD2    C3 5078   2.516   0.265  16.428
  336MPD2    C4 5079   2.544   0.305  16.554
  336MPD2    C5 5080   2.527   0.432  16.591
  336MPD2     H 5081   2.396   0.327  16.255
  336MPD2    H1 5082   2.592   0.239  16.625
  336MPD2    H2 5083   2.482   0.632  16.527
  336MPD2    H3 5084   2.561   0.464  16.688
  336MPD2     N 5085   2.539   0.127  16.396
  336MPD2    H5 5086   2.551   0.052  16.463
  336MPD2    N1 5087   2.382   0.572  16.280
  336MPD2    H7 5088   2.348   0.519  16.201
  337TMC3    C1 5089   2.265   0.753  16.196
  337TMC3    C2 5090   2.175   0.671  16.132
  337TMC3    C3 5091   2.084   0.728  16.052
  337TMC3    C4 5092   2.258   0.889  16.184
  337TMC3    C5 5093   2.169   0.946  16.097
  337TMC3    C6 5094   2.075   0.864  16.036
  337TMC3     C 5095   2.348   0.702  16.302
  337TMC3     O 5096   2.392   0.785  16.383
  337TMC3     H 5097   2.172   0.564  16.147
  337TMC3    H1 5098   2.319   0.955  16.245
  337TMC3    H2 5099   1.998   0.909  15.973
  337TMC3    C7 5100   2.127   1.087  16.108
  337TMC3    C8 5101   1.977   0.642  15.999
  337TMC3    O1 5102   2.007   1.103  16.114
  337TMC3    O2 5103   1.971   0.525  16.038
  338MPD2     C 5104   3.350   0.338  19.262
  338MPD2    C1 5105   3.232   0.325  19.197
  338MPD2    C2 5106   3.114   0.378  19.262
  338MPD2    C3 5107   3.117   0.444  19.384
  338MPD2    C4 5108   3.241   0.453  19.446
  338MPD2    C5 5109   3.356   0.404  19.381
  338MPD2     H 5110   3.020   0.359  19.212
  338MPD2    H1 5111   3.263   0.505  19.538
  338MPD2    H2 5112   3.446   0.304  19.224
  338MPD2    H3 5113   3.450   0.427  19.429
  338MPD2     N 5114   2.993   0.484  19.444
  338MPD2    H5 5115   2.913   0.438  19.402
  338MPD2    N1 5116   3.215   0.250  19.080
  338MPD2    H7 5117   3.121   0.240  19.044
  339TMC3    C1 5118   2.842   0.571  19.590
  339TMC3    C2 5119   2.796   0.519  19.710
  339TMC3    C3 5120   2.671   0.461  19.709
  339TMC3    C4 5121   2.754   0.581  19.484
  339TMC3    C5 5122   2.627   0.531  19.494
  339TMC3    C6 5123   2.584   0.473  19.608
  339TMC3     C 5124   2.977   0.546  19.562
  339TMC3     O 5125   3.056   0.544  19.652
  339TMC3     H 5126   2.872   0.516  19.788
  339TMC3    H1 5127   2.787   0.632  19.394
  339TMC3    H2 5128   2.503   0.401  19.611
  339TMC3    C7 5129   2.549   0.515  19.371
  339TMC3    C8 5130   2.614   0.410  19.836
  339TMC3    O1 5131   2.609   0.528  19.263
  339TMC3    O2 5132   2.668   0.458  19.937
  340MPD2     C 5133   2.560   3.018  10.111
  340MPD2    C1 5134   2.587   2.888  10.163
  340MPD2    C2 5135   2.642   2.879  10.289
  340MPD2    C3 5136   2.667   2.988  10.362
  340MPD2    C4 5137   2.641   3.114  10.314
  340MPD2    C5 5138   2.582   3.126  10.191
  340MPD2     H 5139   2.661   2.779  10.327
  340MPD2    H1 5140   2.657   3.201  10.375
  340MPD2    H2 5141   2.509   3.047  10.019
  340MPD2    H3 5142   2.546   3.223  10.158
  340MPD2     N 5143   2.727   2.977  10.491
  340MPD2    H5 5144   2.746   3.056  10.552
  340MPD2    N1 5145   2.567   2.776  10.072
  340MPD2    H7 5146   2.539   2.802   9.978
  341TMC3    C1 5147   2.586   2.563   9.984
  341TMC3    C2 5148   2.565   2.432  10.003
  341TMC3    C3 5149   2.621   2.344   9.909
  341TMC3    C4 5150   2.671   2.608   9.882
  341TMC3    C5 5151   2.734   2.522   9.801
  341TMC3    C6 5152   2.702   2.388   9.798
  341TMC3     C 5153   2.590   2.642  10.097
  341TMC3     O 5154   2.627   2.587  10.197
  341TMC3     H 5155   2.491   2.401  10.076
  341TMC3    H1 5156   2.685   2.714   9.866
  341TMC3    H2 5157   2.773   2.320   9.753
  341TMC3    C7 5158   2.840   2.562   9.717
  341TMC3    C8 5159   2.568   2.208   9.906
  341TMC3    O1 5160   2.933   2.485   9.721
  341TMC3    O2 5161   2.528   2.177  10.019
  342MPD2     C 5162   0.538   1.062  17.383
  342MPD2    C1 5163   0.664   1.055  17.433
  342MPD2    C2 5164   0.721   1.171  17.485
  342MPD2    C3 5165   0.652   1.291  17.491
  342MPD2    C4 5166   0.517   1.293  17.448
  342MPD2    C5 5167   0.461   1.175  17.404
  342MPD2     H 5168   0.816   1.170  17.538
  342MPD2    H1 5169   0.457   1.383  17.445
  342MPD2    H2 5170   0.485   0.977  17.341
  342MPD2    H3 5171   0.363   1.171  17.358
  342MPD2     N 5172   0.707   1.405  17.545
  342MPD2    H5 5173   0.645   1.485  17.545
  342MPD2    N1 5174   0.743   0.938  17.432
  342MPD2    H7 5175   0.841   0.952  17.456
  343TMC3    C1 5176   0.793   0.709  17.419
  343TMC3    C2 5177   0.929   0.727  17.422
  343TMC3    C3 5178   1.005   0.615  17.452
  343TMC3    C4 5179   0.744   0.579  17.451
  343TMC3    C5 5180   0.824   0.479  17.485
  343TMC3    C6 5181   0.956   0.487  17.489
  343TMC3     C 5182   0.703   0.815  17.383
  343TMC3     O 5183   0.599   0.784  17.327
  343TMC3     H 5184   0.978   0.817  17.388
  343TMC3    H1 5185   0.637   0.566  17.459
  343TMC3    H2 5186   1.019   0.407  17.526
  343TMC3    C7 5187   0.759   0.370  17.548
  343TMC3    C8 5188   1.153   0.620  17.437
  343TMC3    O1 5189   0.643   0.349  17.522
  343TMC3    O2 5190   1.210   0.723  17.471
  344MPD2     C 5191   1.404   0.887  11.171
  344MPD2    C1 5192   1.366   0.809  11.062
  344MPD2    C2 5193   1.416   0.845  10.930
  344MPD2    C3 5194   1.489   0.966  10.914
  344MPD2    C4 5195   1.531   1.030  11.027
  344MPD2    C5 5196   1.490   0.990  11.155
  344MPD2     H 5197   1.382   0.792  10.842
  344MPD2    H1 5198   1.595   1.116  11.010
  344MPD2    H2 5199   1.385   0.867  11.276
  344MPD2    H3 5200   1.535   1.035  11.243
  344MPD2     N 5201   1.548   1.003  10.794
  344MPD2    H5 5202   1.625   1.069  10.801
  344MPD2    N1 5203   1.314   0.678  11.080
  344MPD2    H7 5204   1.304   0.623  10.995
  345TMC3    C1 5205   1.624   1.009  10.581
  345TMC3    C2 5206   1.744   1.034  10.632
  345TMC3    C3 5207   1.829   1.108  10.558
  345TMC3    C4 5208   1.573   1.076  10.472
  345TMC3    C5 5209   1.656   1.161  10.406
  345TMC3    C6 5210   1.785   1.184  10.449
  345TMC3     C 5211   1.526   0.949  10.671
  345TMC3     O 5212   1.445   0.874  10.623
  345TMC3     H 5213   1.774   0.964  10.709
  345TMC3    H1 5214   1.472   1.068  10.432
  345TMC3    H2 5215   1.848   1.253  10.395
  345TMC3    C7 5216   1.606   1.261  10.316
  345TMC3    C8 5217   1.936   1.170  10.640
  345TMC3    O1 5218   1.666   1.369  10.310
  345TMC3    O2 5219   1.930   1.138  10.762
  346MPD2     C 5220   1.329   2.039  13.975
  346MPD2    C1 5221   1.452   2.106  13.944
  346MPD2    C2 5222   1.483   2.220  14.021
  346MPD2    C3 5223   1.398   2.268  14.118
  346MPD2    C4 5224   1.285   2.201  14.151
  346MPD2    C5 5225   1.253   2.083  14.079
  346MPD2     H 5226   1.577   2.271  14.005
  346MPD2    H1 5227   1.211   2.236  14.222
  346MPD2    H2 5228   1.290   1.951  13.926
  346MPD2    H3 5229   1.160   2.034  14.103
  346MPD2     N 5230   1.436   2.396  14.176
  346MPD2    H5 5231   1.524   2.440  14.154
  346MPD2    N1 5232   1.541   2.064  13.848
  346MPD2    H7 5233   1.602   2.139  13.819
  347TMC3    C1 5234   1.422   2.584  14.312
  347TMC3    C2 5235   1.506   2.624  14.206
  347TMC3    C3 5236   1.624   2.682  14.236
  347TMC3    C4 5237   1.463   2.592  14.444
  347TMC3    C5 5238   1.579   2.665  14.467
  347TMC3    C6 5239   1.664   2.708  14.367
  347TMC3     C 5240   1.352   2.461  14.274
  347TMC3     O 5241   1.260   2.413  14.341
  347TMC3     H 5242   1.471   2.617  14.104
  347TMC3    H1 5243   1.405   2.545  14.522
  347TMC3    H2 5244   1.754   2.762  14.394
  347TMC3    C7 5245   1.631   2.653  14.603
  347TMC3    C8 5246   1.726   2.632  14.152
  347TMC3    O1 5247   1.551   2.628  14.696
  347TMC3    O2 5248   1.695   2.537  14.081
  348MPD2     C 5249   0.175   2.236  12.523
  348MPD2    C1 5250   0.290   2.216  12.446
  348MPD2    C2 5251   0.288   2.284  12.329
  348MPD2    C3 5252   0.189   2.362  12.280
  348MPD2    C4 5253   0.073   2.367  12.357
  348MPD2    C5 5254   0.070   2.309  12.480
  348MPD2     H 5255   0.374   2.270  12.265
  348MPD2    H1 5256   4.764   2.420  12.328
  348MPD2    H2 5257   0.154   2.194  12.621
  348MPD2    H3 5258   4.766   2.323  12.547
  348MPD2     N 5259   0.201   2.426  12.156
  348MPD2    H5 5260   0.291   2.420  12.110
  348MPD2    N1 5261   0.394   2.125  12.468
  348MPD2    H7 5262   0.479   2.157  12.422
  349TMC3    C1 5263   0.496   1.935  12.555
  349TMC3    C2 5264   0.464   1.812  12.614
  349TMC3    C3 5265   0.531   1.699  12.574
  349TMC3    C4 5266   0.570   1.932  12.437
  349TMC3    C5 5267   0.622   1.815  12.390
  349TMC3    C6 5268   0.603   1.695  12.459
  349TMC3     C 5269   0.394   2.031  12.569
  349TMC3     O 5270   0.304   1.991  12.631
  349TMC3     H 5271   0.415   1.816  12.711
  349TMC3    H1 5272   0.629   2.019  12.411
  349TMC3    H2 5273   0.645   1.607  12.413
  349TMC3    C7 5274   0.748   1.810  12.312
  349TMC3    C8 5275   0.497   1.582  12.651
  349TMC3    O1 5276   0.828   1.725  12.335
  349TMC3    O2 5277   0.499   1.584  12.776
  350MPD2     C 5278   4.139   0.231  10.722
  350MPD2    C1 5279   4.233   0.135  10.694
  350MPD2    C2 5280   4.350   0.133  10.762
  350MPD2    C3 5281   4.391   0.234  10.849
  350MPD2    C4 5282   4.301   0.333  10.883
  350MPD2    C5 5283   4.173   0.330  10.815
  350MPD2     H 5284   4.416   0.052  10.734
  350MPD2    H1 5285   4.337   0.427  10.922
  350MPD2    H2 5286   4.040   0.238  10.679
  350MPD2    H3 5287   4.092   0.391  10.853
  350MPD2     N 5288   4.519   0.217  10.909
  350MPD2    H5 5289   4.582   0.153  10.861
  350MPD2    N1 5290   4.213   0.030  10.597
  350MPD2    H7 5291   4.285   4.738  10.599
  351TMC3    C1 5292   4.123   4.708  10.403
  351TMC3    C2 5293   4.209   4.604  10.428
  351TMC3    C3 5294   4.213   4.503  10.332
  351TMC3    C4 5295   4.049   4.713  10.288
  351TMC3    C5 5296   4.069   4.610  10.191
  351TMC3    C6 5297   4.152   4.513  10.209
  351TMC3     C 5298   4.106   0.023  10.511
  351TMC3     O 5299   4.013   0.101  10.500
  351TMC3     H 5300   4.261   4.596  10.523
  351TMC3    H1 5301   3.975   0.011  10.276
  351TMC3    H2 5302   4.163   4.432  10.137
  351TMC3    C7 5303   4.041   4.668  10.062
  351TMC3    C8 5304   4.345   4.434  10.317
  351TMC3    O1 5305   4.044   0.010  10.053
  351TMC3    O2 5306   4.388   4.406  10.209
  352MPD2     C 5307   2.829   2.475  19.412
  352MPD2    C1 5308   2.742   2.370  19.382
  352MPD2    C2 5309   2.766   2.243  19.443
  352MPD2    C3 5310   2.877   2.213  19.511
  352MPD2    C4 5311   2.953   2.319  19.539
  352MPD2    C5 5312   2.931   2.444  19.492
  352MPD2     H 5313   2.686   2.171  19.435
  352MPD2    H1 5314   3.035   2.321  19.609
  352MPD2    H2 5315   2.814   2.576  19.376
  352MPD2    H3 5316   3.002   2.520  19.521
  352MPD2     N 5317   2.898   2.091  19.580
  352MPD2    H5 5318   2.972   2.098  19.649
  352MPD2    N1 5319   2.627   2.403  19.306
  352MPD2    H7 5320   2.624   2.493  19.259
  353TMC3    C1 5321   2.829   1.890  19.672
  353TMC3    C2 5322   2.945   1.844  19.731
  353TMC3    C3 5323   2.943   1.716  19.777
  353TMC3    C4 5324   2.725   1.799  19.657
  353TMC3    C5 5325   2.734   1.673  19.699
  353TMC3    C6 5326   2.846   1.623  19.758
  353TMC3     C 5327   2.823   1.979  19.554
  353TMC3     O 5328   2.767   1.948  19.451
  353TMC3     H 5329   3.034   1.905  19.739
  353TMC3    H1 5330   2.633   1.839  19.615
  353TMC3    H2 5331   2.849   1.521  19.792
  353TMC3    C7 5332   2.623   1.587  19.664
  353TMC3    C8 5333   3.076   1.656  19.804
  353TMC3    O1 5334   2.570   1.623  19.560
  353TMC3    O2 5335   3.146   1.716  19.885
  354TMC3    C1 5336   4.234   3.404  13.933
  354TMC3    C2 5337   4.338   3.481  13.962
  354TMC3    C3 5338   4.432   3.515  13.866
  354TMC3    C4 5339   4.228   3.354  13.803
  354TMC3    C5 5340   4.331   3.375  13.714
  354TMC3    C6 5341   4.439   3.455  13.746
  354TMC3     C 5342   4.178   3.325  14.038
  354TMC3     O 5343   4.059   3.298  14.027
  354TMC3     H 5344   4.338   3.549  14.046
  354TMC3    H1 5345   4.153   3.278  13.784
  354TMC3    H2 5346   4.523   3.491  13.688
  354TMC3    C7 5347   4.332   3.316  13.583
  354TMC3    C8 5348   4.481   3.650  13.859
  354TMC3    O1 5349   4.219   3.295  13.535
  354TMC3    O2 5350   4.395   3.736  13.833
  355MPD2     C 5351   4.505   4.127  12.194
  355MPD2    C1 5352   4.615   4.068  12.127
  355MPD2    C2 5353   4.705   3.997  12.203
  355MPD2    C3 5354   4.675   3.972  12.336
  355MPD2    C4 5355   4.563   4.016  12.391
  355MPD2    C5 5356   4.475   4.094  12.320
  355MPD2     H 5357   0.015   3.955  12.162
  355MPD2    H1 5358   4.545   3.980  12.492
  355MPD2    H2 5359   4.432   4.184  12.138
  355MPD2    H3 5360   4.383   4.134  12.360
  355MPD2     N 5361   4.765   3.924  12.426
  355MPD2    H5 5362   4.740   3.924  12.524
  355MPD2    N1 5363   4.644   4.115  12.005
  355MPD2    H7 5364   4.570   4.164  11.955
  356TMC3    C1 5365   0.176   4.036  12.395
  356TMC3    C2 5366   0.229   4.089  12.276
  356TMC3    C3 5367   0.259   4.223  12.276
  356TMC3    C4 5368   0.143   4.119  12.495
  356TMC3    C5 5369   0.182   4.247  12.494
  356TMC3    C6 5370   0.247   4.304  12.387
  356TMC3     C 5371   0.115   3.908  12.385
  356TMC3     O 5372   0.152   3.836  12.291
  356TMC3     H 5373   0.248   4.022  12.194
  356TMC3    H1 5374   0.104   4.074  12.586
  356TMC3    H2 5375   0.279   4.408  12.392
  356TMC3    C7 5376   0.184   4.315  12.625
  356TMC3    C8 5377   0.302   4.280  12.148
  356TMC3    O1 5378   0.177   4.244  12.725
  356TMC3    O2 5379   0.276   4.219  12.046
  357MPD2     C 5380   4.558   3.678  18.153
  357MPD2    C1 5381   4.479   3.725  18.255
  357MPD2    C2 5382   4.460   3.864  18.278
  357MPD2    C3 5383   4.509   3.943  18.178
  357MPD2    C4 5384   4.583   3.901  18.074
  357MPD2    C5 5385   4.609   3.766  18.062
  357MPD2     H 5386   4.403   3.903  18.361
  357MPD2    H1 5387   4.628   3.974  18.007
  357MPD2    H2 5388   4.591   3.576  18.139
  357MPD2    H3 5389   4.674   3.731  17.982
  357MPD2     N 5390   4.481   4.084  18.183
  357MPD2    H5 5391   4.530   4.137  18.112
  357MPD2    N1 5392   4.405   3.635  18.333
  357MPD2    H7 5393   4.389   3.541  18.297
  358TMC3    C1 5394   4.274   3.562  18.513
  358TMC3    C2 5395   4.204   3.473  18.442
  358TMC3    C3 5396   4.145   3.366  18.506
  358TMC3    C4 5397   4.277   3.547  18.648
  358TMC3    C5 5398   4.230   3.436  18.706
  358TMC3    C6 5399   4.167   3.344  18.632
  358TMC3     C 5400   4.350   3.665  18.455
  358TMC3     O 5401   4.384   3.753  18.532
  358TMC3     H 5402   4.201   3.491  18.336
  358TMC3    H1 5403   4.325   3.627  18.702
  358TMC3    H2 5404   4.138   3.247  18.670
  358TMC3    C7 5405   4.219   3.415  18.849
  358TMC3    C8 5406   4.133   3.255  18.417
  358TMC3    O1 5407   4.136   3.337  18.890
  358TMC3    O2 5408   4.194   3.266  18.317
  359MPD2     C 5409   4.776   3.197  12.753
  359MPD2    C1 5410   4.762   3.098  12.657
  359MPD2    C2 5411   4.671   2.995  12.661
  359MPD2    C3 5412   4.584   2.997  12.769
  359MPD2    C4 5413   4.591   3.097  12.866
  359MPD2    C5 5414   4.691   3.189  12.857
  359MPD2     H 5415   4.678   2.918  12.585
  359MPD2    H1 5416   4.527   3.100  12.953
  359MPD2    H2 5417   0.069   3.276  12.743
  359MPD2    H3 5418   4.697   3.263  12.936
  359MPD2     N 5419   4.489   2.894  12.794
  359MPD2    H5 5420   4.414   2.914  12.859
  359MPD2    N1 5421   0.056   3.107  12.539
  359MPD2    H7 5422   0.050   3.027  12.477
  360TMC3    C1 5423   0.217   3.156  12.382
  360TMC3    C2 5424   0.350   3.182  12.390
  360TMC3    C3 5425   0.437   3.099  12.333
  360TMC3    C4 5426   0.169   3.057  12.305
  360TMC3    C5 5427   0.263   2.996  12.222
  360TMC3    C6 5428   0.392   3.003  12.239
  360TMC3     C 5429   0.134   3.206  12.492
  360TMC3     O 5430   0.148   3.325  12.525
  360TMC3     H 5431   0.390   3.252  12.463
  360TMC3    H1 5432   0.062   3.058  12.296
  360TMC3    H2 5433   0.466   2.956  12.176
  360TMC3    C7 5434   0.220   2.917  12.106
  360TMC3    C8 5435   0.558   3.174  12.288
  360TMC3    O1 5436   0.296   2.863  12.031
  360TMC3    O2 5437   0.573   3.295  12.302
  361MPD2     C 5438   1.692   1.263  16.805
  361MPD2    C1 5439   1.669   1.338  16.916
  361MPD2    C2 5440   1.765   1.337  17.023
  361MPD2    C3 5441   1.887   1.275  17.002
  361MPD2    C4 5442   1.896   1.187  16.896
  361MPD2    C5 5443   1.802   1.191  16.793
  361MPD2     H 5444   1.750   1.382  17.121
  361MPD2    H1 5445   1.987   1.130  16.882
  361MPD2    H2 5446   1.616   1.250  16.729
  361MPD2    H3 5447   1.827   1.131  16.706
  361MPD2     N 5448   1.985   1.253  17.102
  361MPD2    H5 5449   2.055   1.183  17.083
  361MPD2    N1 5450   1.557   1.418  16.942
  361MPD2    H7 5451   1.552   1.447  17.039
  362TMC3    C1 5452   1.358   1.531  16.900
  362TMC3    C2 5453   1.309   1.505  17.021
  362TMC3    C3 5454   1.217   1.600  17.075
  362TMC3    C4 5455   1.298   1.620  16.808
  362TMC3    C5 5456   1.204   1.702  16.862
  362TMC3    C6 5457   1.173   1.706  16.996
  362TMC3     C 5458   1.470   1.461  16.847
  362TMC3     O 5459   1.478   1.452  16.725
  362TMC3     H 5460   1.331   1.421  17.086
  362TMC3    H1 5461   1.330   1.627  16.705
  362TMC3    H2 5462   1.096   1.774  17.031
  362TMC3    C7 5463   1.150   1.801  16.778
  362TMC3    C8 5464   1.117   1.549  17.167
  362TMC3    O1 5465   1.102   1.901  16.834
  362TMC3    O2 5466   1.114   1.431  17.211
  363TMC3    C1 5467   0.697   4.562  10.166
  363TMC3    C2 5468   0.690   4.434  10.218
  363TMC3    C3 5469   0.564   4.394  10.269
  363TMC3    C4 5470   0.581   4.640  10.153
  363TMC3    C5 5471   0.462   4.597  10.207
  363TMC3    C6 5472   0.451   4.469  10.261
  363TMC3     C 5473   0.824   4.613  10.102
  363TMC3     O 5474   0.814   4.722  10.040
  363TMC3     H 5475   0.780   4.376  10.236
  363TMC3    H1 5476   0.594   4.729  10.092
  363TMC3    H2 5477   0.356   4.432  10.299
  363TMC3    C7 5478   0.353   4.690  10.229
  363TMC3    C8 5479   0.554   4.287  10.362
  363TMC3    O1 5480   0.235   4.649  10.236
  363TMC3    O2 5481   0.479   4.308  10.455
  364MPD2     C 5482   3.644   4.151  10.913
  364MPD2    C1 5483   3.705   4.074  10.819
  364MPD2    C2 5484   3.765   3.957  10.856
  364MPD2    C3 5485   3.770   3.914  10.985
  364MPD2    C4 5486   3.711   3.990  11.079
  364MPD2    C5 5487   3.648   4.109  11.047
  364MPD2     H 5488   3.811   3.884  10.791
  364MPD2    H1 5489   3.706   3.959  11.183
  364MPD2    H2 5490   3.601   4.246  10.883
  364MPD2    H3 5491   3.603   4.163  11.130
  364MPD2     N 5492   3.832   3.791  11.024
  364MPD2    H5 5493   3.816   3.764  11.120
  364MPD2    N1 5494   3.698   4.129  10.683
  364MPD2    H7 5495   3.619   4.190  10.663
  365TMC3    C1 5496   3.928   4.066  10.627
  365TMC3    C2 5497   4.000   4.012  10.521
  365TMC3    C3 5498   4.134   4.046  10.504
  365TMC3    C4 5499   3.989   4.140  10.719
  365TMC3    C5 5500   4.118   4.182  10.697
  365TMC3    C6 5501   4.191   4.130  10.592
  365TMC3     C 5502   3.791   4.103  10.587
  365TMC3     O 5503   3.781   4.130  10.465
  365TMC3     H 5504   3.952   3.937  10.458
  365TMC3    H1 5505   3.927   4.199  10.786
  365TMC3    H2 5506   4.289   4.176  10.587
  365TMC3    C7 5507   4.155   4.309  10.757
  365TMC3    C8 5508   4.224   3.970  10.416
  365TMC3    O1 5509   4.221   4.385  10.686
  365TMC3    O2 5510   4.317   4.033  10.377
  366MPD2     C 5511   1.980   4.383  15.579
  366MPD2    C1 5512   2.057   4.491  15.547
  366MPD2    C2 5513   2.173   4.465  15.475
  366MPD2    C3 5514   2.204   4.335  15.425
  366MPD2    C4 5515   2.127   4.232  15.462
  366MPD2    C5 5516   2.018   4.255  15.547
  366MPD2     H 5517   2.242   4.546  15.454
  366MPD2    H1 5518   2.154   4.127  15.450
  366MPD2    H2 5519   1.894   4.396  15.643
  366MPD2    H3 5520   1.965   4.169  15.586
  366MPD2     N 5521   2.300   4.324  15.324
  366MPD2    H5 5522   2.347   4.412  15.303
  366MPD2    N1 5523   2.037   4.623  15.610
  366MPD2    H7 5524   2.114   4.689  15.620
  367TMC3    C1 5525   1.927   0.020  15.696
  367TMC3    C2 5526   2.041   0.070  15.744
  367TMC3    C3 5527   2.051   0.207  15.765
  367TMC3    C4 5528   1.828   0.106  15.657
  367TMC3    C5 5529   1.833   0.245  15.682
  367TMC3    C6 5530   1.951   0.297  15.732
  367TMC3     C 5531   1.914   4.666  15.656
  367TMC3     O 5532   1.809   4.621  15.625
  367TMC3     H 5533   2.116   0.001  15.779
  367TMC3    H1 5534   1.741   0.058  15.613
  367TMC3    H2 5535   1.969   0.400  15.760
  367TMC3    C7 5536   1.772   0.328  15.578
  367TMC3    C8 5537   2.170   0.253  15.844
  367TMC3    O1 5538   1.835   0.424  15.543
  367TMC3    O2 5539   2.221   0.176  15.922
  368MPD2     C 5540   3.617   1.604  13.794
  368MPD2    C1 5541   3.596   1.704  13.695
  368MPD2    C2 5542   3.712   1.737  13.614
  368MPD2    C3 5543   3.839   1.694  13.640
  368MPD2    C4 5544   3.851   1.602  13.746
  368MPD2    C5 5545   3.747   1.558  13.820
  368MPD2     H 5546   3.696   1.816  13.542
  368MPD2    H1 5547   3.945   1.548  13.755
  368MPD2    H2 5548   3.538   1.560  13.853
  368MPD2    H3 5549   3.763   1.487  13.901
  368MPD2     N 5550   3.943   1.706  13.554
  368MPD2    H5 5551   4.037   1.674  13.574
  368MPD2    N1 5552   3.473   1.763  13.690
  368MPD2    H7 5553   3.400   1.713  13.739
  369TMC3    C1 5554   3.317   1.937  13.654
  369TMC3    C2 5555   3.312   2.074  13.635
  369TMC3    C3 5556   3.193   2.126  13.615
  369TMC3    C4 5557   3.207   1.861  13.653
  369TMC3    C5 5558   3.087   1.918  13.645
  369TMC3    C6 5559   3.074   2.059  13.627
  369TMC3     C 5560   3.447   1.880  13.625
  369TMC3     O 5561   3.513   1.956  13.559
  369TMC3     H 5562   3.401   2.135  13.643
  369TMC3    H1 5563   3.212   1.758  13.687
  369TMC3    H2 5564   2.981   2.114  13.623
  369TMC3    C7 5565   2.973   1.832  13.633
  369TMC3    C8 5566   3.182   2.236  13.522
  369TMC3    O1 5567   2.969   1.730  13.698
  369TMC3    O2 5568   3.072   2.254  13.474
  370TMC3    C1 5569   2.751   2.359  16.413
  370TMC3    C2 5570   2.690   2.288  16.512
  370TMC3    C3 5571   2.673   2.156  16.488
  370TMC3    C4 5572   2.785   2.295  16.291
  370TMC3    C5 5573   2.774   2.162  16.277
  370TMC3    C6 5574   2.708   2.088  16.370
  370TMC3     C 5575   2.832   2.469  16.462
  370TMC3     O 5576   2.885   2.462  16.572
  370TMC3     H 5577   2.691   2.334  16.610
  370TMC3    H1 5578   2.846   2.348  16.218
  370TMC3    H2 5579   2.698   1.980  16.360
  370TMC3    C7 5580   2.844   2.094  16.173
  370TMC3    C8 5581   2.635   2.065  16.598
  370TMC3    O1 5582   2.862   2.168  16.077
  370TMC3    O2 5583   2.646   1.944  16.588
  371TMC3    C1 5584   4.242   0.761  15.853
  371TMC3    C2 5585   4.189   0.779  15.977
  371TMC3    C3 5586   4.120   0.894  16.001
  371TMC3    C4 5587   4.267   0.865  15.764
  371TMC3    C5 5588   4.201   0.981  15.795
  371TMC3    C6 5589   4.136   0.997  15.914
  371TMC3     C 5590   4.225   0.632  15.789
  371TMC3     O 5591   4.294   0.616  15.686
  371TMC3     H 5592   4.176   0.697  16.047
  371TMC3    H1 5593   4.299   0.836  15.665
  371TMC3    H2 5594   4.104   1.096  15.945
  371TMC3    C7 5595   4.228   1.094  15.709
  371TMC3    C8 5596   4.079   0.910  16.138
  371TMC3    O1 5597   4.143   1.181  15.714
  371TMC3    O2 5598   4.168   0.880  16.215
  372MPD2     C 5599   3.516   2.024  13.941
  372MPD2    C1 5600   3.633   1.960  13.968
  372MPD2    C2 5601   3.625   1.845  14.049
  372MPD2    C3 5602   3.507   1.800  14.099
  372MPD2    C4 5603   3.391   1.864  14.068
  372MPD2    C5 5604   3.400   1.974  13.992
  372MPD2     H 5605   3.719   1.796  14.073
  372MPD2    H1 5606   3.296   1.813  14.086
  372MPD2    H2 5607   3.513   2.115  13.882
  372MPD2    H3 5608   3.307   2.017  13.959
  372MPD2     N 5609   3.512   1.679  14.165
  372MPD2    H5 5610   3.593   1.618  14.162
  372MPD2    N1 5611   3.755   1.993  13.904
  372MPD2    H7 5612   3.835   1.935  13.925
  373TMC3    C1 5613   3.432   1.503  14.287
  373TMC3    C2 5614   3.362   1.488  14.404
  373TMC3    C3 5615   3.344   1.366  14.454
  373TMC3    C4 5616   3.498   1.400  14.224
  373TMC3    C5 5617   3.479   1.276  14.282
  373TMC3    C6 5618   3.401   1.256  14.396
  373TMC3     C 5619   3.399   1.626  14.222
  373TMC3     O 5620   3.295   1.683  14.255
  373TMC3     H 5621   3.309   1.570  14.452
  373TMC3    H1 5622   3.550   1.414  14.130
  373TMC3    H2 5623   3.394   1.157  14.438
  373TMC3    C7 5624   3.547   1.167  14.220
  373TMC3    C8 5625   3.266   1.356  14.575
  373TMC3    O1 5626   3.599   1.180  14.108
  373TMC3    O2 5627   3.171   1.277  14.570
  374TMC3    C1 5628   4.066   2.315  10.016
  374TMC3    C2 5629   4.180   2.387  10.041
  374TMC3    C3 5630   4.243   2.449   9.934
  374TMC3    C4 5631   4.005   2.308   9.893
  374TMC3    C5 5632   4.066   2.378   9.791
  374TMC3    C6 5633   4.184   2.444   9.809
  374TMC3     C 5634   4.011   2.223  10.115
  374TMC3     O 5635   3.917   2.149  10.078
  374TMC3     H 5636   4.210   2.376  10.145
  374TMC3    H1 5637   3.917   2.246   9.879
  374TMC3    H2 5638   4.232   2.502   9.731
  374TMC3    C7 5639   3.992   2.382   9.667
  374TMC3    C8 5640   4.334   2.560   9.961
  374TMC3    O1 5641   3.924   2.284   9.631
  374TMC3    O2 5642   4.325   2.657   9.888
  375MPD2     C 5643   4.114   3.024  16.647
  375MPD2    C1 5644   4.036   2.907  16.668
  375MPD2    C2 5645   4.055   2.802  16.586
  375MPD2    C3 5646   4.152   2.809  16.485
  375MPD2    C4 5647   4.235   2.915  16.472
  375MPD2    C5 5648   4.224   3.018  16.563
  375MPD2     H 5649   3.983   2.721  16.591
  375MPD2    H1 5650   4.305   2.910  16.389
  375MPD2    H2 5651   4.118   3.109  16.714
  375MPD2    H3 5652   4.295   3.099  16.568
  375MPD2     N 5653   4.156   2.702  16.393
  375MPD2    H5 5654   4.196   2.731  16.305
  375MPD2    N1 5655   3.934   2.904  16.764
  375MPD2    H7 5656   3.889   2.813  16.766
  376TMC3    C1 5657   4.140   2.472  16.318
  376TMC3    C2 5658   4.204   2.358  16.354
  376TMC3    C3 5659   4.278   2.290  16.258
  376TMC3    C4 5660   4.150   2.520  16.186
  376TMC3    C5 5661   4.214   2.440  16.095
  376TMC3    C6 5662   4.272   2.321  16.123
  376TMC3     C 5663   4.120   2.572  16.420
  376TMC3     O 5664   4.097   2.522  16.528
  376TMC3     H 5665   4.222   2.334  16.459
  376TMC3    H1 5666   4.105   2.604  16.135
  376TMC3    H2 5667   4.345   2.285  16.052
  376TMC3    C7 5668   4.230   2.488  15.957
  376TMC3    C8 5669   4.406   2.248  16.304
  376TMC3    O1 5670   4.247   2.607  15.942
  376TMC3    O2 5671   4.497   2.280  16.227
  377MPD2     C 5672   2.340   2.499  12.868
  377MPD2    C1 5673   2.350   2.363  12.908
  377MPD2    C2 5674   2.241   2.303  12.971
  377MPD2    C3 5675   2.124   2.372  13.007
  377MPD2    C4 5676   2.124   2.508  12.972
  377MPD2    C5 5677   2.230   2.566  12.909
  377MPD2     H 5678   2.253   2.197  12.995
  377MPD2    H1 5679   2.031   2.564  12.978
  377MPD2    H2 5680   2.410   2.552  12.804
  377MPD2    H3 5681   2.207   2.668  12.881
  377MPD2     N 5682   2.017   2.320  13.083
  377MPD2    H5 5683   1.935   2.379  13.090
  377MPD2    N1 5684   2.461   2.290  12.850
  377MPD2    H7 5685   2.526   2.352  12.803
  378TMC3    C1 5686   2.666   2.034  12.577
  378TMC3    C2 5687   2.571   2.048  12.680
  378TMC3    C3 5688   2.603   2.124  12.782
  378TMC3    C4 5689   2.798   2.091  12.586
  378TMC3    C5 5690   2.821   2.167  12.702
  378TMC3    C6 5691   2.720   2.192  12.797
  378TMC3     C 5692   2.598   2.013  12.450
  378TMC3     O 5693   2.481   1.980  12.449
  378TMC3     H 5694   2.474   2.001  12.673
  378TMC3    H1 5695   2.871   2.068  12.509
  378TMC3    H2 5696   2.737   2.270  12.870
  378TMC3    C7 5697   2.938   2.237  12.704
  378TMC3    C8 5698   2.485   2.158  12.864
  378TMC3    O1 5699   2.993   2.244  12.814
  378TMC3    O2 5700   2.406   2.071  12.898
  379MPD2     C 5701   3.284   0.354  16.556
  379MPD2    C1 5702   3.165   0.308  16.612
  379MPD2    C2 5703   3.169   0.230  16.724
  379MPD2    C3 5704   3.297   0.203  16.778
  379MPD2    C4 5705   3.410   0.253  16.721
  379MPD2    C5 5706   3.401   0.334  16.615
  379MPD2     H 5707   3.081   0.184  16.767
  379MPD2    H1 5708   3.508   0.236  16.761
  379MPD2    H2 5709   3.283   0.410  16.463
  379MPD2    H3 5710   3.485   0.368  16.556
  379MPD2     N 5711   3.312   0.123  16.891
  379MPD2    H5 5712   3.408   0.106  16.918
  379MPD2    N1 5713   3.051   0.317  16.530
  379MPD2    H7 5714   3.068   0.377  16.449
  380TMC3    C1 5715   2.849   0.244  16.432
  380TMC3    C2 5716   2.882   0.120  16.370
  380TMC3    C3 5717   2.865   0.109  16.232
  380TMC3    C4 5718   2.817   0.354  16.352
  380TMC3    C5 5719   2.797   0.329  16.221
  380TMC3    C6 5720   2.808   0.207  16.162
  380TMC3     C 5721   2.925   0.258  16.552
  380TMC3     O 5722   2.893   0.174  16.638
  380TMC3     H 5723   2.912   0.044  16.441
  380TMC3    H1 5724   2.817   0.456  16.389
  380TMC3    H2 5725   2.799   0.201  16.054
  380TMC3    C7 5726   2.720   0.435  16.150
  380TMC3    C8 5727   2.988   0.068  16.164
  380TMC3    O1 5728   2.750   0.547  16.192
  380TMC3    O2 5729   2.982   0.058  16.045
  381TMC3    C1 5730   2.645   1.455  16.415
  381TMC3    C2 5731   2.769   1.515  16.429
  381TMC3    C3 5732   2.793   1.611  16.524
  381TMC3    C4 5733   2.549   1.486  16.511
  381TMC3    C5 5734   2.571   1.575  16.606
  381TMC3    C6 5735   2.694   1.644  16.615
  381TMC3     C 5736   2.648   1.312  16.378
  381TMC3     O 5737   2.562   1.248  16.438
  381TMC3     H 5738   2.845   1.477  16.362
  381TMC3    H1 5739   2.447   1.451  16.503
  381TMC3    H2 5740   2.710   1.686  16.714
  381TMC3    C7 5741   2.529   1.527  16.734
  381TMC3    C8 5742   2.922   1.662  16.541
  381TMC3    O1 5743   2.579   1.418  16.768
  381TMC3    O2 5744   3.023   1.610  16.491
  382MPD2     C 5745   2.059   4.003  17.289
  382MPD2    C1 5746   1.973   4.011  17.393
  382MPD2    C2 5747   1.904   3.895  17.429
  382MPD2    C3 5748   1.910   3.776  17.359
  382MPD2    C4 5749   1.989   3.777  17.240
  382MPD2    C5 5750   2.068   3.890  17.210
  382MPD2     H 5751   1.841   3.910  17.516
  382MPD2    H1 5752   1.986   3.705  17.159
  382MPD2    H2 5753   2.124   4.081  17.251
  382MPD2    H3 5754   2.129   3.891  17.121
  382MPD2     N 5755   1.843   3.656  17.386
  382MPD2    H5 5756   1.837   3.589  17.311
  382MPD2    N1 5757   1.959   4.122  17.473
  382MPD2    H7 5758   1.919   4.105  17.565
  383TMC3    C1 5759   1.726   3.499  17.509
  383TMC3    C2 5760   1.694   3.427  17.397
  383TMC3    C3 5761   1.638   3.304  17.408
  383TMC3    C4 5762   1.704   3.447  17.635
  383TMC3    C5 5763   1.657   3.318  17.645
  383TMC3    C6 5764   1.620   3.241  17.530
  383TMC3     C 5765   1.769   3.636  17.500
  383TMC3     O 5766   1.757   3.703  17.602
  383TMC3     H 5767   1.699   3.479  17.302
  383TMC3    H1 5768   1.739   3.501  17.722
  383TMC3    H2 5769   1.578   3.142  17.549
  383TMC3    C7 5770   1.645   3.260  17.775
  383TMC3    C8 5771   1.543   3.268  17.307
  383TMC3    O1 5772   1.646   3.138  17.778
  383TMC3    O2 5773   1.495   3.350  17.233
  384MPD2     C 5774   3.476   0.829  12.269
  384MPD2    C1 5775   3.531   0.774  12.380
  384MPD2    C2 5776   3.658   0.716  12.377
  384MPD2    C3 5777   3.728   0.705  12.257
  384MPD2    C4 5778   3.673   0.763  12.145
  384MPD2    C5 5779   3.552   0.827  12.156
  384MPD2     H 5780   3.705   0.681  12.468
  384MPD2    H1 5781   3.717   0.753  12.046
  384MPD2    H2 5782   3.380   0.878  12.281
  384MPD2    H3 5783   3.531   0.883  12.066
  384MPD2     N 5784   3.847   0.629  12.242
  384MPD2    H5 5785   3.892   0.654  12.154
  384MPD2    N1 5786   3.449   0.784  12.504
  384MPD2    H7 5787   3.350   0.804  12.489
  385TMC3    C1 5788   3.991   0.444  12.274
  385TMC3    C2 5789   3.928   0.371  12.180
  385TMC3    C3 5790   3.923   0.238  12.181
  385TMC3    C4 5791   4.054   0.377  12.377
  385TMC3    C5 5792   4.046   0.239  12.384
  385TMC3    C6 5793   3.974   0.173  12.293
  385TMC3     C 5794   3.910   0.551  12.335
  385TMC3     O 5795   3.899   0.544  12.456
  385TMC3     H 5796   3.881   0.431  12.103
  385TMC3    H1 5797   4.118   0.440  12.438
  385TMC3    H2 5798   3.980   0.065  12.294
  385TMC3    C7 5799   4.009   0.203  12.519
  385TMC3    C8 5800   3.800   0.181  12.155
  385TMC3    O1 5801   4.038   0.286  12.607
  385TMC3    O2 5802   3.753   0.103  12.235
  386TMC3    C1 5803   3.950   2.503  12.225
  386TMC3    C2 5804   3.961   2.522  12.088
  386TMC3    C3 5805   3.876   2.614  12.031
  386TMC3    C4 5806   3.875   2.589  12.301
  386TMC3    C5 5807   3.792   2.672  12.240
  386TMC3    C6 5808   3.799   2.696  12.106
  386TMC3     C 5809   4.066   2.432  12.297
  386TMC3     O 5810   4.103   2.486  12.399
  386TMC3     H 5811   4.046   2.485  12.031
  386TMC3    H1 5812   3.882   2.589  12.409
  386TMC3    H2 5813   3.730   2.761  12.053
  386TMC3    C7 5814   3.669   2.707  12.317
  386TMC3    C8 5815   3.875   2.643  11.892
  386TMC3    O1 5816   3.669   2.699  12.440
  386TMC3    O2 5817   3.842   2.755  11.858
  387MPD2     C 5818   1.287   2.765   9.968
  387MPD2    C1 5819   1.395   2.711  10.039
  387MPD2    C2 5820   1.409   2.570  10.052
  387MPD2    C3 5821   1.319   2.498   9.996
  387MPD2    C4 5822   1.199   2.543   9.938
  387MPD2    C5 5823   1.185   2.678   9.924
  387MPD2     H 5824   1.498   2.529  10.099
  387MPD2    H1 5825   1.117   2.479   9.908
  387MPD2    H2 5826   1.279   2.873   9.966
  387MPD2    H3 5827   1.095   2.720   9.881
  387MPD2     N 5828   1.348   2.358   9.997
  387MPD2    H5 5829   1.433   2.328  10.044
  387MPD2    N1 5830   1.507   2.788  10.085
  387MPD2    H7 5831   1.570   2.738  10.147
  388TMC3    C1 5832   1.646   2.961  10.128
  388TMC3    C2 5833   1.675   3.078  10.185
  388TMC3    C3 5834   1.809   3.086  10.235
  388TMC3    C4 5835   1.748   2.870  10.096
  388TMC3    C5 5836   1.869   2.878  10.160
  388TMC3    C6 5837   1.901   2.986  10.236
  388TMC3     C 5838   1.509   2.929  10.084
  388TMC3     O 5839   1.433   3.017  10.045
  388TMC3     H 5840   1.606   3.161  10.192
  388TMC3    H1 5841   1.737   2.788  10.026
  388TMC3    H2 5842   1.997   2.986  10.287
  388TMC3    C7 5843   1.922   2.743  10.212
  388TMC3    C8 5844   1.838   3.201  10.316
  388TMC3    O1 5845   1.960   2.746  10.328
  388TMC3    O2 5846   1.782   3.303  10.276
  389MPD2     C 5847   0.752   1.076  11.632
  389MPD2    C1 5848   0.680   0.973  11.573
  389MPD2    C2 5849   0.706   0.846  11.620
  389MPD2    C3 5850   0.804   0.824  11.713
  389MPD2    C4 5851   0.881   0.922  11.758
  389MPD2    C5 5852   0.855   1.056  11.721
  389MPD2     H 5853   0.641   0.765  11.589
  389MPD2    H1 5854   0.948   0.906  11.842
  389MPD2    H2 5855   0.739   1.182  11.614
  389MPD2    H3 5856   0.903   1.145  11.760
  389MPD2     N 5857   0.811   0.695  11.783
  389MPD2    H5 5858   0.874   0.681  11.861
  389MPD2    N1 5859   0.587   1.008  11.479
  389MPD2    H7 5860   0.562   1.105  11.463
  390TMC3    C1 5861   0.715   0.507  11.868
  390TMC3    C2 5862   0.659   0.385  11.849
  390TMC3    C3 5863   0.597   0.331  11.961
  390TMC3    C4 5864   0.735   0.568  11.992
  390TMC3    C5 5865   0.674   0.507  12.091
  390TMC3    C6 5866   0.611   0.389  12.087
  390TMC3     C 5867   0.728   0.590  11.752
  390TMC3     O 5868   0.664   0.563  11.653
  390TMC3     H 5869   0.635   0.345  11.752
  390TMC3    H1 5870   0.776   0.664  12.018
  390TMC3    H2 5871   0.566   0.348  12.177
  390TMC3    C7 5872   0.643   0.608  12.202
  390TMC3    C8 5873   0.507   0.219  11.941
  390TMC3    O1 5874   0.732   0.684  12.237
  390TMC3    O2 5875   0.506   0.160  11.837
  391MPD2     C 5876   4.529   2.561  11.499
  391MPD2    C1 5877   4.665   2.524  11.492
  391MPD2    C2 5878   4.724   2.526  11.368
  391MPD2    C3 5879   4.660   2.551  11.249
  391MPD2    C4 5880   4.526   2.573  11.262
  391MPD2    C5 5881   4.463   2.572  11.386
  391MPD2     H 5882   0.051   2.523  11.368
  391MPD2    H1 5883   4.470   2.593  11.172
  391MPD2    H2 5884   4.482   2.563  11.597
  391MPD2    H3 5885   4.358   2.598  11.385
  391MPD2     N 5886   4.720   2.550  11.125
  391MPD2    H5 5887   0.040   2.563  11.126
  391MPD2    N1 5888   4.734   2.492  11.613
  391MPD2    H7 5889   4.682   2.492  11.700
  392TMC3    C1 5890   4.754   2.533  10.888
  392TMC3    C2 5891   4.700   2.496  10.769
  392TMC3    C3 5892   4.763   2.529  10.649
  392TMC3    C4 5893   0.103   2.562  10.895
  392TMC3    C5 5894   0.167   2.593  10.778
  392TMC3    C6 5895   0.108   2.588  10.658
  392TMC3     C 5896   4.655   2.538  11.001
  392TMC3     O 5897   4.537   2.514  10.976
  392TMC3     H 5898   4.594   2.473  10.769
  392TMC3    H1 5899   0.161   2.572  10.986
  392TMC3    H2 5900   0.158   2.606  10.564
  392TMC3    C7 5901   0.305   2.628  10.786
  392TMC3    C8 5902   4.691   2.526  10.523
  392TMC3    O1 5903   0.373   2.570  10.873
  392TMC3    O2 5904   4.605   2.440  10.509
  393TMC3    C1 5905   4.058   0.604  11.157
  393TMC3    C2 5906   3.945   0.642  11.225
  393TMC3    C3 5907   3.941   0.594  11.352
  393TMC3    C4 5908   4.140   0.511  11.202
  393TMC3    C5 5909   4.125   0.458  11.322
  393TMC3    C6 5910   4.030   0.511  11.409
  393TMC3     C 5911   4.068   0.654  11.019
  393TMC3     O 5912   3.959   0.658  10.964
  393TMC3     H 5913   3.875   0.717  11.191
  393TMC3    H1 5914   4.225   0.474  11.146
  393TMC3    H2 5915   4.023   0.467  11.508
  393TMC3    C7 5916   4.147   0.317  11.353
  393TMC3    C8 5917   3.829   0.635  11.427
  393TMC3    O1 5918   4.091   0.269  11.452
  393TMC3    O2 5919   3.735   0.678  11.360
  394TMC3    C1 5920   0.443   0.987  11.295
  394TMC3    C2 5921   0.339   0.909  11.255
  394TMC3    C3 5922   0.306   0.908  11.127
  394TMC3    C4 5923   0.533   1.046  11.211
  394TMC3    C5 5924   0.508   1.030  11.075
  394TMC3    C6 5925   0.391   0.967  11.032
  394TMC3     C 5926   0.510   0.924  11.401
  394TMC3     O 5927   0.502   0.802  11.398
  394TMC3     H 5928   0.275   0.860  11.327
  394TMC3    H1 5929   0.626   1.089  11.246
  394TMC3    H2 5930   0.368   0.962  10.926
  394TMC3    C7 5931   0.615   1.049  10.985
  394TMC3    C8 5932   0.192   0.828  11.085
  394TMC3    O1 5933   0.705   1.118  11.027
  394TMC3    O2 5934   0.089   0.825  11.149
  395TMC3    C1 5935   0.250   2.270  14.898
  395TMC3    C2 5936   0.121   2.278  14.941
  395TMC3    C3 5937   0.086   2.379  15.027
  395TMC3    C4 5938   0.344   2.367  14.917
  395TMC3    C5 5939   0.303   2.468  15.000
  395TMC3    C6 5940   0.175   2.476  15.051
  395TMC3     C 5941   0.294   2.173  14.799
  395TMC3     O 5942   0.359   2.222  14.712
  395TMC3     H 5943   0.057   2.193  14.920
  395TMC3    H1 5944   0.445   2.353  14.880
  395TMC3    H2 5945   0.148   2.559  15.115
  395TMC3    C7 5946   0.386   2.592  15.008
  395TMC3    C8 5947   4.761   2.348  15.121
  395TMC3    O1 5948   0.347   2.673  15.088
  395TMC3    O2 5949   4.766   2.392  15.237
  396MPD2     C 5950   0.049   3.439  17.017
  396MPD2    C1 5951   0.133   3.481  17.126
  396MPD2    C2 5952   0.204   3.600  17.118
  396MPD2    C3 5953   0.209   3.665  17.000
  396MPD2    C4 5954   0.137   3.626  16.893
  396MPD2    C5 5955   0.044   3.520  16.908
  396MPD2     H 5956   0.261   3.645  17.198
  396MPD2    H1 5957   0.120   3.682  16.802
  396MPD2    H2 5958   4.755   3.360  17.022
  396MPD2    H3 5959   4.769   3.484  16.822
  396MPD2     N 5960   0.290   3.780  16.997
  396MPD2    H5 5961   0.339   3.798  17.083
  396MPD2    N1 5962   0.131   3.398  17.239
  396MPD2    H7 5963   0.060   3.327  17.221
  397TMC3    C1 5964   0.187   3.319  17.451
  397TMC3    C2 5965   0.319   3.297  17.475
  397TMC3    C3 5966   0.369   3.179  17.451
  397TMC3    C4 5967   0.104   3.212  17.425
  397TMC3    C5 5968   0.158   3.084  17.420
  397TMC3    C6 5969   0.294   3.069  17.431
  397TMC3     C 5970   0.166   3.432  17.370
  397TMC3     O 5971   0.220   3.536  17.406
  397TMC3     H 5972   0.380   3.386  17.479
  397TMC3    H1 5973   4.777   3.223  17.426
  397TMC3    H2 5974   0.340   2.973  17.414
  397TMC3    C7 5975   0.088   2.973  17.470
  397TMC3    C8 5976   0.463   3.187  17.346
  397TMC3    O1 5977   0.110   2.861  17.420
  397TMC3    O2 5978   0.448   3.105  17.258
  398MPD2     C 5979   3.252   0.047  18.465
  398MPD2    C1 5980   3.332   4.714  18.481
  398MPD2    C2 5981   3.465   4.744  18.522
  398MPD2    C3 5982   3.513   0.093  18.531
  398MPD2    C4 5983   3.428   0.200  18.502
  398MPD2    C5 5984   3.298   0.176  18.478
  398MPD2     H 5985   3.533   4.660  18.532
  398MPD2    H1 5986   3.462   0.303  18.507
  398MPD2    H2 5987   3.146   0.045  18.445
  398MPD2    H3 5988   3.233   0.257  18.449
  398MPD2     N 5989   3.645   0.120  18.571
  398MPD2    H5 5990   3.717   0.049  18.566
  398MPD2    N1 5991   3.282   4.583  18.470
  398MPD2    H7 5992   3.344   4.509  18.502
  399TMC3    C1 5993   3.107   4.429  18.450
  399TMC3    C2 5994   3.174   4.339  18.527
  399TMC3    C3 5995   3.121   4.214  18.545
  399TMC3    C4 5996   2.975   4.402  18.400
  399TMC3    C5 5997   2.930   4.275  18.421
  399TMC3    C6 5998   3.007   4.175  18.488
  399TMC3     C 5999   3.154   4.561  18.428
  399TMC3     O 6000   3.071   4.634  18.374
  399TMC3     H 6001   3.259   4.375  18.583
  399TMC3    H1 6002   2.936   4.472  18.326
  399TMC3    H2 6003   2.973   4.073  18.501
  399TMC3    C7 6004   2.802   4.228  18.368
  399TMC3    C8 6005   3.196   4.115  18.625
  399TMC3    O1 6006   2.781   4.110  18.367
  399TMC3    O2 6007   3.129   4.030  18.680
  400TMC3    C1 6008   1.786   3.169  16.958
  400TMC3    C2 6009   1.654   3.147  16.913
  400TMC3    C3 6010   1.575   3.251  16.883
  400TMC3    C4 6011   1.827   3.297  16.968
  400TMC3    C5 6012   1.738   3.404  16.945
  400TMC3    C6 6013   1.611   3.380  16.915
  400TMC3     C 6014   1.809   3.085  17.078
  400TMC3     O 6015   1.779   2.966  17.068
  400TMC3     H 6016   1.604   3.051  16.909
  400TMC3    H1 6017   1.933   3.312  16.984
  400TMC3    H2 6018   1.546   3.462  16.889
  400TMC3    C7 6019   1.762   3.537  17.000
  400TMC3    C8 6020   1.435   3.230  16.843
  400TMC3    O1 6021   1.873   3.589  17.002
  400TMC3    O2 6022   1.359   3.326  16.870
  401MPD2     C 6023   4.511   1.617  18.694
  401MPD2    C1 6024   4.628   1.538  18.685
  401MPD2    C2 6025   4.626   1.420  18.614
  401MPD2    C3 6026   4.515   1.376  18.550
  401MPD2    C4 6027   4.398   1.454  18.560
  401MPD2    C5 6028   4.400   1.577  18.628
  401MPD2     H 6029   4.710   1.351  18.620
  401MPD2    H1 6030   4.305   1.419  18.518
  401MPD2    H2 6031   4.496   1.703  18.758
  401MPD2    H3 6032   4.315   1.644  18.628
  401MPD2     N 6033   4.515   1.243  18.498
  401MPD2    H5 6034   4.605   1.197  18.495
  401MPD2    N1 6035   4.747   1.562  18.761
  401MPD2    H7 6036   0.040   1.493  18.756
  402TMC3    C1 6037   4.442   1.050  18.387
  402TMC3    C2 6038   4.443   0.963  18.497
  402TMC3    C3 6039   4.541   0.870  18.515
  402TMC3    C4 6040   4.548   1.044  18.297
  402TMC3    C5 6041   4.630   0.939  18.306
  402TMC3    C6 6042   4.626   0.849  18.409
  402TMC3     C 6043   4.407   1.184  18.425
  402TMC3     O 6044   4.292   1.225  18.399
  402TMC3     H 6045   4.356   0.971  18.562
  402TMC3    H1 6046   4.562   1.117  18.217
  402TMC3    H2 6047   4.702   0.773  18.425
  402TMC3    C7 6048   4.753   0.959  18.223
  402TMC3    C8 6049   4.605   0.875  18.646
  402TMC3    O1 6050   4.741   1.038  18.127
  402TMC3    O2 6051   4.697   0.800  18.659
  403MPD2     C 6052   3.409   0.080  13.602
  403MPD2    C1 6053   3.305   0.070  13.699
  403MPD2    C2 6054   3.337   0.055  13.832
  403MPD2    C3 6055   3.465   0.040  13.871
  403MPD2    C4 6056   3.566   0.055  13.776
  403MPD2    C5 6057   3.541   0.082  13.650
  403MPD2     H 6058   3.263   0.049  13.910
  403MPD2    H1 6059   3.672   0.066  13.794
  403MPD2    H2 6060   3.388   0.082  13.496
  403MPD2    H3 6061   3.617   0.102  13.576
  403MPD2     N 6062   3.486   4.766  13.994
  403MPD2    H5 6063   3.415   4.772  14.066
  403MPD2    N1 6064   3.173   0.076  13.649
  403MPD2    H7 6065   3.151   0.076  13.550
  404TMC3    C1 6066   2.939   0.022  13.665
  404TMC3    C2 6067   2.887   4.699  13.744
  404TMC3    C3 6068   2.828   4.590  13.688
  404TMC3    C4 6069   2.923   0.013  13.529
  404TMC3    C5 6070   2.858   4.684  13.475
  404TMC3    C6 6071   2.805   4.584  13.549
  404TMC3     C 6072   3.055   0.079  13.722
  404TMC3     O 6073   3.045   0.093  13.843
  404TMC3     H 6074   2.904   4.697  13.851
  404TMC3    H1 6075   2.978   0.084  13.467
  404TMC3    H2 6076   2.757   4.496  13.507
  404TMC3    C7 6077   2.845   4.687  13.331
  404TMC3    C8 6078   2.835   4.462  13.759
  404TMC3    O1 6079   2.906   4.774  13.267
  404TMC3    O2 6080   2.822   4.365  13.686
  405MPD2     C 6081   3.463   0.609  15.134
  405MPD2    C1 6082   3.409   0.548  15.021
  405MPD2    C2 6083   3.302   0.620  14.964
  405MPD2    C3 6084   3.241   0.722  15.021
  405MPD2    C4 6085   3.295   0.773  15.134
  405MPD2    C5 6086   3.410   0.724  15.183
  405MPD2     H 6087   3.253   0.594  14.871
  405MPD2    H1 6088   3.243   0.835  15.206
  405MPD2    H2 6089   3.562   0.581  15.168
  405MPD2    H3 6090   3.446   0.766  15.276
  405MPD2     N 6091   3.118   0.762  14.956
  405MPD2    H5 6092   3.074   0.695  14.894
  405MPD2    N1 6093   3.451   0.428  14.982
  405MPD2    H7 6094   3.541   0.393  15.013
  406TMC3    C1 6095   2.681   0.883  14.939
  406TMC3    C2 6096   2.647   0.757  14.908
  406TMC3    C3 6097   2.736   0.655  14.928
  406TMC3    C4 6098   2.804   0.926  14.981
  406TMC3    C5 6099   2.895   0.822  14.989
  406TMC3    C6 6100   2.866   0.692  14.963
  406TMC3     C 6101   2.600   0.979  14.876
  406TMC3     O 6102   2.602   1.096  14.915
  406TMC3     H 6103   2.542   0.732  14.898
  406TMC3    H1 6104   2.828   1.026  15.014
  406TMC3    H2 6105   2.936   0.609  14.963
  406TMC3    C7 6106   3.036   0.860  15.009
  406TMC3    C8 6107   2.721   0.541  14.851
  406TMC3    O1 6108   3.055   0.949  15.089
  406TMC3    O2 6109   2.651   0.560  14.754
  407MPD2     C 6110   0.777   1.961   9.815
  407MPD2    C1 6111   0.862   2.062   9.856
  407MPD2    C2 6112   0.828   2.129   9.974
  407MPD2    C3 6113   0.717   2.098  10.051
  407MPD2    C4 6114   0.638   1.996  10.009
  407MPD2    C5 6115   0.665   1.933   9.888
  407MPD2     H 6116   0.891   2.211  10.006
  407MPD2    H1 6117   0.549   1.960  10.059
  407MPD2    H2 6118   0.799   1.896   9.731
  407MPD2    H3 6119   0.597   1.855   9.854
  407MPD2     N 6120   0.683   2.152  10.175
  407MPD2    H5 6121   0.598   2.125  10.224
  407MPD2    N1 6122   0.971   2.103   9.774
  407MPD2    H7 6123   1.024   2.187   9.796
  408TMC3    C1 6124   1.162   2.064   9.628
  408TMC3    C2 6125   1.258   1.966   9.595
  408TMC3    C3 6126   1.387   2.002   9.566
  408TMC3    C4 6127   1.192   2.197   9.624
  408TMC3    C5 6128   1.315   2.238   9.578
  408TMC3    C6 6129   1.414   2.140   9.562
  408TMC3     C 6130   1.028   2.014   9.678
  408TMC3     O 6131   1.006   1.897   9.652
  408TMC3     H 6132   1.239   1.863   9.621
  408TMC3    H1 6133   1.120   2.278   9.636
  408TMC3    H2 6134   1.515   2.174   9.542
  408TMC3    C7 6135   1.357   2.372   9.574
  408TMC3    C8 6136   1.492   1.913   9.620
  408TMC3    O1 6137   1.480   2.390   9.592
  408TMC3    O2 6138   1.453   1.807   9.663
  409MPD2     C 6139   0.488   2.486  16.811
  409MPD2    C1 6140   0.501   2.538  16.939
  409MPD2    C2 6141   0.547   2.665  16.959
  409MPD2    C3 6142   0.565   2.755  16.854
  409MPD2    C4 6143   0.544   2.699  16.727
  409MPD2    C5 6144   0.517   2.567  16.707
  409MPD2     H 6145   0.558   2.684  17.066
  409MPD2    H1 6146   0.564   2.762  16.640
  409MPD2    H2 6147   0.459   2.385  16.781
  409MPD2    H3 6148   0.501   2.534  16.605
  409MPD2     N 6149   0.619   2.891  16.869
  409MPD2    H5 6150   0.630   2.945  16.784
  409MPD2    N1 6151   0.491   2.456  17.059
  409MPD2    H7 6152   0.530   2.498  17.142
  410TMC3    C1 6153   0.738   3.075  16.973
  410TMC3    C2 6154   0.843   3.101  17.059
  410TMC3    C3 6155   0.934   3.206  17.026
  410TMC3    C4 6156   0.714   3.153  16.867
  410TMC3    C5 6157   0.798   3.258  16.839
  410TMC3    C6 6158   0.910   3.285  16.917
  410TMC3     C 6159   0.667   2.945  16.984
  410TMC3     O 6160   0.692   2.884  17.090
  410TMC3     H 6161   0.850   3.040  17.149
  410TMC3    H1 6162   0.623   3.140  16.809
  410TMC3    H2 6163   0.981   3.362  16.891
  410TMC3    C7 6164   0.781   3.321  16.713
  410TMC3    C8 6165   1.071   3.199  17.076
  410TMC3    O1 6166   0.694   3.273  16.638
  410TMC3    O2 6167   1.129   3.302  17.105
  411MPD2     C 6168   0.728   3.349  14.629
  411MPD2    C1 6169   0.682   3.389  14.756
  411MPD2    C2 6170   0.604   3.303  14.826
  411MPD2    C3 6171   0.569   3.174  14.786
  411MPD2    C4 6172   0.599   3.143  14.653
  411MPD2    C5 6173   0.679   3.232  14.581
  411MPD2     H 6174   0.562   3.333  14.921
  411MPD2    H1 6175   0.559   3.054  14.605
  411MPD2    H2 6176   0.802   3.400  14.570
  411MPD2    H3 6177   0.717   3.198  14.485
  411MPD2     N 6178   0.468   3.095  14.836
  411MPD2    H5 6179   0.429   3.031  14.768
  411MPD2    N1 6180   0.716   3.520  14.795
  411MPD2    H7 6181   0.772   3.584  14.739
  412TMC3    C1 6182   0.288   3.021  14.955
  412TMC3    C2 6183   0.176   3.079  15.012
  412TMC3    C3 6184   0.055   3.021  14.989
  412TMC3    C4 6185   0.289   2.912  14.876
  412TMC3    C5 6186   0.168   2.866  14.844
  412TMC3    C6 6187   0.051   2.912  14.903
  412TMC3     C 6188   0.404   3.105  14.959
  412TMC3     O 6189   0.424   3.173  15.055
  412TMC3     H 6190   0.185   3.166  15.075
  412TMC3    H1 6191   0.373   2.860  14.832
  412TMC3    H2 6192   4.735   2.875  14.870
  412TMC3    C7 6193   0.155   2.758  14.753
  412TMC3    C8 6194   4.741   3.118  14.956
  412TMC3    O1 6195   0.078   2.666  14.781
  412TMC3    O2 6196   0.000   3.238  14.956
  413MPD2     C 6197   2.763   2.051  15.651
  413MPD2    C1 6198   2.658   1.997  15.578
  413MPD2    C2 6199   2.677   1.870  15.517
  413MPD2    C3 6200   2.804   1.813  15.515
  413MPD2    C4 6201   2.906   1.880  15.579
  413MPD2    C5 6202   2.892   1.996  15.638
  413MPD2     H 6203   2.606   1.825  15.448
  413MPD2    H1 6204   3.000   1.827  15.579
  413MPD2    H2 6205   2.755   2.141  15.710
  413MPD2    H3 6206   2.987   2.028  15.679
  413MPD2     N 6207   2.814   1.678  15.460
  413MPD2    H5 6208   2.761   1.652  15.378
  413MPD2    N1 6209   2.532   2.057  15.579
  413MPD2    H7 6210   2.509   2.114  15.660
  414TMC3    C1 6211   2.940   1.480  15.421
  414TMC3    C2 6212   3.023   1.375  15.476
  414TMC3    C3 6213   3.053   1.272  15.400
  414TMC3    C4 6214   2.891   1.459  15.297
  414TMC3    C5 6215   2.928   1.338  15.223
  414TMC3    C6 6216   3.010   1.244  15.276
  414TMC3     C 6217   2.912   1.591  15.503
  414TMC3     O 6218   2.975   1.597  15.610
  414TMC3     H 6219   3.064   1.383  15.576
  414TMC3    H1 6220   2.837   1.538  15.245
  414TMC3    H2 6221   3.022   1.153  15.218
  414TMC3    C7 6222   2.858   1.319  15.094
  414TMC3    C8 6223   3.152   1.182  15.438
  414TMC3    O1 6224   2.736   1.326  15.102
  414TMC3    O2 6225   3.144   1.065  15.402
  415TMC3    C1 6226   3.443   4.179  10.354
  415TMC3    C2 6227   3.510   4.259  10.262
  415TMC3    C3 6228   3.572   4.193  10.164
  415TMC3    C4 6229   3.439   4.045  10.357
  415TMC3    C5 6230   3.513   3.984  10.259
  415TMC3    C6 6231   3.566   4.057  10.154
  415TMC3     C 6232   3.385   4.239  10.474
  415TMC3     O 6233   3.288   4.191  10.522
  415TMC3     H 6234   3.506   4.366  10.280
  415TMC3    H1 6235   3.403   3.996  10.446
  415TMC3    H2 6236   3.603   4.000  10.070
  415TMC3    C7 6237   3.475   3.850  10.225
  415TMC3    C8 6238   3.601   4.272  10.044
  415TMC3    O1 6239   3.488   3.805  10.109
  415TMC3    O2 6240   3.633   4.209   9.944
  416MPD2     C 6241   0.270   3.267  12.011
  416MPD2    C1 6242   0.154   3.278  11.945
  416MPD2    C2 6243   0.143   3.241  11.814
  416MPD2    C3 6244   0.255   3.178  11.757
  416MPD2    C4 6245   0.367   3.143  11.834
  416MPD2    C5 6246   0.369   3.195  11.961
  416MPD2     H 6247   0.054   3.263  11.756
  416MPD2    H1 6248   0.457   3.094  11.801
  416MPD2    H2 6249   0.290   3.316  12.106
  416MPD2    H3 6250   0.460   3.176  12.016
  416MPD2     N 6251   0.251   3.108  11.633
  416MPD2    H5 6252   0.328   3.050  11.601
  416MPD2    N1 6253   0.053   3.353  12.010
  416MPD2    H7 6254   0.078   3.389  12.102
  417TMC3    C1 6255   4.624   3.462  12.059
  417TMC3    C2 6256   4.652   3.436  12.193
  417TMC3    C3 6257   4.625   3.532  12.283
  417TMC3    C4 6258   4.569   3.579  12.013
  417TMC3    C5 6259   4.524   3.669  12.110
  417TMC3    C6 6260   4.555   3.643  12.243
  417TMC3     C 6261   4.702   3.388  11.962
  417TMC3     O 6262   4.656   3.373  11.848
  417TMC3     H 6263   4.711   3.348  12.216
  417TMC3    H1 6264   4.547   3.601  11.909
  417TMC3    H2 6265   4.529   3.715  12.320
  417TMC3    C7 6266   4.425   3.773  12.072
  417TMC3    C8 6267   4.633   3.522  12.429
  417TMC3    O1 6268   4.400   3.807  11.958
  417TMC3    O2 6269   4.667   3.623  12.490
  418TMC3    C1 6270   4.040   0.312  18.556
  418TMC3    C2 6271   3.916   0.247  18.549
  418TMC3    C3 6272   3.829   0.251  18.653
  418TMC3    C4 6273   4.062   0.390  18.667
  418TMC3    C5 6274   3.970   0.388  18.772
  418TMC3    C6 6275   3.855   0.323  18.768
  418TMC3     C 6276   4.112   0.348  18.433
  418TMC3     O 6277   4.176   0.451  18.436
  418TMC3     H 6278   3.873   0.222  18.453
  418TMC3    H1 6279   4.147   0.455  18.679
  418TMC3    H2 6280   3.783   0.330  18.849
  418TMC3    C7 6281   4.005   0.470  18.890
  418TMC3    C8 6282   3.690   0.243  18.625
  418TMC3    O1 6283   4.075   0.565  18.867
  418TMC3    O2 6284   3.618   0.333  18.675
  419MPD2     C 6285   2.341   3.225  13.124
  419MPD2    C1 6286   2.282   3.327  13.059
  419MPD2    C2 6287   2.219   3.434  13.121
  419MPD2    C3 6288   2.208   3.425  13.261
  419MPD2    C4 6289   2.270   3.325  13.328
  419MPD2    C5 6290   2.337   3.223  13.261
  419MPD2     H 6291   2.169   3.516  13.069
  419MPD2    H1 6292   2.257   3.324  13.436
  419MPD2    H2 6293   2.414   3.164  13.070
  419MPD2    H3 6294   2.386   3.145  13.318
  419MPD2     N 6295   2.124   3.526  13.319
  419MPD2    H5 6296   2.117   3.605  13.256
  419MPD2    N1 6297   2.266   3.335  12.918
  419MPD2    H7 6298   2.213   3.419  12.896
  420TMC3    C1 6299   2.013   3.667  13.477
  420TMC3    C2 6300   1.946   3.738  13.379
  420TMC3    C3 6301   1.871   3.842  13.420
  420TMC3    C4 6302   2.010   3.703  13.606
  420TMC3    C5 6303   1.943   3.820  13.640
  420TMC3    C6 6304   1.878   3.896  13.543
  420TMC3     C 6305   2.085   3.543  13.449
  420TMC3     O 6306   2.130   3.478  13.542
  420TMC3     H 6307   1.942   3.700  13.277
  420TMC3    H1 6308   2.064   3.650  13.684
  420TMC3    H2 6309   1.798   3.965  13.565
  420TMC3    C7 6310   1.852   3.769  13.739
  420TMC3    C8 6311   1.753   3.863  13.351
  420TMC3    O1 6312   1.895   3.691  13.824
  420TMC3    O2 6313   1.728   3.967  13.291
  421TMC3    C1 6314   3.590   4.656  14.165
  421TMC3    C2 6315   3.527   4.735  14.260
  421TMC3    C3 6316   3.540   4.691  14.386
  421TMC3    C4 6317   3.643   4.532  14.196
  421TMC3    C5 6318   3.640   4.493  14.324
  421TMC3    C6 6319   3.592   4.568  14.426
  421TMC3     C 6320   3.599   4.695  14.032
  421TMC3     O 6321   3.702   4.668  13.971
  421TMC3     H 6322   3.472   0.044  14.236
  421TMC3    H1 6323   3.686   4.475  14.114
  421TMC3    H2 6324   3.616   4.540  14.528
  421TMC3    C7 6325   3.767   4.430  14.365
  421TMC3    C8 6326   3.571   0.013  14.486
  421TMC3    O1 6327   3.865   4.455  14.302
  421TMC3    O2 6328   3.667   4.775  14.559
  422TMC3    C1 6329   0.915   1.639  13.124
  422TMC3    C2 6330   0.868   1.764  13.145
  422TMC3    C3 6331   0.736   1.777  13.166
  422TMC3    C4 6332   0.827   1.528  13.116
  422TMC3    C5 6333   0.694   1.552  13.149
  422TMC3    C6 6334   0.649   1.677  13.172
  422TMC3     C 6335   1.034   1.634  13.033
  422TMC3     O 6336   1.077   1.727  12.969
  422TMC3     H 6337   0.940   1.845  13.142
  422TMC3    H1 6338   0.863   1.430  13.086
  422TMC3    H2 6339   0.543   1.700  13.176
  422TMC3    C7 6340   0.596   1.455  13.101
  422TMC3    C8 6341   0.684   1.911  13.180
  422TMC3    O1 6342   0.631   1.389  13.006
  422TMC3    O2 6343   0.761   2.005  13.156
  423MPD2     C 6344   2.374   2.680  18.631
  423MPD2    C1 6345   2.315   2.558  18.658
  423MPD2    C2 6346   2.254   2.485  18.557
  423MPD2    C3 6347   2.269   2.527  18.426
  423MPD2    C4 6348   2.328   2.647  18.401
  423MPD2    C5 6349   2.378   2.722  18.504
  423MPD2     H 6350   2.200   2.395  18.584
  423MPD2    H1 6351   2.343   2.687  18.302
  423MPD2    H2 6352   2.424   2.748  18.698
  423MPD2    H3 6353   2.420   2.821  18.490
  423MPD2     N 6354   2.222   2.452  18.311
  423MPD2    H5 6355   2.217   2.509  18.228
  423MPD2    N1 6356   2.318   2.501  18.788
  423MPD2    H7 6357   2.258   2.421  18.802
  424TMC3    C1 6358   2.349   2.491  19.016
  424TMC3    C2 6359   2.442   2.463  19.110
  424TMC3    C3 6360   2.407   2.398  19.219
  424TMC3    C4 6361   2.216   2.487  19.041
  424TMC3    C5 6362   2.180   2.414  19.150
  424TMC3    C6 6363   2.273   2.364  19.240
  424TMC3     C 6364   2.385   2.548  18.898
  424TMC3     O 6365   2.470   2.631  18.916
  424TMC3     H 6366   2.547   2.478  19.088
  424TMC3    H1 6367   2.142   2.522  18.969
  424TMC3    H2 6368   2.243   2.322  19.335
  424TMC3    C7 6369   2.034   2.416  19.196
  424TMC3    C8 6370   2.511   2.324  19.291
  424TMC3    O1 6371   2.004   2.391  19.312
  424TMC3    O2 6372   2.485   2.223  19.356
  425MPD2     C 6373   1.568   1.639  17.994
  425MPD2    C1 6374   1.549   1.571  17.875
  425MPD2    C2 6375   1.422   1.589  17.819
  425MPD2    C3 6376   1.322   1.664  17.882
  425MPD2    C4 6377   1.355   1.726  17.999
  425MPD2    C5 6378   1.481   1.723  18.048
  425MPD2     H 6379   1.396   1.542  17.725
  425MPD2    H1 6380   1.283   1.786  18.053
  425MPD2    H2 6381   1.668   1.647  18.036
  425MPD2    H3 6382   1.507   1.791  18.128
  425MPD2     N 6383   1.198   1.672  17.818
  425MPD2    H5 6384   1.189   1.626  17.728
  425MPD2    N1 6385   1.656   1.505  17.806
  425MPD2    H7 6386   1.742   1.496  17.859
  426TMC3    C1 6387   1.758   1.362  17.666
  426TMC3    C2 6388   1.777   1.312  17.536
  426TMC3    C3 6389   1.857   1.207  17.526
  426TMC3    C4 6390   1.815   1.298  17.774
  426TMC3    C5 6391   1.895   1.193  17.751
  426TMC3    C6 6392   1.932   1.149  17.623
  426TMC3     C 6393   1.641   1.437  17.690
  426TMC3     O 6394   1.564   1.464  17.598
  426TMC3     H 6395   1.728   1.359  17.451
  426TMC3    H1 6396   1.787   1.323  17.876
  426TMC3    H2 6397   1.991   1.059  17.609
  426TMC3    C7 6398   1.933   1.103  17.859
  426TMC3    C8 6399   1.830   1.116  17.418
  426TMC3    O1 6400   2.045   1.059  17.872
  426TMC3    O2 6401   1.916   1.035  17.381
  427MPD2     C 6402   4.486   3.287  15.201
  427MPD2    C1 6403   4.517   3.351  15.324
  427MPD2    C2 6404   4.429   3.445  15.366
  427MPD2    C3 6405   4.316   3.482  15.296
  427MPD2    C4 6406   4.291   3.420  15.175
  427MPD2    C5 6407   4.381   3.329  15.128
  427MPD2     H 6408   4.429   3.490  15.465
  427MPD2    H1 6409   4.204   3.450  15.118
  427MPD2    H2 6410   4.537   3.199  15.163
  427MPD2    H3 6411   4.371   3.277  15.034
  427MPD2     N 6412   4.210   3.570  15.344
  427MPD2    H5 6413   4.130   3.577  15.283
  427MPD2    N1 6414   4.624   3.307  15.408
  427MPD2    H7 6415   4.646   3.370  15.484
  428TMC3    C1 6416   0.014   3.167  15.489
  428TMC3    C2 6417   0.035   3.035  15.508
  428TMC3    C3 6418   0.144   2.989  15.575
  428TMC3    C4 6419   0.106   3.261  15.538
  428TMC3    C5 6420   0.209   3.211  15.615
  428TMC3    C6 6421   0.230   3.081  15.636
  428TMC3     C 6422   4.707   3.196  15.382
  428TMC3     O 6423   4.681   3.101  15.308
  428TMC3     H 6424   4.750   2.961  15.463
  428TMC3    H1 6425   0.099   3.367  15.515
  428TMC3    H2 6426   0.326   3.049  15.673
  428TMC3    C7 6427   0.324   3.292  15.650
  428TMC3    C8 6428   0.153   2.852  15.621
  428TMC3    O1 6429   0.359   3.293  15.768
  428TMC3    O2 6430   0.069   2.770  15.577
  429MPD2     C 6431   0.659   3.551  17.938
  429MPD2    C1 6432   0.765   3.475  17.887
  429MPD2    C2 6433   0.867   3.552  17.832
  429MPD2    C3 6434   0.857   3.690  17.815
  429MPD2    C4 6435   0.756   3.755  17.868
  429MPD2    C5 6436   0.651   3.689  17.928
  429MPD2     H 6437   0.954   3.505  17.789
  429MPD2    H1 6438   0.751   3.863  17.871
  429MPD2    H2 6439   0.572   3.509  17.986
  429MPD2    H3 6440   0.577   3.747  17.980
  429MPD2     N 6441   0.961   3.757  17.742
  429MPD2    H5 6442   1.031   3.702  17.693
  429MPD2    N1 6443   0.776   3.338  17.907
  429MPD2    H7 6444   0.862   3.301  17.867
  430TMC3    C1 6445   1.065   3.939  17.623
  430TMC3    C2 6446   1.036   4.049  17.556
  430TMC3    C3 6447   1.130   4.102  17.472
  430TMC3    C4 6448   1.181   3.858  17.607
  430TMC3    C5 6449   1.270   3.919  17.521
  430TMC3    C6 6450   1.246   4.038  17.457
  430TMC3     C 6451   0.963   3.894  17.719
  430TMC3     O 6452   0.904   3.988  17.772
  430TMC3     H 6453   0.932   4.079  17.554
  430TMC3    H1 6454   1.211   3.777  17.672
  430TMC3    H2 6455   1.317   4.087  17.391
  430TMC3    C7 6456   1.376   3.833  17.457
  430TMC3    C8 6457   1.086   4.159  17.347
  430TMC3    O1 6458   1.365   3.714  17.462
  430TMC3    O2 6459   1.010   4.088  17.277
  431MPD2     C 6460   1.859   3.776  13.014
  431MPD2    C1 6461   1.931   3.802  12.902
  431MPD2    C2 6462   1.931   3.719  12.794
  431MPD2    C3 6463   1.861   3.601  12.810
  431MPD2    C4 6464   1.798   3.574  12.921
  431MPD2    C5 6465   1.799   3.657  13.026
  431MPD2     H 6466   1.985   3.741  12.703
  431MPD2    H1 6467   1.753   3.476  12.936
  431MPD2    H2 6468   1.846   3.841  13.101
  431MPD2    H3 6469   1.727   3.645  13.107
  431MPD2     N 6470   1.887   3.484  12.729
  431MPD2    H5 6471   1.851   3.394  12.760
  431MPD2    N1 6472   2.001   3.927  12.895
  431MPD2    H7 6473   2.061   3.941  12.814
  432TMC3    C1 6474   2.027   3.354  12.598
  432TMC3    C2 6475   2.095   3.345  12.479
  432TMC3    C3 6476   2.218   3.288  12.473
  432TMC3    C4 6477   2.092   3.308  12.713
  432TMC3    C5 6478   2.218   3.262  12.702
  432TMC3    C6 6479   2.288   3.249  12.583
  432TMC3     C 6480   1.965   3.485  12.619
  432TMC3     O 6481   2.013   3.568  12.541
  432TMC3     H 6482   2.064   3.394  12.387
  432TMC3    H1 6483   2.044   3.317  12.810
  432TMC3    H2 6484   2.390   3.214  12.570
  432TMC3    C7 6485   2.288   3.235  12.822
  432TMC3    C8 6486   2.284   3.264  12.352
  432TMC3    O1 6487   2.370   3.143  12.828
  432TMC3    O2 6488   2.229   3.190  12.273
  433MPD2     C 6489   0.969   2.464  11.163
  433MPD2    C1 6490   0.871   2.420  11.249
  433MPD2    C2 6491   0.893   2.452  11.386
  433MPD2    C3 6492   1.001   2.528  11.432
  433MPD2    C4 6493   1.093   2.564  11.336
  433MPD2    C5 6494   1.078   2.532  11.199
  433MPD2     H 6495   0.821   2.415  11.458
  433MPD2    H1 6496   1.177   2.616  11.379
  433MPD2    H2 6497   0.959   2.430  11.061
  433MPD2    H3 6498   1.157   2.563  11.132
  433MPD2     N 6499   1.015   2.547  11.567
  433MPD2    H5 6500   0.963   2.494  11.637
  433MPD2    N1 6501   0.765   2.341  11.204
  433MPD2    H7 6502   0.766   2.308  11.108
  434TMC3    C1 6503   0.621   2.162  11.237
  434TMC3    C2 6504   0.625   2.056  11.320
  434TMC3    C3 6505   0.639   1.927  11.274
  434TMC3    C4 6506   0.626   2.134  11.108
  434TMC3    C5 6507   0.634   2.008  11.063
  434TMC3    C6 6508   0.638   1.904  11.141
  434TMC3     C 6509   0.669   2.288  11.289
  434TMC3     O 6510   0.637   2.319  11.404
  434TMC3     H 6511   0.629   2.073  11.427
  434TMC3    H1 6512   0.611   2.212  11.033
  434TMC3    H2 6513   0.641   1.802  11.104
  434TMC3    C7 6514   0.659   1.986  10.927
  434TMC3    C8 6515   0.723   1.843  11.364
  434TMC3    O1 6516   0.721   2.073  10.867
  434TMC3    O2 6517   0.716   1.866  11.482
  435MPD2     C 6518   3.095   2.324  15.629
  435MPD2    C1 6519   3.037   2.314  15.755
  435MPD2    C2 6520   3.119   2.266  15.858
  435MPD2    C3 6521   3.257   2.249  15.841
  435MPD2    C4 6522   3.307   2.265  15.716
  435MPD2    C5 6523   3.225   2.303  15.614
  435MPD2     H 6524   3.069   2.280  15.954
  435MPD2    H1 6525   3.413   2.253  15.693
  435MPD2    H2 6526   3.048   2.353  15.535
  435MPD2    H3 6527   3.255   2.331  15.514
  435MPD2     N 6528   3.327   2.210  15.956
  435MPD2    H5 6529   3.275   2.206  16.044
  435MPD2    N1 6530   2.903   2.349  15.788
  435MPD2    H7 6531   2.875   2.350  15.885
  436TMC3    C1 6532   2.573   2.454  15.974
  436TMC3    C2 6533   2.695   2.424  15.912
  436TMC3    C3 6534   2.686   2.399  15.778
  436TMC3    C4 6535   2.456   2.453  15.910
  436TMC3    C5 6536   2.457   2.416  15.779
  436TMC3    C6 6537   2.571   2.391  15.713
  436TMC3     C 6538   2.576   2.522  16.099
  436TMC3     O 6539   2.684   2.570  16.131
  436TMC3     H 6540   2.784   2.432  15.973
  436TMC3    H1 6541   2.368   2.501  15.951
  436TMC3    H2 6542   2.564   2.362  15.609
  436TMC3    C7 6543   2.335   2.404  15.706
  436TMC3    C8 6544   2.807   2.380  15.695
  436TMC3    O1 6545   2.346   2.407  15.580
  436TMC3    O2 6546   2.803   2.384  15.573
  437TMC3    C1 6547   1.671   4.406  12.794
  437TMC3    C2 6548   1.574   4.502  12.826
  437TMC3    C3 6549   1.508   4.561  12.726
  437TMC3    C4 6550   1.699   4.382  12.664
  437TMC3    C5 6551   1.630   4.454  12.566
  437TMC3    C6 6552   1.535   4.538  12.593
  437TMC3     C 6553   1.788   4.409  12.876
  437TMC3     O 6554   1.885   4.457  12.817
  437TMC3     H 6555   1.543   4.522  12.928
  437TMC3    H1 6556   1.775   4.309  12.640
  437TMC3    H2 6557   1.482   4.591  12.514
  437TMC3    C7 6558   1.718   4.496  12.457
  437TMC3    C8 6559   1.413   4.670  12.745
  437TMC3    O1 6560   1.678   4.504  12.339
  437TMC3    O2 6561   1.376   4.736  12.651
  438MPD2     C 6562   3.934   0.480  17.218
  438MPD2    C1 6563   4.024   0.385  17.258
  438MPD2    C2 6564   4.016   0.320  17.385
  438MPD2    C3 6565   3.914   0.355  17.469
  438MPD2    C4 6566   3.842   0.468  17.442
  438MPD2    C5 6567   3.851   0.524  17.315
  438MPD2     H 6568   4.088   0.241  17.400
  438MPD2    H1 6569   3.768   0.502  17.514
  438MPD2    H2 6570   3.929   0.526  17.120
  438MPD2    H3 6571   3.783   0.605  17.291
  438MPD2     N 6572   3.881   0.278  17.584
  438MPD2    H5 6573   3.827   0.322  17.658
  438MPD2    N1 6574   4.123   0.328  17.172
  438MPD2    H7 6575   4.196   0.272  17.215
  439TMC3    C1 6576   4.219   0.240  16.990
  439TMC3    C2 6577   4.185   0.175  16.876
  439TMC3    C3 6578   4.238   0.053  16.839
  439TMC3    C4 6579   4.294   0.168  17.080
  439TMC3    C5 6580   4.335   0.042  17.045
  439TMC3    C6 6581   4.309   4.758  16.927
  439TMC3     C 6582   4.125   0.340  17.035
  439TMC3     O 6583   4.042   0.381  16.958
  439TMC3     H 6584   4.125   0.221  16.798
  439TMC3    H1 6585   4.326   0.212  17.173
  439TMC3    H2 6586   4.362   4.668  16.902
  439TMC3    C7 6587   4.430   4.755  17.136
  439TMC3    C8 6588   4.259   0.020  16.694
  439TMC3    O1 6589   4.490   0.044  17.215
  439TMC3    O2 6590   4.335   4.708  16.673
  440MPD2     C 6591   2.773   0.630  15.290
  440MPD2    C1 6592   2.863   0.733  15.336
  440MPD2    C2 6593   2.990   0.693  15.371
  440MPD2    C3 6594   3.037   0.561  15.359
  440MPD2    C4 6595   2.950   0.471  15.304
  440MPD2    C5 6596   2.819   0.502  15.277
  440MPD2     H 6597   3.059   0.767  15.409
  440MPD2    H1 6598   2.976   0.372  15.270
  440MPD2    H2 6599   2.669   0.641  15.262
  440MPD2    H3 6600   2.748   0.433  15.234
  440MPD2     N 6601   3.164   0.520  15.412
  440MPD2    H5 6602   3.179   0.422  15.393
  440MPD2    N1 6603   2.819   0.861  15.362
  440MPD2    H7 6604   2.888   0.920  15.407
  441TMC3    C1 6605   3.367   0.506  15.528
  441TMC3    C2 6606   3.470   0.588  15.550
  441TMC3    C3 6607   3.523   0.604  15.681
  441TMC3    C4 6608   3.324   0.418  15.625
  441TMC3    C5 6609   3.376   0.437  15.750
  441TMC3    C6 6610   3.480   0.522  15.779
  441TMC3     C 6611   3.263   0.594  15.476
  441TMC3     O 6612   3.270   0.715  15.494
  441TMC3     H 6613   3.508   0.651  15.471
  441TMC3    H1 6614   3.244   0.349  15.605
  441TMC3    H2 6615   3.525   0.533  15.876
  441TMC3    C7 6616   3.316   0.354  15.853
  441TMC3    C8 6617   3.536   0.742  15.725
  441TMC3    O1 6618   3.212   0.300  15.819
  441TMC3    O2 6619   3.580   0.760  15.837
  442MPD2     C 6620   1.159   1.186  16.917
  442MPD2    C1 6621   1.044   1.152  16.855
  442MPD2    C2 6622   1.019   1.023  16.805
  442MPD2    C3 6623   1.127   0.933  16.798
  442MPD2    C4 6624   1.248   0.967  16.860
  442MPD2    C5 6625   1.263   1.094  16.920
  442MPD2     H 6626   0.923   1.013  16.755
  442MPD2    H1 6627   1.331   0.899  16.867
  442MPD2    H2 6628   1.162   1.285  16.962
  442MPD2    H3 6629   1.357   1.119  16.968
  442MPD2     N 6630   1.122   0.795  16.750
  442MPD2    H5 6631   1.216   0.757  16.740
  442MPD2    N1 6632   0.936   1.247  16.853
  442MPD2    H7 6633   0.841   1.215  16.832
  443TMC3    C1 6634   0.812   1.439  16.864
  443TMC3    C2 6635   0.797   1.537  16.777
  443TMC3    C3 6636   0.667   1.577  16.746
  443TMC3    C4 6637   0.713   1.382  16.933
  443TMC3    C5 6638   0.594   1.441  16.922
  443TMC3    C6 6639   0.566   1.534  16.824
  443TMC3     C 6640   0.942   1.384  16.866
  443TMC3     O 6641   1.036   1.462  16.854
  443TMC3     H 6642   0.878   1.573  16.715
  443TMC3    H1 6643   0.738   1.323  17.020
  443TMC3    H2 6644   0.463   1.565  16.817
  443TMC3    C7 6645   0.497   1.380  17.004
  443TMC3    C8 6646   0.638   1.581  16.601
  443TMC3    O1 6647   0.520   1.271  17.053
  443TMC3    O2 6648   0.722   1.541  16.519
  444MPD2     C 6649   1.449   0.563  17.407
  444MPD2    C1 6650   1.346   0.496  17.341
  444MPD2    C2 6651   1.378   0.394  17.254
  444MPD2    C3 6652   1.510   0.368  17.223
  444MPD2    C4 6653   1.610   0.439  17.284
  444MPD2    C5 6654   1.583   0.539  17.367
  444MPD2     H 6655   1.290   0.345  17.213
  444MPD2    H1 6656   1.713   0.416  17.258
  444MPD2    H2 6657   1.427   0.629  17.490
  444MPD2    H3 6658   1.670   0.592  17.404
  444MPD2     N 6659   1.535   0.252  17.143
  444MPD2    H5 6660   1.461   0.201  17.095
  444MPD2    N1 6661   1.206   0.512  17.374
  444MPD2    H7 6662   1.146   0.438  17.338
  445TMC3    C1 6663   1.651   0.096  17.006
  445TMC3    C2 6664   1.534   0.048  16.957
  445TMC3    C3 6665   1.532   4.722  16.872
  445TMC3    C4 6666   1.764   0.036  16.976
  445TMC3    C5 6667   1.763   4.701  16.903
  445TMC3    C6 6668   1.649   4.649  16.844
  445TMC3     C 6669   1.659   0.217  17.085
  445TMC3     O 6670   1.765   0.274  17.104
  445TMC3     H 6671   1.448   0.114  16.963
  445TMC3    H1 6672   1.858   0.077  17.012
  445TMC3    H2 6673   1.655   4.562  16.779
  445TMC3    C7 6674   1.898   4.659  16.861
  445TMC3    C8 6675   1.406   4.705  16.798
  445TMC3    O1 6676   1.994   4.734  16.875
  445TMC3    O2 6677   1.315   0.004  16.816
  446MPD2     C 6678   0.583   1.698  11.953
  446MPD2    C1 6679   0.523   1.782  11.857
  446MPD2    C2 6680   0.608   1.863  11.780
  446MPD2    C3 6681   0.744   1.853  11.800
  446MPD2    C4 6682   0.801   1.769  11.896
  446MPD2    C5 6683   0.714   1.698  11.971
  446MPD2     H 6684   0.575   1.928  11.700
  446MPD2    H1 6685   0.906   1.766  11.925
  446MPD2    H2 6686   0.522   1.645  12.025
  446MPD2    H3 6687   0.762   1.636  12.045
  446MPD2     N 6688   0.831   1.944  11.725
  446MPD2    H5 6689   0.780   1.998  11.655
  446MPD2    N1 6690   0.386   1.794  11.839
  446MPD2    H7 6691   0.355   1.861  11.769
  447TMC3    C1 6692   1.034   2.031  11.620
  447TMC3    C2 6693   0.984   2.043  11.487
  447TMC3    C3 6694   1.082   2.044  11.389
  447TMC3    C4 6695   1.170   2.041  11.647
  447TMC3    C5 6696   1.261   2.024  11.544
  447TMC3    C6 6697   1.220   2.019  11.413
  447TMC3     C 6698   0.971   1.948  11.722
  447TMC3     O 6699   1.050   1.880  11.787
  447TMC3     H 6700   0.879   2.062  11.472
  447TMC3    H1 6701   1.210   2.039  11.747
  447TMC3    H2 6702   1.291   2.012  11.331
  447TMC3    C7 6703   1.396   1.970  11.567
  447TMC3    C8 6704   1.047   2.086  11.255
  447TMC3    O1 6705   1.469   1.939  11.473
  447TMC3    O2 6706   0.936   2.065  11.215
  448TMC3    C1 6707   3.881   1.947  17.163
  448TMC3    C2 6708   3.836   1.824  17.129
  448TMC3    C3 6709   3.866   1.721  17.220
  448TMC3    C4 6710   3.952   1.974  17.279
  448TMC3    C5 6711   3.973   1.871  17.364
  448TMC3    C6 6712   3.935   1.746  17.334
  448TMC3     C 6713   3.815   2.059  17.092
  448TMC3     O 6714   3.727   2.028  17.015
  448TMC3     H 6715   3.776   1.816  17.039
  448TMC3    H1 6716   3.994   2.067  17.315
  448TMC3    H2 6717   3.975   1.666  17.394
  448TMC3    C7 6718   4.053   1.900  17.483
  448TMC3    C8 6719   3.865   1.588  17.169
  448TMC3    O1 6720   4.136   1.979  17.461
  448TMC3    O2 6721   3.934   1.509  17.235
  449MPD2     C 6722   0.857   0.040  14.267
  449MPD2    C1 6723   0.739   0.084  14.223
  449MPD2    C2 6724   0.628   0.025  14.275
  449MPD2    C3 6725   0.635   4.702  14.370
  449MPD2    C4 6726   0.760   4.651  14.411
  449MPD2    C5 6727   0.870   4.722  14.356
  449MPD2     H 6728   0.529   0.059  14.247
  449MPD2    H1 6729   0.779   4.575  14.486
  449MPD2    H2 6730   0.950   0.087  14.235
  449MPD2    H3 6731   0.964   4.687  14.397
  449MPD2     N 6732   0.506   4.658  14.401
  449MPD2    H5 6733   0.435   4.675  14.331
  449MPD2    N1 6734   0.713   0.202  14.148
  449MPD2    H7 6735   0.617   0.229  14.135
  450TMC3    C1 6736   0.735   0.391  14.029
  450TMC3    C2 6737   0.757   0.378  13.893
  450TMC3    C3 6738   0.643   0.364  13.814
  450TMC3    C4 6739   0.612   0.416  14.078
  450TMC3    C5 6740   0.503   0.424  13.990
  450TMC3    C6 6741   0.523   0.388  13.857
  450TMC3     C 6742   0.805   0.285  14.095
  450TMC3     O 6743   0.921   0.265  14.065
  450TMC3     H 6744   0.856   0.353  13.858
  450TMC3    H1 6745   0.602   0.445  14.182
  450TMC3    H2 6746   0.438   0.367  13.793
  450TMC3    C7 6747   0.382   0.359  14.054
  450TMC3    C8 6748   0.656   0.255  13.717
  450TMC3    O1 6749   0.408   0.302  14.154
  450TMC3    O2 6750   0.555   0.177  13.705
  451MPD2     C 6751   2.312   3.728  19.546
  451MPD2    C1 6752   2.256   3.788  19.445
  451MPD2    C2 6753   2.232   3.720  19.327
  451MPD2    C3 6754   2.257   3.590  19.315
  451MPD2    C4 6755   2.312   3.529  19.424
  451MPD2    C5 6756   2.343   3.597  19.532
  451MPD2     H 6757   2.182   3.773  19.247
  451MPD2    H1 6758   2.340   3.424  19.421
  451MPD2    H2 6759   2.327   3.784  19.638
  451MPD2    H3 6760   2.391   3.551  19.618
  451MPD2     N 6761   2.226   3.514  19.194
  451MPD2    H5 6762   2.245   3.415  19.202
  451MPD2    N1 6763   2.217   3.921  19.454
  451MPD2    H7 6764   2.210   3.964  19.546
  452TMC3    C1 6765   2.107   3.459  18.988
  452TMC3    C2 6766   2.059   3.345  19.048
  452TMC3    C3 6767   1.978   3.268  18.959
  452TMC3    C4 6768   2.101   3.479  18.854
  452TMC3    C5 6769   2.039   3.385  18.780
  452TMC3    C6 6770   1.969   3.281  18.824
  452TMC3     C 6771   2.174   3.560  19.071
  452TMC3     O 6772   2.183   3.673  19.025
  452TMC3     H 6773   2.066   3.331  19.156
  452TMC3    H1 6774   2.155   3.566  18.820
  452TMC3    H2 6775   1.922   3.204  18.763
  452TMC3    C7 6776   2.060   3.391  18.639
  452TMC3    C8 6777   1.874   3.200  19.031
  452TMC3    O1 6778   2.158   3.453  18.601
  452TMC3    O2 6779   1.915   3.152  19.135
  453TMC3    C1 6780   2.855   0.869  12.051
  453TMC3    C2 6781   2.864   0.731  12.024
  453TMC3    C3 6782   2.844   0.693  11.891
  453TMC3    C4 6783   2.824   0.960  11.958
  453TMC3    C5 6784   2.832   0.919  11.827
  453TMC3    C6 6785   2.847   0.790  11.794
  453TMC3     C 6786   2.955   0.922  12.138
  453TMC3     O 6787   3.043   0.988  12.086
  453TMC3     H 6788   2.856   0.670  12.113
  453TMC3    H1 6789   2.813   1.064  11.985
  453TMC3    H2 6790   2.849   0.757  11.691
  453TMC3    C7 6791   2.902   1.005  11.736
  453TMC3    C8 6792   2.796   0.563  11.860
  453TMC3    O1 6793   2.909   1.000  11.612
  453TMC3    O2 6794   2.749   0.541  11.751
  454MPD2     C 6795   2.211   0.178  16.545
  454MPD2    C1 6796   2.133   0.259  16.470
  454MPD2    C2 6797   2.090   0.384  16.510
  454MPD2    C3 6798   2.110   0.430  16.639
  454MPD2    C4 6799   2.201   0.359  16.720
  454MPD2    C5 6800   2.239   0.235  16.669
  454MPD2     H 6801   2.023   0.437  16.444
  454MPD2    H1 6802   2.236   0.397  16.815
  454MPD2    H2 6803   2.251   0.078  16.528
  454MPD2    H3 6804   2.311   0.182  16.730
  454MPD2     N 6805   2.046   0.540  16.699
  454MPD2    H5 6806   2.065   0.540  16.799
  454MPD2    N1 6807   2.092   0.230  16.341
  454MPD2    H7 6808   2.025   0.299  16.307
  455TMC3    C1 6809   1.851   0.658  16.721
  455TMC3    C2 6810   1.868   0.679  16.853
  455TMC3    C3 6811   1.777   0.631  16.937
  455TMC3    C4 6812   1.751   0.584  16.665
  455TMC3    C5 6813   1.666   0.527  16.752
  455TMC3    C6 6814   1.671   0.552  16.887
  455TMC3     C 6815   1.965   0.625  16.637
  455TMC3     O 6816   1.963   0.655  16.517
  455TMC3     H 6817   1.962   0.724  16.883
  455TMC3    H1 6818   1.748   0.563  16.559
  455TMC3    H2 6819   1.609   0.498  16.957
  455TMC3    C7 6820   1.624   0.395  16.712
  455TMC3    C8 6821   1.765   0.700  17.062
  455TMC3    O1 6822   1.512   0.361  16.746
  455TMC3    O2 6823   1.865   0.752  17.111
  456MPD2     C 6824   4.250   0.511  16.365
  456MPD2    C1 6825   4.344   0.492  16.467
  456MPD2    C2 6826   4.311   0.528  16.598
  456MPD2    C3 6827   4.188   0.582  16.630
  456MPD2    C4 6828   4.095   0.593  16.532
  456MPD2    C5 6829   4.129   0.556  16.405
  456MPD2     H 6830   4.379   0.513  16.681
  456MPD2    H1 6831   3.988   0.611  16.539
  456MPD2    H2 6832   4.274   0.489  16.262
  456MPD2    H3 6833   4.057   0.578  16.327
  456MPD2     N 6834   4.161   0.621  16.761
  456MPD2    H5 6835   4.236   0.611  16.828
  456MPD2    N1 6836   4.463   0.416  16.432
  456MPD2    H7 6837   4.457   0.385  16.335
  457TMC3    C1 6838   4.052   0.738  16.938
  457TMC3    C2 6839   3.991   0.861  16.948
  457TMC3    C3 6840   4.036   0.950  17.045
  457TMC3    C4 6841   4.149   0.708  17.026
  457TMC3    C5 6842   4.201   0.800  17.111
  457TMC3    C6 6843   4.143   0.922  17.126
  457TMC3     C 6844   4.039   0.674  16.805
  457TMC3     O 6845   3.935   0.697  16.740
  457TMC3     H 6846   3.922   0.880  16.867
  457TMC3    H1 6847   4.201   0.614  17.021
  457TMC3    H2 6848   4.163   0.986  17.211
  457TMC3    C7 6849   4.315   0.776  17.199
  457TMC3    C8 6850   4.003   1.089  17.033
  457TMC3    O1 6851   4.332   0.660  17.236
  457TMC3    O2 6852   4.065   1.168  17.106
  458MPD2     C 6853   2.192   4.693  12.362
  458MPD2    C1 6854   2.172   4.677  12.496
  458MPD2    C2 6855   2.049   4.627  12.541
  458MPD2    C3 6856   1.954   4.586  12.452
  458MPD2    C4 6857   1.977   4.600  12.314
  458MPD2    C5 6858   2.094   4.659  12.274
  458MPD2     H 6859   2.035   4.602  12.646
  458MPD2    H1 6860   1.902   4.563  12.245
  458MPD2    H2 6861   2.284   4.732  12.320
  458MPD2    H3 6862   2.112   4.674  12.169
  458MPD2     N 6863   1.837   4.530  12.511
  458MPD2    H5 6864   1.854   4.521  12.611
  458MPD2    N1 6865   2.272   4.716  12.586
  458MPD2    H7 6866   2.349   4.770  12.548
  459TMC3    C1 6867   2.366   0.002  12.797
  459TMC3    C2 6868   2.454   0.090  12.740
  459TMC3    C3 6869   2.538   0.152  12.833
  459TMC3    C4 6870   2.358   4.768  12.932
  459TMC3    C5 6871   2.450   0.039  13.013
  459TMC3    C6 6872   2.547   0.117  12.971
  459TMC3     C 6873   2.263   4.704  12.723
  459TMC3     O 6874   2.196   4.631  12.790
  459TMC3     H 6875   2.466   0.090  12.632
  459TMC3    H1 6876   2.279   4.711  12.978
  459TMC3    H2 6877   2.630   0.145  13.034
  459TMC3    C7 6878   2.428   0.003  13.155
  459TMC3    C8 6879   2.653   0.224  12.775
  459TMC3    O1 6880   2.354   4.690  13.176
  459TMC3    O2 6881   2.759   0.218  12.836
  460MPD2     C 6882   1.280   2.122  10.975
  460MPD2    C1 6883   1.162   2.131  11.037
  460MPD2    C2 6884   1.051   2.168  10.959
  460MPD2    C3 6885   1.065   2.185  10.818
  460MPD2    C4 6886   1.190   2.165  10.759
  460MPD2    C5 6887   1.298   2.141  10.840
  460MPD2     H 6888   0.954   2.170  11.006
  460MPD2    H1 6889   1.209   2.171  10.652
  460MPD2    H2 6890   1.367   2.111  11.039
  460MPD2    H3 6891   1.397   2.127  10.797
  460MPD2     N 6892   0.943   2.213  10.745
  460MPD2    H5 6893   0.849   2.225  10.781
  460MPD2    N1 6894   1.152   2.110  11.174
  460MPD2    H7 6895   1.246   2.118  11.213
  461TMC3    C1 6896   0.813   2.285  10.564
  461TMC3    C2 6897   0.765   2.228  10.451
  461TMC3    C3 6898   0.700   2.303  10.352
  461TMC3    C4 6899   0.804   2.420  10.590
  461TMC3    C5 6900   0.751   2.493  10.488
  461TMC3    C6 6901   0.693   2.435  10.375
  461TMC3     C 6902   0.939   2.221  10.608
  461TMC3     O 6903   1.023   2.181  10.534
  461TMC3     H 6904   0.801   2.127  10.435
  461TMC3    H1 6905   0.846   2.463  10.680
  461TMC3    H2 6906   0.658   2.499  10.295
  461TMC3    C7 6907   0.774   2.635  10.493
  461TMC3    C8 6908   0.732   2.279  10.219
  461TMC3    O1 6909   0.721   2.698  10.404
  461TMC3    O2 6910   0.801   2.365  10.158
  462TMC3    C1 6911   1.068   3.629  18.288
  462TMC3    C2 6912   1.111   3.623  18.159
  462TMC3    C3 6913   1.157   3.501  18.109
  462TMC3    C4 6914   1.058   3.516  18.359
  462TMC3    C5 6915   1.093   3.400  18.301
  462TMC3    C6 6916   1.157   3.387  18.183
  462TMC3     C 6917   1.076   3.759  18.359
  462TMC3     O 6918   1.029   3.761  18.470
  462TMC3     H 6919   1.111   3.708  18.091
  462TMC3    H1 6920   1.014   3.510  18.458
  462TMC3    H2 6921   1.185   3.289  18.145
  462TMC3    C7 6922   1.010   3.283  18.338
  462TMC3    C8 6923   1.208   3.498  17.970
  462TMC3    O1 6924   1.060   3.174  18.315
  462TMC3    O2 6925   1.204   3.605  17.907
  463MPD2     C 6926   2.631   1.768  19.979
  463MPD2    C1 6927   2.513   1.821  19.926
  463MPD2    C2 6928   2.508   1.955  19.891
  463MPD2    C3 6929   2.619   2.036  19.893
  463MPD2    C4 6930   2.732   1.983  19.956
  463MPD2    C5 6931   2.734   1.855  20.001
  463MPD2     H 6932   2.414   1.981  19.844
  463MPD2    H1 6933   2.816   2.050  19.970
  463MPD2    H2 6934   2.637   1.675  20.033
  463MPD2    H3 6935   2.822   1.823  20.056
  463MPD2     N 6936   2.633   2.167  19.841
  463MPD2    H5 6937   2.726   2.208  19.846
  463MPD2    N1 6938   2.394   1.747  19.907
  463MPD2    H7 6939   2.322   1.776  19.842
  464TMC3    C1 6940   2.275   1.541  19.884
  464TMC3    C2 6941   2.249   1.577  19.759
  464TMC3    C3 6942   2.166   1.496  19.682
  464TMC3    C4 6943   2.209   1.439  19.944
  464TMC3    C5 6944   2.103   1.381  19.877
  464TMC3    C6 6945   2.084   1.400  19.742
  464TMC3     C 6946   2.366   1.621  19.961
  464TMC3     O 6947   2.424   1.561  20.050
  464TMC3     H 6948   2.315   1.642  19.701
  464TMC3    H1 6949   2.233   1.422  20.048
  464TMC3    H2 6950   2.020   1.337  19.682
  464TMC3    C7 6951   2.095   1.234  19.914
  464TMC3    C8 6952   2.107   1.556  19.568
  464TMC3    O1 6953   2.166   1.186  20.002
  464TMC3    O2 6954   2.129   1.672  19.549
  465MPD2     C 6955   3.700   0.930  17.379
  465MPD2    C1 6956   3.624   0.816  17.389
  465MPD2    C2 6957   3.586   0.744  17.273
  465MPD2    C3 6958   3.622   0.792  17.149
  465MPD2    C4 6959   3.707   0.903  17.145
  465MPD2    C5 6960   3.744   0.971  17.254
  465MPD2     H 6961   3.513   0.664  17.278
  465MPD2    H1 6962   3.715   0.954  17.050
  465MPD2    H2 6963   3.734   0.987  17.465
  465MPD2    H3 6964   3.789   1.068  17.242
  465MPD2     N 6965   3.572   0.728  17.031
  465MPD2    H5 6966   3.492   0.667  17.045
  465MPD2    N1 6967   3.579   0.762  17.515
  465MPD2    H7 6968   3.508   0.690  17.511
  466TMC3    C1 6969   3.310   0.577  16.829
  466TMC3    C2 6970   3.258   0.659  16.735
  466TMC3    C3 6971   3.341   0.744  16.660
  466TMC3    C4 6972   3.442   0.591  16.869
  466TMC3    C5 6973   3.516   0.696  16.810
  466TMC3    C6 6974   3.477   0.764  16.700
  466TMC3     C 6975   3.215   0.523  16.930
  466TMC3     O 6976   3.256   0.503  17.045
  466TMC3     H 6977   3.156   0.648  16.699
  466TMC3    H1 6978   3.492   0.521  16.935
  466TMC3    H2 6979   3.535   0.850  16.669
  466TMC3    C7 6980   3.600   0.769  16.900
  466TMC3    C8 6981   3.276   0.851  16.591
  466TMC3    O1 6982   3.668   0.863  16.860
  466TMC3    O2 6983   3.287   0.848  16.468
  467TMC3    C1 6984   4.256   4.117  14.280
  467TMC3    C2 6985   4.201   4.203  14.189
  467TMC3    C3 6986   4.066   4.187  14.155
  467TMC3    C4 6987   4.176   4.020  14.338
  467TMC3    C5 6988   4.040   4.012  14.311
  467TMC3    C6 6989   3.987   4.092  14.208
  467TMC3     C 6990   4.400   4.086  14.269
  467TMC3     O 6991   4.472   4.089  14.366
  467TMC3     H 6992   4.259   4.284  14.145
  467TMC3    H1 6993   4.225   3.952  14.406
  467TMC3    H2 6994   3.888   4.092  14.163
  467TMC3    C7 6995   3.967   3.896  14.357
  467TMC3    C8 6996   4.039   4.254  14.031
  467TMC3    O1 6997   4.039   3.798  14.382
  467TMC3    O2 6998   4.069   4.375  14.021
  468MPD2     C 6999   2.846   2.703  11.079
  468MPD2    C1 7000   2.974   2.647  11.083
  468MPD2    C2 7001   2.994   2.526  11.025
  468MPD2    C3 7002   2.891   2.456  10.961
  468MPD2    C4 7003   2.762   2.511  10.965
  468MPD2    C5 7004   2.739   2.634  11.023
  468MPD2     H 7005   3.096   2.490  11.015
  468MPD2    H1 7006   2.678   2.459  10.920
  468MPD2    H2 7007   2.821   2.798  11.125
  468MPD2    H3 7008   2.638   2.671  11.017
  468MPD2     N 7009   2.903   2.322  10.915
  468MPD2    H5 7010   2.820   2.282  10.873
  468MPD2    N1 7011   3.088   2.702  11.156
  468MPD2    H7 7012   3.175   2.652  11.148
  469TMC3    C1 7013   3.210   2.855  11.282
  469TMC3    C2 7014   3.314   2.762  11.283
  469TMC3    C3 7015   3.425   2.790  11.364
  469TMC3    C4 7016   3.212   2.967  11.361
  469TMC3    C5 7017   3.314   2.981  11.453
  469TMC3    C6 7018   3.423   2.899  11.448
  469TMC3     C 7019   3.087   2.830  11.212
  469TMC3     O 7020   2.991   2.910  11.230
  469TMC3     H 7021   3.323   2.674  11.221
  469TMC3    H1 7022   3.122   3.026  11.376
  469TMC3    H2 7023   3.510   2.932  11.504
  469TMC3    C7 7024   3.298   3.078  11.560
  469TMC3    C8 7025   3.537   2.707  11.353
  469TMC3    O1 7026   3.212   3.162  11.528
  469TMC3    O2 7027   3.540   2.635  11.253
  470TMC3    C1 7028   0.734   2.797  18.899
  470TMC3    C2 7029   0.844   2.869  18.879
  470TMC3    C3 7030   0.912   2.926  18.979
  470TMC3    C4 7031   0.674   2.793  19.024
  470TMC3    C5 7032   0.732   2.864  19.125
  470TMC3    C6 7033   0.850   2.933  19.106
  470TMC3     C 7034   0.650   2.773  18.786
  470TMC3     O 7035   0.666   2.858  18.697
  470TMC3     H 7036   0.887   2.871  18.780
  470TMC3    H1 7037   0.595   2.721  19.042
  470TMC3    H2 7038   0.914   2.978  19.181
  470TMC3    C7 7039   0.678   2.863  19.264
  470TMC3    C8 7040   0.950   3.063  18.944
  470TMC3    O1 7041   0.761   2.883  19.355
  470TMC3    O2 7042   0.909   3.153  19.017
  471MPD2     C 7043   1.198   4.452  16.945
  471MPD2    C1 7044   1.154   4.324  16.947
  471MPD2    C2 7045   1.132   4.261  17.070
  471MPD2    C3 7046   1.161   4.327  17.187
  471MPD2    C4 7047   1.194   4.460  17.175
  471MPD2    C5 7048   1.203   4.525  17.057
  471MPD2     H 7049   1.103   4.157  17.077
  471MPD2    H1 7050   1.210   4.519  17.265
  471MPD2    H2 7051   1.215   4.507  16.852
  471MPD2    H3 7052   1.236   4.628  17.048
  471MPD2     N 7053   1.147   4.279  17.317
  471MPD2    H5 7054   1.189   4.335  17.391
  471MPD2    N1 7055   1.135   4.244  16.830
  471MPD2    H7 7056   1.135   4.142  16.835
  472TMC3    C1 7057   1.091   4.212  16.596
  472TMC3    C2 7058   1.031   4.254  16.485
  472TMC3    C3 7059   1.033   4.175  16.378
  472TMC3    C4 7060   1.131   4.079  16.612
  472TMC3    C5 7061   1.115   3.997  16.503
  472TMC3    C6 7062   1.068   4.046  16.382
  472TMC3     C 7063   1.094   4.302  16.714
  472TMC3     O 7064   1.027   4.404  16.709
  472TMC3     H 7065   1.000   4.357  16.470
  472TMC3    H1 7066   1.183   4.036  16.697
  472TMC3    H2 7067   1.072   3.989  16.291
  472TMC3    C7 7068   1.099   3.857  16.528
  472TMC3    C8 7069   0.900   4.182  16.312
  472TMC3    O1 7070   1.124   3.818  16.639
  472TMC3    O2 7071   0.911   4.224  16.197
  473MPD2     C 7072   0.694   1.487  14.379
  473MPD2    C1 7073   0.746   1.556  14.270
  473MPD2    C2 7074   0.836   1.656  14.295
  473MPD2    C3 7075   0.868   1.695  14.423
  473MPD2    C4 7076   0.809   1.631  14.531
  473MPD2    C5 7077   0.720   1.535  14.503
  473MPD2     H 7078   0.872   1.711  14.209
  473MPD2    H1 7079   0.837   1.660  14.631
  473MPD2    H2 7080   0.637   1.396  14.365
  473MPD2    H3 7081   0.670   1.484  14.585
  473MPD2     N 7082   0.966   1.793  14.449
  473MPD2    H5 7083   0.966   1.835  14.541
  473MPD2    N1 7084   0.699   1.537  14.133
  473MPD2    H7 7085   0.724   1.598  14.056
  474TMC3    C1 7086   1.120   1.962  14.403
  474TMC3    C2 7087   1.035   2.055  14.459
  474TMC3    C3 7088   1.088   2.171  14.517
  474TMC3    C4 7089   1.255   1.983  14.414
  474TMC3    C5 7090   1.304   2.103  14.474
  474TMC3    C6 7091   1.221   2.192  14.530
  474TMC3     C 7092   1.060   1.840  14.362
  474TMC3     O 7093   1.088   1.802  14.246
  474TMC3     H 7094   0.928   2.038  14.452
  474TMC3    H1 7095   1.322   1.907  14.375
  474TMC3    H2 7096   1.241   2.289  14.575
  474TMC3    C7 7097   1.444   2.118  14.505
  474TMC3    C8 7098   0.990   2.267  14.549
  474TMC3    O1 7099   1.530   2.088  14.421
  474TMC3    O2 7100   0.886   2.226  14.593
  475MPD2     C 7101   4.267   4.624  11.235
  475MPD2    C1 7102   4.360   4.699  11.173
  475MPD2    C2 7103   4.338   0.060  11.167
  475MPD2    C3 7104   4.230   0.117  11.241
  475MPD2    C4 7105   4.146   0.034  11.305
  475MPD2    C5 7106   4.163   4.681  11.301
  475MPD2     H 7107   4.417   0.124  11.130
  475MPD2    H1 7108   4.051   0.056  11.352
  475MPD2    H2 7109   4.273   4.519  11.260
  475MPD2    H3 7110   4.100   4.612  11.356
  475MPD2     N 7111   4.208   0.251  11.244
  475MPD2    H5 7112   4.246   0.310  11.170
  475MPD2    N1 7113   4.454   4.632  11.088
  475MPD2    H7 7114   4.433   4.533  11.084
  476TMC3    C1 7115   4.651   4.779  11.103
  476TMC3    C2 7116   4.688   0.095  11.019
  476TMC3    C3 7117   4.690   0.223  11.066
  476TMC3    C4 7118   4.633   0.027  11.240
  476TMC3    C5 7119   4.645   0.155  11.287
  476TMC3    C6 7120   4.685   0.253  11.199
  476TMC3     C 7121   4.578   4.669  11.037
  476TMC3     O 7122   4.644   4.611  10.949
  476TMC3     H 7123   4.702   0.061  10.917
  476TMC3    H1 7124   4.608   4.726  11.307
  476TMC3    H2 7125   4.691   0.352  11.242
  476TMC3    C7 7126   4.594   0.188  11.413
  476TMC3    C8 7127   4.579   0.294  11.000
  476TMC3    O1 7128   4.596   0.094  11.489
  476TMC3    O2 7129   4.533   0.394  11.058
  477MPD2     C 7130   1.853   1.424  11.744
  477MPD2    C1 7131   1.799   1.453  11.861
  477MPD2    C2 7132   1.874   1.424  11.972
  477MPD2    C3 7133   1.998   1.370  11.965
  477MPD2    C4 7134   2.058   1.340  11.842
  477MPD2    C5 7135   1.980   1.367  11.735
  477MPD2     H 7136   1.822   1.436  12.067
  477MPD2    H1 7137   2.160   1.303  11.837
  477MPD2    H2 7138   1.815   1.448  11.645
  477MPD2    H3 7139   2.037   1.374  11.643
  477MPD2     N 7140   2.061   1.339  12.089
  477MPD2    H5 7141   2.033   1.388  12.174
  477MPD2    N1 7142   1.666   1.495  11.868
  477MPD2    H7 7143   1.622   1.507  11.778
  478TMC3    C1 7144   1.459   1.571  11.943
  478TMC3    C2 7145   1.366   1.587  12.040
  478TMC3    C3 7146   1.237   1.602  12.004
  478TMC3    C4 7147   1.425   1.580  11.811
  478TMC3    C5 7148   1.290   1.608  11.784
  478TMC3    C6 7149   1.191   1.623  11.875
  478TMC3     C 7150   1.606   1.561  11.972
  478TMC3     O 7151   1.638   1.579  12.089
  478TMC3     H 7152   1.400   1.576  12.142
  478TMC3    H1 7153   1.495   1.595  11.729
  478TMC3    H2 7154   1.086   1.632  11.851
  478TMC3    C7 7155   1.251   1.568  11.649
  478TMC3    C8 7156   1.172   1.676  12.111
  478TMC3    O1 7157   1.301   1.462  11.616
  478TMC3    O2 7158   1.171   1.625  12.220
  479MPD2     C 7159   0.576   3.408  15.410
  479MPD2    C1 7160   0.528   3.377  15.535
  479MPD2    C2 7161   0.613   3.385  15.651
  479MPD2    C3 7162   0.741   3.444  15.628
  479MPD2    C4 7163   0.768   3.499  15.511
  479MPD2    C5 7164   0.689   3.481  15.399
  479MPD2     H 7165   0.569   3.355  15.745
  479MPD2    H1 7166   0.831   3.587  15.517
  479MPD2    H2 7167   0.520   3.409  15.318
  479MPD2    H3 7168   0.720   3.513  15.301
  479MPD2     N 7169   0.854   3.437  15.722
  479MPD2    H5 7170   0.946   3.462  15.688
  479MPD2    N1 7171   0.404   3.312  15.534
  479MPD2    H7 7172   0.366   3.287  15.444
  480TMC3    C1 7173   0.571   3.390  16.083
  480TMC3    C2 7174   0.505   3.506  16.064
  480TMC3    C3 7175   0.553   3.591  15.969
  480TMC3    C4 7176   0.679   3.349  16.013
  480TMC3    C5 7177   0.737   3.446  15.928
  480TMC3    C6 7178   0.673   3.566  15.907
  480TMC3     C 7179   0.524   3.293  16.179
  480TMC3     O 7180   0.606   3.217  16.228
  480TMC3     H 7181   0.426   3.542  16.130
  480TMC3    H1 7182   0.731   3.255  16.030
  480TMC3    H2 7183   0.720   3.647  15.852
  480TMC3    C7 7184   0.849   3.407  15.858
  480TMC3    C8 7185   0.449   3.652  15.903
  480TMC3    O1 7186   0.951   3.383  15.922
  480TMC3    O2 7187   0.340   3.653  15.955
  481MPD2     C 7188   2.063   3.396  14.171
  481MPD2    C1 7189   2.008   3.271  14.195
  481MPD2    C2 7190   2.046   3.203  14.311
  481MPD2    C3 7191   2.149   3.253  14.392
  481MPD2    C4 7192   2.214   3.364  14.350
  481MPD2    C5 7193   2.165   3.442  14.245
  481MPD2     H 7194   1.994   3.109  14.326
  481MPD2    H1 7195   2.300   3.404  14.403
  481MPD2    H2 7196   2.019   3.445  14.084
  481MPD2    H3 7197   2.195   3.541  14.214
  481MPD2     N 7198   2.191   3.183  14.509
  481MPD2    H5 7199   2.278   3.203  14.556
  481MPD2    N1 7200   1.885   3.245  14.133
  481MPD2    H7 7201   1.847   3.311  14.066
  482TMC3    C1 7202   1.698   3.127  14.054
  482TMC3    C2 7203   1.669   3.008  14.009
  482TMC3    C3 7204   1.541   2.984  13.956
  482TMC3    C4 7205   1.605   3.230  14.055
  482TMC3    C5 7206   1.478   3.204  14.009
  482TMC3    C6 7207   1.445   3.085  13.962
  482TMC3     C 7208   1.817   3.129  14.135
  482TMC3     O 7209   1.853   3.025  14.187
  482TMC3     H 7210   1.742   2.931  13.988
  482TMC3    H1 7211   1.631   3.318  14.112
  482TMC3    H2 7212   1.356   3.083  13.899
  482TMC3    C7 7213   1.420   3.314  13.939
  482TMC3    C8 7214   1.516   2.861  13.882
  482TMC3    O1 7215   1.302   3.315  13.900
  482TMC3    O2 7216   1.611   2.789  13.871
  483TMC3    C1 7217   0.124   1.687  18.886
  483TMC3    C2 7218   0.184   1.808  18.863
  483TMC3    C3 7219   0.314   1.824  18.902
  483TMC3    C4 7220   0.180   1.576  18.933
  483TMC3    C5 7221   0.316   1.596  18.954
  483TMC3    C6 7222   0.386   1.715  18.947
  483TMC3     C 7223   4.767   1.678  18.832
  483TMC3     O 7224   4.695   1.780  18.834
  483TMC3     H 7225   0.132   1.900  18.839
  483TMC3    H1 7226   0.126   1.486  18.956
  483TMC3    H2 7227   0.492   1.707  18.968
  483TMC3    C7 7228   0.390   1.477  19.005
  483TMC3    C8 7229   0.379   1.944  18.862
  483TMC3    O1 7230   0.499   1.509  19.053
  483TMC3    O2 7231   0.311   2.023  18.799
  484MPD2     C 7232   2.677   0.384  12.436
  484MPD2    C1 7233   2.720   0.344  12.561
  484MPD2    C2 7234   2.853   0.371  12.599
  484MPD2    C3 7235   2.937   0.442  12.513
  484MPD2    C4 7236   2.893   0.484  12.397
  484MPD2    C5 7237   2.766   0.462  12.357
  484MPD2     H 7238   2.887   0.340  12.698
  484MPD2    H1 7239   2.950   0.543  12.327
  484MPD2    H2 7240   2.578   0.357  12.401
  484MPD2    H3 7241   2.734   0.486  12.256
  484MPD2     N 7242   3.074   0.475  12.551
  484MPD2    H5 7243   3.121   0.549  12.501
  484MPD2    N1 7244   2.627   0.278  12.646
  484MPD2    H7 7245   2.532   0.263  12.612
  485TMC3    C1 7246   3.284   0.477  12.665
  485TMC3    C2 7247   3.355   0.392  12.742
  485TMC3    C3 7248   3.474   0.447  12.793
  485TMC3    C4 7249   3.309   0.612  12.644
  485TMC3    C5 7250   3.422   0.658  12.701
  485TMC3    C6 7251   3.507   0.579  12.770
  485TMC3     C 7252   3.148   0.421  12.655
  485TMC3     O 7253   3.119   0.329  12.723
  485TMC3     H 7254   3.335   0.286  12.752
  485TMC3    H1 7255   3.241   0.686  12.601
  485TMC3    H2 7256   3.595   0.623  12.814
  485TMC3    C7 7257   3.504   0.759  12.625
  485TMC3    C8 7258   3.594   0.364  12.811
  485TMC3    O1 7259   3.619   0.776  12.661
  485TMC3    O2 7260   3.702   0.422  12.811
  486MPD2     C 7261   0.499   4.030  13.414
  486MPD2    C1 7262   0.396   3.972  13.346
  486MPD2    C2 7263   0.304   4.058  13.285
  486MPD2    C3 7264   0.317   4.196  13.283
  486MPD2    C4 7265   0.422   4.249  13.349
  486MPD2    C5 7266   0.504   4.169  13.418
  486MPD2     H 7267   0.214   4.014  13.243
  486MPD2    H1 7268   0.421   4.355  13.372
  486MPD2    H2 7269   0.567   3.968  13.472
  486MPD2    H3 7270   0.582   4.200  13.486
  486MPD2     N 7271   0.210   4.269  13.225
  486MPD2    H5 7272   0.142   4.219  13.169
  486MPD2    N1 7273   0.374   3.832  13.351
  486MPD2    H7 7274   0.438   3.796  13.421
  487TMC3    C1 7275   0.279   3.624  13.331
  487TMC3    C2 7276   0.225   3.524  13.252
  487TMC3    C3 7277   0.241   3.402  13.287
  487TMC3    C4 7278   0.308   3.591  13.463
  487TMC3    C5 7279   0.314   3.459  13.494
  487TMC3    C6 7280   0.295   3.358  13.401
  487TMC3     C 7281   0.286   3.756  13.278
  487TMC3     O 7282   0.238   3.786  13.172
  487TMC3     H 7283   0.200   3.554  13.150
  487TMC3    H1 7284   0.322   3.671  13.535
  487TMC3    H2 7285   0.306   3.252  13.422
  487TMC3    C7 7286   0.260   3.439  13.628
  487TMC3    C8 7287   0.113   3.329  13.277
  487TMC3    O1 7288   0.291   3.528  13.713
  487TMC3    O2 7289   0.105   3.239  13.358
  488MPD2     C 7290   0.532   0.516  16.744
  488MPD2    C1 7291   0.481   0.638  16.723
  488MPD2    C2 7292   0.385   0.687  16.815
  488MPD2    C3 7293   0.343   0.613  16.925
  488MPD2    C4 7294   0.389   0.484  16.933
  488MPD2    C5 7295   0.481   0.431  16.843
  488MPD2     H 7296   0.349   0.788  16.799
  488MPD2    H1 7297   0.360   0.412  17.008
  488MPD2    H2 7298   0.603   0.466  16.679
  488MPD2    H3 7299   0.516   0.330  16.857
  488MPD2     N 7300   0.262   0.670  17.021
  488MPD2    H5 7301   0.242   0.769  17.015
  488MPD2    N1 7302   0.520   0.716  16.609
  488MPD2    H7 7303   0.477   0.807  16.614
  489TMC3    C1 7304   0.172   0.712  17.238
  489TMC3    C2 7305   0.130   0.830  17.187
  489TMC3    C3 7306   0.126   0.937  17.271
  489TMC3    C4 7307   0.209   0.690  17.365
  489TMC3    C5 7308   0.208   0.797  17.452
  489TMC3    C6 7309   0.174   0.922  17.402
  489TMC3     C 7310   0.248   0.625  17.152
  489TMC3     O 7311   0.293   0.519  17.203
  489TMC3     H 7312   0.089   0.837  17.086
  489TMC3    H1 7313   0.233   0.590  17.400
  489TMC3    H2 7314   0.179   1.002  17.475
  489TMC3    C7 7315   0.293   0.793  17.572
  489TMC3    C8 7316   0.138   1.065  17.208
  489TMC3    O1 7317   0.332   0.906  17.616
  489TMC3    O2 7318   0.150   1.062  17.081
  490MPD2     C 7319   1.400   4.746  17.766
  490MPD2    C1 7320   1.306   4.761  17.868
  490MPD2    C2 7321   1.343   0.051  17.981
  490MPD2    C3 7322   1.469   0.106  17.983
  490MPD2    C4 7323   1.559   0.086  17.880
  490MPD2    C5 7324   1.524   0.017  17.766
  490MPD2     H 7325   1.270   0.053  18.061
  490MPD2    H1 7326   1.661   0.121  17.872
  490MPD2    H2 7327   1.370   4.696  17.675
  490MPD2    H3 7328   1.591   0.009  17.682
  490MPD2     N 7329   1.524   0.177  18.083
  490MPD2    H5 7330   1.624   0.165  18.098
  490MPD2    N1 7331   1.181   4.700  17.871
  490MPD2    H7 7332   1.149   4.675  17.964
  491TMC3    C1 7333   1.007   4.565  17.790
  491TMC3    C2 7334   1.007   4.486  17.899
  491TMC3    C3 7335   0.931   4.368  17.898
  491TMC3    C4 7336   0.929   4.533  17.681
  491TMC3    C5 7337   0.851   4.419  17.682
  491TMC3    C6 7338   0.854   4.334  17.791
  491TMC3     C 7339   1.128   4.637  17.756
  491TMC3     O 7340   1.150   4.660  17.639
  491TMC3     H 7341   1.081   4.495  17.977
  491TMC3    H1 7342   0.935   4.586  17.586
  491TMC3    H2 7343   0.778   4.258  17.804
  491TMC3    C7 7344   0.758   4.391  17.574
  491TMC3    C8 7345   0.901   4.308  18.023
  491TMC3    O1 7346   0.724   4.280  17.555
  491TMC3    O2 7347   0.886   4.389  18.109
  492MPD2     C 7348   1.478   0.453  11.745
  492MPD2    C1 7349   1.413   0.345  11.697
  492MPD2    C2 7350   1.384   0.244  11.782
  492MPD2    C3 7351   1.414   0.245  11.911
  492MPD2    C4 7352   1.484   0.350  11.959
  492MPD2    C5 7353   1.514   0.459  11.879
  492MPD2     H 7354   1.316   0.166  11.748
  492MPD2    H1 7355   1.504   0.360  12.066
  492MPD2    H2 7356   1.510   0.531  11.677
  492MPD2    H3 7357   1.572   0.544  11.911
  492MPD2     N 7358   1.382   0.149  12.011
  492MPD2    H5 7359   1.400   0.172  12.108
  492MPD2    N1 7360   1.378   0.351  11.553
  492MPD2    H7 7361   1.415   0.433  11.506
  493TMC3    C1 7362   1.274   0.307  11.350
  493TMC3    C2 7363   1.314   0.437  11.308
  493TMC3    C3 7364   1.259   0.492  11.196
  493TMC3    C4 7365   1.167   0.250  11.283
  493TMC3    C5 7366   1.107   0.315  11.184
  493TMC3    C6 7367   1.144   0.444  11.144
  493TMC3     C 7368   1.306   0.256  11.485
  493TMC3     O 7369   1.264   0.144  11.522
  493TMC3     H 7370   1.400   0.493  11.341
  493TMC3    H1 7371   1.138   0.154  11.325
  493TMC3    H2 7372   1.092   0.481  11.057
  493TMC3    C7 7373   0.976   0.272  11.133
  493TMC3    C8 7374   1.284   0.628  11.196
  493TMC3    O1 7375   0.947   0.323  11.026
  493TMC3    O2 7376   1.263   0.682  11.308
  494TMC3    C1 7377   1.635   1.871  18.466
  494TMC3    C2 7378   1.677   1.737  18.482
  494TMC3    C3 7379   1.782   1.693  18.408
  494TMC3    C4 7380   1.696   1.950  18.366
  494TMC3    C5 7381   1.800   1.903  18.289
  494TMC3    C6 7382   1.840   1.772  18.308
  494TMC3     C 7383   1.601   1.940  18.587
  494TMC3     O 7384   1.639   1.883  18.686
  494TMC3     H 7385   1.644   1.674  18.564
  494TMC3    H1 7386   1.673   2.054  18.384
  494TMC3    H2 7387   1.925   1.735  18.253
  494TMC3    C7 7388   1.814   1.964  18.158
  494TMC3    C8 7389   1.850   1.573  18.455
  494TMC3    O1 7390   1.833   1.882  18.069
  494TMC3    O2 7391   1.971   1.554  18.447
  495TMC3    C1 7392   0.649   3.698  14.931
  495TMC3    C2 7393   0.541   3.714  14.851
  495TMC3    C3 7394   0.430   3.763  14.913
  495TMC3    C4 7395   0.651   3.727  15.062
  495TMC3    C5 7396   0.537   3.778  15.116
  495TMC3    C6 7397   0.424   3.786  15.048
  495TMC3     C 7398   0.693   3.563  14.924
  495TMC3     O 7399   0.656   3.503  15.027
  495TMC3     H 7400   0.555   3.693  14.745
  495TMC3    H1 7401   0.734   3.697  15.125
  495TMC3    H2 7402   0.331   3.827  15.086
  495TMC3    C7 7403   0.528   3.772  15.263
  495TMC3    C8 7404   0.299   3.780  14.839
  495TMC3    O1 7405   0.634   3.784  15.324
  495TMC3    O2 7406   0.197   3.798  14.901
  496MPD2     C 7407   2.262   4.096  15.745
  496MPD2    C1 7408   2.295   3.972  15.698
  496MPD2    C2 7409   2.241   3.862  15.753
  496MPD2    C3 7410   2.163   3.872  15.864
  496MPD2    C4 7411   2.140   3.995  15.921
  496MPD2    C5 7412   2.175   4.107  15.854
  496MPD2     H 7413   2.279   3.765  15.721
  496MPD2    H1 7414   2.086   4.002  16.015
  496MPD2    H2 7415   2.298   4.185  15.696
  496MPD2    H3 7416   2.164   4.211  15.880
  496MPD2     N 7417   2.106   3.758  15.932
  496MPD2    H5 7418   2.048   3.790  16.009
  496MPD2    N1 7419   2.392   3.969  15.602
  496MPD2    H7 7420   2.435   4.059  15.583
  497TMC3    C1 7421   2.092   3.529  15.989
  497TMC3    C2 7422   2.065   3.413  15.926
  497TMC3    C3 7423   2.112   3.293  15.972
  497TMC3    C4 7424   2.161   3.541  16.103
  497TMC3    C5 7425   2.198   3.421  16.157
  497TMC3    C6 7426   2.166   3.298  16.101
  497TMC3     C 7427   2.132   3.629  15.892
  497TMC3     O 7428   2.217   3.578  15.821
  497TMC3     H 7429   2.024   3.416  15.826
  497TMC3    H1 7430   2.192   3.634  16.149
  497TMC3    H2 7431   2.199   3.207  16.150
  497TMC3    C7 7432   2.275   3.415  16.283
  497TMC3    C8 7433   2.173   3.204  15.875
  497TMC3    O1 7434   2.294   3.301  16.329
  497TMC3    O2 7435   2.224   3.096  15.906
  498MPD2     C 7436   3.676   4.708   9.794
  498MPD2    C1 7437   3.690   4.732   9.931
  498MPD2    C2 7438   3.660   4.632  10.018
  498MPD2    C3 7439   3.628   4.507   9.972
  498MPD2    C4 7440   3.619   4.486   9.838
  498MPD2    C5 7441   3.629   4.586   9.743
  498MPD2     H 7442   3.690   4.642  10.122
  498MPD2    H1 7443   3.586   4.387   9.807
  498MPD2    H2 7444   3.687   4.778   9.712
  498MPD2    H3 7445   3.615   4.566   9.637
  498MPD2     N 7446   3.607   4.404  10.064
  498MPD2    H5 7447   3.572   4.442  10.151
  498MPD2    N1 7448   3.720   0.073   9.982
  498MPD2    H7 7449   3.713   0.077  10.083
  499TMC3    C1 7450   3.785   0.302   9.988
  499TMC3    C2 7451   3.893   0.286  10.067
  499TMC3    C3 7452   3.953   0.397  10.116
  499TMC3    C4 7453   3.748   0.431   9.939
  499TMC3    C5 7454   3.821   0.536   9.979
  499TMC3    C6 7455   3.920   0.523  10.068
  499TMC3     C 7456   3.741   0.190   9.910
  499TMC3     O 7457   3.734   0.207   9.791
  499TMC3     H 7458   3.914   0.185  10.101
  499TMC3    H1 7459   3.667   0.437   9.867
  499TMC3    H2 7460   3.968   0.606  10.118
  499TMC3    C7 7461   3.801   0.666   9.916
  499TMC3    C8 7462   4.066   0.389  10.198
  499TMC3    O1 7463   3.888   0.750   9.949
  499TMC3    O2 7464   4.105   0.490  10.255
  500MPD2     C 7465   4.747   1.265  11.130
  500MPD2    C1 7466   0.024   1.225  11.015
  500MPD2    C2 7467   4.723   1.172  10.920
  500MPD2    C3 7468   4.585   1.153  10.943
  500MPD2    C4 7469   4.529   1.195  11.061
  500MPD2    C5 7470   4.614   1.253  11.149
  500MPD2     H 7471   4.770   1.143  10.826
  500MPD2    H1 7472   4.423   1.185  11.081
  500MPD2    H2 7473   0.022   1.302  11.216
  500MPD2    H3 7474   4.580   1.274  11.250
  500MPD2     N 7475   4.500   1.111  10.847
  500MPD2    H5 7476   4.404   1.115  10.881
  500MPD2    N1 7477   0.157   1.256  10.977
  500MPD2    H7 7478   0.198   1.199  10.904
  501TMC3    C1 7479   0.383   1.332  11.000
  501TMC3    C2 7480   0.401   1.354  10.864
  501TMC3    C3 7481   0.528   1.379  10.823
  501TMC3    C4 7482   0.485   1.349  11.089
  501TMC3    C5 7483   0.615   1.384  11.042
  501TMC3    C6 7484   0.638   1.392  10.910
  501TMC3     C 7485   0.250   1.319  11.058
  501TMC3     O 7486   0.237   1.367  11.172
  501TMC3     H 7487   0.322   1.352  10.791
  501TMC3    H1 7488   0.460   1.327  11.192
  501TMC3    H2 7489   0.744   1.386  10.886
  501TMC3    C7 7490   0.721   1.392  11.149
  501TMC3    C8 7491   0.555   1.362  10.688
  501TMC3    O1 7492   0.835   1.379  11.106
  501TMC3    O2 7493   0.522   1.249  10.650
  502TMC3    C1 7494   4.656   4.295  15.273
  502TMC3    C2 7495   4.636   4.400  15.194
  502TMC3    C3 7496   4.514   4.468  15.209
  502TMC3    C4 7497   4.568   4.239  15.357
  502TMC3    C5 7498   4.443   4.299  15.371
  502TMC3    C6 7499   4.416   4.413  15.289
  502TMC3     C 7500   0.016   4.303  15.313
  502TMC3     O 7501   0.105   4.316  15.232
  502TMC3     H 7502   4.718   4.451  15.145
  502TMC3    H1 7503   4.596   4.158  15.423
  502TMC3    H2 7504   4.316   4.454  15.287
  502TMC3    C7 7505   4.392   4.306  15.506
  502TMC3    C8 7506   4.543   4.608  15.238
  502TMC3    O1 7507   4.471   4.267  15.593
  502TMC3    O2 7508   4.626   4.664  15.165
  503MPD2     C 7509   2.276   0.695  17.395
  503MPD2    C1 7510   2.322   0.782  17.488
  503MPD2    C2 7511   2.378   0.736  17.606
  503MPD2    C3 7512   2.397   0.602  17.625
  503MPD2    C4 7513   2.344   0.519  17.529
  503MPD2    C5 7514   2.286   0.561  17.415
  503MPD2     H 7515   2.410   0.807  17.682
  503MPD2    H1 7516   2.353   0.412  17.540
  503MPD2    H2 7517   2.222   0.722  17.305
  503MPD2    H3 7518   2.255   0.497  17.334
  503MPD2     N 7519   2.470   0.555  17.738
  503MPD2    H5 7520   2.507   0.622  17.805
  503MPD2    N1 7521   2.315   0.921  17.468
  503MPD2    H7 7522   2.316   0.982  17.549
  504TMC3    C1 7523   2.627   0.419  17.839
  504TMC3    C2 7524   2.584   0.360  17.960
  504TMC3    C3 7525   2.671   0.287  18.034
  504TMC3    C4 7526   2.742   0.367  17.787
  504TMC3    C5 7527   2.818   0.275  17.863
  504TMC3    C6 7528   2.793   0.253  17.991
  504TMC3     C 7529   2.520   0.425  17.742
  504TMC3     O 7530   2.499   0.321  17.678
  504TMC3     H 7531   2.480   0.372  17.988
  504TMC3    H1 7532   2.753   0.380  17.679
  504TMC3    H2 7533   2.854   0.188  18.053
  504TMC3    C7 7534   2.916   0.199  17.777
  504TMC3    C8 7535   2.622   0.238  18.154
  504TMC3    O1 7536   2.923   0.234  17.658
  504TMC3    O2 7537   2.504   0.218  18.155
  505MPD2     C 7538   2.702   3.457  11.303
  505MPD2    C1 7539   2.768   3.496  11.189
  505MPD2    C2 7540   2.807   3.623  11.170
  505MPD2    C3 7541   2.759   3.723  11.264
  505MPD2    C4 7542   2.678   3.682  11.370
  505MPD2    C5 7543   2.656   3.550  11.390
  505MPD2     H 7544   2.878   3.651  11.093
  505MPD2    H1 7545   2.638   3.751  11.443
  505MPD2    H2 7546   2.667   3.354  11.309
  505MPD2    H3 7547   2.600   3.511  11.474
  505MPD2     N 7548   2.811   3.857  11.271
  505MPD2    H5 7549   2.794   3.899  11.362
  505MPD2    N1 7550   2.811   3.387  11.106
  505MPD2    H7 7551   2.798   3.294  11.145
  506TMC3    C1 7552   2.970   3.320  10.953
  506TMC3    C2 7553   2.998   3.312  10.821
  506TMC3    C3 7554   3.133   3.311  10.777
  506TMC3    C4 7555   3.075   3.315  11.042
  506TMC3    C5 7556   3.200   3.295  10.995
  506TMC3    C6 7557   3.236   3.297  10.866
  506TMC3     C 7558   2.866   3.411  10.983
  506TMC3     O 7559   2.858   3.506  10.903
  506TMC3     H 7560   2.926   3.328  10.741
  506TMC3    H1 7561   3.060   3.322  11.149
  506TMC3    H2 7562   3.342   3.304  10.845
  506TMC3    C7 7563   3.293   3.348  11.092
  506TMC3    C8 7564   3.157   3.325  10.639
  506TMC3    O1 7565   3.395   3.287  11.126
  506TMC3    O2 7566   3.071   3.282  10.560
  507TMC3    C1 7567   3.337   0.077  15.131
  507TMC3    C2 7568   3.285   4.757  15.053
  507TMC3    C3 7569   3.258   0.011  14.922
  507TMC3    C4 7570   3.402   0.183  15.077
  507TMC3    C5 7571   3.399   0.202  14.942
  507TMC3    C6 7572   3.315   0.122  14.868
  507TMC3     C 7573   3.273   0.114  15.260
  507TMC3     O 7574   3.333   0.179  15.342
  507TMC3     H 7575   3.250   4.663  15.095
  507TMC3    H1 7576   3.435   0.262  15.144
  507TMC3    H2 7577   3.290   0.159  14.769
  507TMC3    C7 7578   3.378   0.340  14.903
  507TMC3    C8 7579   3.117   0.026  14.905
  507TMC3    O1 7580   3.276   0.365  14.840
  507TMC3    O2 7581   3.040   0.005  14.998
  508MPD2     C 7582   4.202   2.304  15.647
  508MPD2    C1 7583   4.243   2.406  15.727
  508MPD2    C2 7584   4.303   2.518  15.667
  508MPD2    C3 7585   4.294   2.529  15.527
  508MPD2    C4 7586   4.253   2.424  15.446
  508MPD2    C5 7587   4.205   2.313  15.512
  508MPD2     H 7588   4.330   2.602  15.730
  508MPD2    H1 7589   4.278   2.429  15.340
  508MPD2    H2 7590   4.164   2.212  15.690
  508MPD2    H3 7591   4.158   2.231  15.458
  508MPD2     N 7592   4.357   2.646  15.477
  508MPD2    H5 7593   4.418   2.689  15.546
  508MPD2    N1 7594   4.222   2.390  15.865
  508MPD2    H7 7595   4.194   2.297  15.896
  509TMC3    C1 7596   4.261   3.037  15.335
  509TMC3    C2 7597   4.327   3.091  15.447
  509TMC3    C3 7598   4.419   3.015  15.508
  509TMC3    C4 7599   4.288   2.918  15.282
  509TMC3    C5 7600   4.381   2.841  15.349
  509TMC3    C6 7601   4.448   2.888  15.463
  509TMC3     C 7602   4.135   3.087  15.288
  509TMC3     O 7603   4.092   3.061  15.174
  509TMC3     H 7604   4.302   3.184  15.496
  509TMC3    H1 7605   4.235   2.873  15.199
  509TMC3    H2 7606   4.533   2.831  15.499
  509TMC3    C7 7607   4.346   2.699  15.356
  509TMC3    C8 7608   4.470   3.048  15.638
  509TMC3    O1 7609   4.273   2.662  15.262
  509TMC3    O2 7610   4.521   2.954  15.695
  510MPD2     C 7611   1.884   4.304  14.762
  510MPD2    C1 7612   1.952   4.243  14.860
  510MPD2    C2 7613   2.091   4.221  14.853
  510MPD2    C3 7614   2.164   4.285  14.759
  510MPD2    C4 7615   2.097   4.364  14.671
  510MPD2    C5 7616   1.963   4.375  14.674
  510MPD2     H 7617   2.140   4.150  14.918
  510MPD2    H1 7618   2.147   4.431  14.602
  510MPD2    H2 7619   1.776   4.310  14.767
  510MPD2    H3 7620   1.919   4.452  14.610
  510MPD2     N 7621   2.300   4.257  14.754
  510MPD2    H5 7622   2.333   4.187  14.820
  510MPD2    N1 7623   1.879   4.164  14.957
  510MPD2    H7 7624   1.788   4.131  14.927
  511TMC3    C1 7625   1.836   4.014  15.137
  511TMC3    C2 7626   1.813   4.045  15.268
  511TMC3    C3 7627   1.702   3.993  15.331
  511TMC3    C4 7628   1.732   3.967  15.060
  511TMC3    C5 7629   1.624   3.918  15.123
  511TMC3    C6 7630   1.607   3.926  15.262
  511TMC3     C 7631   1.930   4.108  15.074
  511TMC3     O 7632   2.032   4.140  15.137
  511TMC3     H 7633   1.889   4.094  15.328
  511TMC3    H1 7634   1.733   3.949  14.953
  511TMC3    H2 7635   1.512   3.895  15.305
  511TMC3    C7 7636   1.540   3.832  15.050
  511TMC3    C8 7637   1.673   4.034  15.465
  511TMC3    O1 7638   1.523   3.866  14.935
  511TMC3    O2 7639   1.747   4.119  15.518
  512TMC3    C1 7640   0.659   3.864  13.853
  512TMC3    C2 7641   0.752   3.807  13.935
  512TMC3    C3 7642   0.804   3.686  13.900
  512TMC3    C4 7643   0.604   3.798  13.750
  512TMC3    C5 7644   0.658   3.678  13.708
  512TMC3    C6 7645   0.764   3.624  13.785
  512TMC3     C 7646   0.654   4.013  13.864
  512TMC3     O 7647   0.759   4.064  13.904
  512TMC3     H 7648   0.786   3.871  14.016
  512TMC3    H1 7649   0.538   3.854  13.685
  512TMC3    H2 7650   0.813   3.538  13.741
  512TMC3    C7 7651   0.647   3.646  13.569
  512TMC3    C8 7652   0.938   3.644  13.948
  512TMC3    O1 7653   0.609   3.732  13.495
  512TMC3    O2 7654   0.977   3.530  13.933
  513MPD2     C 7655   2.545   2.988  13.443
  513MPD2    C1 7656   2.680   2.971  13.414
  513MPD2    C2 7657   2.760   3.043  13.502
  513MPD2    C3 7658   2.710   3.132  13.596
  513MPD2    C4 7659   2.573   3.149  13.616
  513MPD2    C5 7660   2.488   3.074  13.536
  513MPD2     H 7661   2.866   3.046  13.479
  513MPD2    H1 7662   2.527   3.222  13.681
  513MPD2    H2 7663   2.471   2.935  13.383
  513MPD2    H3 7664   2.381   3.091  13.535
  513MPD2     N 7665   2.802   3.217  13.654
  513MPD2    H5 7666   2.898   3.196  13.628
  513MPD2    N1 7667   2.715   2.884  13.310
  513MPD2    H7 7668   2.638   2.825  13.280
  514TMC3    C1 7669   2.941   2.967  13.253
  514TMC3    C2 7670   2.905   3.100  13.236
  514TMC3    C3 7671   3.002   3.185  13.194
  514TMC3    C4 7672   3.058   2.932  13.204
  514TMC3    C5 7673   3.152   3.011  13.152
  514TMC3    C6 7674   3.125   3.145  13.140
  514TMC3     C 7675   2.843   2.860  13.261
  514TMC3     O 7676   2.876   2.759  13.201
  514TMC3     H 7677   2.804   3.130  13.264
  514TMC3    H1 7678   3.082   2.827  13.216
  514TMC3    H2 7679   3.194   3.221  13.107
  514TMC3    C7 7680   3.277   2.951  13.108
  514TMC3    C8 7681   2.942   3.309  13.136
  514TMC3    O1 7682   3.267   2.854  13.030
  514TMC3    O2 7683   2.832   3.345  13.185
  515MPD2     C 7684   0.917   0.372  15.280
  515MPD2    C1 7685   0.977   0.418  15.162
  515MPD2    C2 7686   1.054   0.532  15.164
  515MPD2    C3 7687   1.073   0.604  15.278
  515MPD2    C4 7688   1.020   0.559  15.398
  515MPD2    C5 7689   0.936   0.447  15.393
  515MPD2     H 7690   1.086   0.560  15.064
  515MPD2    H1 7691   1.038   0.599  15.498
  515MPD2    H2 7692   0.855   0.284  15.286
  515MPD2    H3 7693   0.879   0.428  15.483
  515MPD2     N 7694   1.158   0.716  15.288
  515MPD2    H5 7695   1.155   0.741  15.386
  515MPD2    N1 7696   0.949   0.353  15.034
  515MPD2    H7 7697   0.964   0.402  14.946
  516TMC3    C1 7698   0.890   0.170  14.884
  516TMC3    C2 7699   0.807   0.232  14.803
  516TMC3    C3 7700   0.729   0.149  14.720
  516TMC3    C4 7701   0.898   0.038  14.892
  516TMC3    C5 7702   0.827   4.737  14.814
  516TMC3    C6 7703   0.735   0.012  14.729
  516TMC3     C 7704   0.898   0.225  15.021
  516TMC3     O 7705   0.882   0.141  15.110
  516TMC3     H 7706   0.777   0.336  14.811
  516TMC3    H1 7707   0.968   4.771  14.960
  516TMC3    H2 7708   0.666   4.728  14.675
  516TMC3    C7 7709   0.792   4.614  14.881
  516TMC3    C8 7710   0.651   0.212  14.615
  516TMC3    O1 7711   0.878   4.575  14.964
  516TMC3    O2 7712   0.550   0.155  14.581
  517MPD2     C 7713   0.438   2.073  17.709
  517MPD2    C1 7714   0.546   2.057  17.787
  517MPD2    C2 7715   0.558   2.146  17.890
  517MPD2    C3 7716   0.471   2.255  17.910
  517MPD2    C4 7717   0.376   2.275  17.818
  517MPD2    C5 7718   0.362   2.187  17.716
  517MPD2     H 7719   0.645   2.131  17.954
  517MPD2    H1 7720   0.308   2.356  17.842
  517MPD2    H2 7721   0.418   2.005  17.627
  517MPD2    H3 7722   0.277   2.200  17.650
  517MPD2     N 7723   0.484   2.349  18.017
  517MPD2    H5 7724   0.419   2.427  18.023
  517MPD2    N1 7725   0.642   1.952  17.779
  517MPD2    H7 7726   0.718   1.961  17.846
  518TMC3    C1 7727   0.764   1.776  17.689
  518TMC3    C2 7728   0.760   1.663  17.610
  518TMC3    C3 7729   0.865   1.573  17.622
  518TMC3    C4 7730   0.873   1.805  17.772
  518TMC3    C5 7731   0.972   1.708  17.775
  518TMC3    C6 7732   0.977   1.598  17.695
  518TMC3     C 7733   0.654   1.867  17.674
  518TMC3     O 7734   0.580   1.851  17.578
  518TMC3     H 7735   0.669   1.648  17.553
  518TMC3    H1 7736   0.892   1.891  17.836
  518TMC3    H2 7737   1.049   1.521  17.721
  518TMC3    C7 7738   1.088   1.736  17.858
  518TMC3    C8 7739   0.840   1.432  17.583
  518TMC3    O1 7740   1.077   1.815  17.951
  518TMC3    O2 7741   0.929   1.348  17.615
  519MPD2     C 7742   1.933   0.550  14.722
  519MPD2    C1 7743   1.947   0.529  14.583
  519MPD2    C2 7744   2.000   0.413  14.526
  519MPD2    C3 7745   2.051   0.316  14.607
  519MPD2    C4 7746   2.037   0.335  14.743
  519MPD2    C5 7747   1.981   0.444  14.795
  519MPD2     H 7748   1.996   0.394  14.420
  519MPD2    H1 7749   2.062   0.261  14.818
  519MPD2    H2 7750   1.890   0.642  14.761
  519MPD2    H3 7751   1.981   0.447  14.904
  519MPD2     N 7752   2.108   0.195  14.558
  519MPD2    H5 7753   2.136   0.125  14.626
  519MPD2    N1 7754   1.883   0.632  14.511
  519MPD2    H7 7755   1.826   0.698  14.562
  520TMC3    C1 7756   2.213   0.033  14.405
  520TMC3    C2 7757   2.200   4.779  14.272
  520TMC3    C3 7758   2.318   4.759  14.205
  520TMC3    C4 7759   2.328   0.030  14.479
  520TMC3    C5 7760   2.442   0.001  14.405
  520TMC3    C6 7761   2.436   4.754  14.269
  520TMC3     C 7762   2.130   0.158  14.427
  520TMC3     O 7763   2.088   0.217  14.326
  520TMC3     H 7764   2.100   4.776  14.230
  520TMC3    H1 7765   2.333   0.064  14.582
  520TMC3    H2 7766   2.520   4.725  14.207
  520TMC3    C7 7767   2.573   4.752  14.463
  520TMC3    C8 7768   2.316   0.035  14.069
  520TMC3    O1 7769   2.568   4.702  14.578
  520TMC3    O2 7770   2.425   0.068  14.018
  521MPD2     C 7771   3.176   3.323  17.411
  521MPD2    C1 7772   3.165   3.186  17.386
  521MPD2    C2 7773   3.268   3.130  17.308
  521MPD2    C3 7774   3.379   3.205  17.275
  521MPD2    C4 7775   3.376   3.340  17.293
  521MPD2    C5 7776   3.275   3.400  17.363
  521MPD2     H 7777   3.264   3.026  17.274
  521MPD2    H1 7778   3.458   3.404  17.263
  521MPD2    H2 7779   3.098   3.373  17.468
  521MPD2    H3 7780   3.277   3.507  17.382
  521MPD2     N 7781   3.464   3.147  17.181
  521MPD2    H5 7782   3.442   3.052  17.156
  521MPD2    N1 7783   3.053   3.114  17.426
  521MPD2    H7 7784   2.994   3.157  17.495
  522TMC3    C1 7785   3.621   3.152  17.001
  522TMC3    C2 7786   3.754   3.108  17.001
  522TMC3    C3 7787   3.788   2.994  16.933
  522TMC3    C4 7788   3.528   3.067  16.951
  522TMC3    C5 7789   3.561   2.949  16.892
  522TMC3    C6 7790   3.693   2.906  16.885
  522TMC3     C 7791   3.575   3.214  17.121
  522TMC3     O 7792   3.625   3.315  17.159
  522TMC3     H 7793   3.836   3.170  17.033
  522TMC3    H1 7794   3.427   3.102  16.936
  522TMC3    H2 7795   3.721   2.810  16.844
  522TMC3    C7 7796   3.458   2.854  16.873
  522TMC3    C8 7797   3.915   3.002  16.858
  522TMC3    O1 7798   3.478   2.735  16.884
  522TMC3    O2 7799   3.981   3.101  16.882
  523MPD2     C 7800   1.030   2.822  10.675
  523MPD2    C1 7801   0.939   2.797  10.574
  523MPD2    C2 7802   0.910   2.905  10.486
  523MPD2    C3 7803   0.966   3.028  10.506
  523MPD2    C4 7804   1.052   3.050  10.606
  523MPD2    C5 7805   1.090   2.945  10.688
  523MPD2     H 7806   0.844   2.888  10.401
  523MPD2    H1 7807   1.082   3.151  10.631
  523MPD2    H2 7808   1.055   2.742  10.744
  523MPD2    H3 7809   1.158   2.969  10.770
  523MPD2     N 7810   0.933   3.141  10.427
  523MPD2    H5 7811   0.978   3.226  10.463
  523MPD2    N1 7812   0.885   2.667  10.578
  523MPD2    H7 7813   0.926   2.598  10.640
  524TMC3    C1 7814   0.839   3.272  10.255
  524TMC3    C2 7815   0.803   3.273  10.127
  524TMC3    C3 7816   0.740   3.386  10.076
  524TMC3    C4 7817   0.783   3.366  10.339
  524TMC3    C5 7818   0.713   3.469  10.293
  524TMC3    C6 7819   0.697   3.482  10.156
  524TMC3     C 7820   0.856   3.144  10.314
  524TMC3     O 7821   0.800   3.059  10.248
  524TMC3     H 7822   0.833   3.206  10.047
  524TMC3    H1 7823   0.800   3.358  10.446
  524TMC3    H2 7824   0.653   3.577  10.128
  524TMC3    C7 7825   0.674   3.570  10.391
  524TMC3    C8 7826   0.707   3.387   9.933
  524TMC3    O1 7827   0.670   3.534  10.508
  524TMC3    O2 7828   0.687   3.275   9.891
  525MPD2     C 7829   3.494   4.466  15.003
  525MPD2    C1 7830   3.621   4.467  15.061
  525MPD2    C2 7831   3.721   4.555  15.007
  525MPD2    C3 7832   3.690   4.629  14.893
  525MPD2    C4 7833   3.568   4.611  14.831
  525MPD2    C5 7834   3.469   4.530  14.888
  525MPD2     H 7835   3.817   4.573  15.054
  525MPD2    H1 7836   3.545   4.670  14.743
  525MPD2    H2 7837   3.415   4.408  15.049
  525MPD2    H3 7838   3.386   4.515  14.821
  525MPD2     N 7839   3.773   4.727  14.835
  525MPD2    H5 7840   3.733   4.770  14.752
  525MPD2    N1 7841   3.645   4.403  15.184
  525MPD2    H7 7842   3.743   4.399  15.213
  526TMC3    C1 7843   3.627   4.266  15.374
  526TMC3    C2 7844   3.544   4.262  15.485
  526TMC3    C3 7845   3.589   4.208  15.597
  526TMC3    C4 7846   3.749   4.210  15.372
  526TMC3    C5 7847   3.799   4.160  15.491
  526TMC3    C6 7848   3.725   4.163  15.604
  526TMC3     C 7849   3.570   4.306  15.251
  526TMC3     O 7850   3.455   4.264  15.232
  526TMC3     H 7851   3.452   4.320  15.490
  526TMC3    H1 7852   3.789   4.194  15.272
  526TMC3    H2 7853   3.770   4.122  15.694
  526TMC3    C7 7854   3.942   4.109  15.492
  526TMC3    C8 7855   3.548   4.269  15.722
  526TMC3    O1 7856   3.971   4.057  15.599
  526TMC3    O2 7857   3.627   4.260  15.817
  527MPD2     C 7858   1.532   2.521  19.063
  527MPD2    C1 7859   1.606   2.544  18.956
  527MPD2    C2 7860   1.743   2.505  18.963
  527MPD2    C3 7861   1.806   2.462  19.080
  527MPD2    C4 7862   1.724   2.455  19.192
  527MPD2    C5 7863   1.589   2.476  19.177
  527MPD2     H 7864   1.804   2.510  18.873
  527MPD2    H1 7865   1.780   2.419  19.277
  527MPD2    H2 7866   1.427   2.546  19.053
  527MPD2    H3 7867   1.529   2.467  19.267
  527MPD2     N 7868   1.955   2.452  19.088
  527MPD2    H5 7869   2.001   2.476  19.000
  527MPD2    N1 7870   1.559   2.587  18.831
  527MPD2    H7 7871   1.625   2.588  18.754
  528TMC3    C1 7872   1.423   2.704  18.680
  528TMC3    C2 7873   1.404   2.838  18.676
  528TMC3    C3 7874   1.414   2.896  18.555
  528TMC3    C4 7875   1.454   2.623  18.578
  528TMC3    C5 7876   1.434   2.679  18.455
  528TMC3    C6 7877   1.416   2.812  18.441
  528TMC3     C 7878   1.434   2.647  18.809
  528TMC3     O 7879   1.356   2.687  18.896
  528TMC3     H 7880   1.394   2.902  18.763
  528TMC3    H1 7881   1.462   2.515  18.580
  528TMC3    H2 7882   1.427   2.860  18.344
  528TMC3    C7 7883   1.383   2.589  18.348
  528TMC3    C8 7884   1.538   2.983  18.558
  528TMC3    O1 7885   1.405   2.470  18.366
  528TMC3    O2 7886   1.525   3.065  18.651
  529MPD2     C 7887   3.891   1.525  19.154
  529MPD2    C1 7888   4.002   1.505  19.069
  529MPD2    C2 7889   3.986   1.534  18.938
  529MPD2    C3 7890   3.867   1.584  18.887
  529MPD2    C4 7891   3.757   1.598  18.971
  529MPD2    C5 7892   3.772   1.569  19.101
  529MPD2     H 7893   4.075   1.522  18.877
  529MPD2    H1 7894   3.668   1.645  18.931
  529MPD2    H2 7895   3.903   1.508  19.260
  529MPD2    H3 7896   3.693   1.575  19.175
  529MPD2     N 7897   3.858   1.628  18.752
  529MPD2    H5 7898   3.762   1.649  18.727
  529MPD2    N1 7899   4.121   1.431  19.104
  529MPD2    H7 7900   4.192   1.428  19.032
  530TMC3    C1 7901   4.280   1.321  19.245
  530TMC3    C2 7902   4.333   1.308  19.370
  530TMC3    C3 7903   4.418   1.201  19.399
  530TMC3    C4 7904   4.301   1.221  19.159
  530TMC3    C5 7905   4.389   1.118  19.189
  530TMC3    C6 7906   4.449   1.109  19.313
  530TMC3     C 7907   4.155   1.397  19.235
  530TMC3     O 7908   4.092   1.423  19.337
  530TMC3     H 7909   4.317   1.392  19.437
  530TMC3    H1 7910   4.253   1.220  19.062
  530TMC3    H2 7911   4.546   1.062  19.309
  530TMC3    C7 7912   4.384   1.002  19.106
  530TMC3    C8 7913   4.494   1.206  19.523
  530TMC3    O1 7914   4.324   1.004  18.999
  530TMC3    O2 7915   4.470   1.305  19.592
  531MPD2     C 7916   3.506   3.306  13.417
  531MPD2    C1 7917   3.384   3.244  13.436
  531MPD2    C2 7918   3.342   3.142  13.354
  531MPD2    C3 7919   3.423   3.097  13.244
  531MPD2    C4 7920   3.547   3.162  13.228
  531MPD2    C5 7921   3.592   3.262  13.314
  531MPD2     H 7922   3.244   3.102  13.379
  531MPD2    H1 7923   3.614   3.150  13.144
  531MPD2    H2 7924   3.541   3.386  13.481
  531MPD2    H3 7925   3.685   3.308  13.286
  531MPD2     N 7926   3.397   3.006  13.147
  531MPD2    H5 7927   3.483   2.962  13.118
  531MPD2    N1 7928   3.304   3.304  13.537
  531MPD2    H7 7929   3.349   3.375  13.595
  532TMC3    C1 7930   3.120   3.360  13.669
  532TMC3    C2 7931   2.984   3.370  13.662
  532TMC3    C3 7932   2.912   3.374  13.781
  532TMC3    C4 7933   3.176   3.338  13.791
  532TMC3    C5 7934   3.103   3.344  13.909
  532TMC3    C6 7935   2.968   3.369  13.904
  532TMC3     C 7936   3.170   3.277  13.560
  532TMC3     O 7937   3.093   3.209  13.496
  532TMC3     H 7938   2.948   3.381  13.560
  532TMC3    H1 7939   3.284   3.333  13.790
  532TMC3    H2 7940   2.906   3.384  13.992
  532TMC3    C7 7941   3.175   3.374  14.028
  532TMC3    C8 7942   2.788   3.305  13.757
  532TMC3    O1 7943   3.130   3.463  14.103
  532TMC3    O2 7944   2.694   3.335  13.830
  533TMC3    C1 7945   3.915   0.127  14.831
  533TMC3    C2 7946   4.045   0.164  14.838
  533TMC3    C3 7947   4.078   0.292  14.880
  533TMC3    C4 7948   3.815   0.213  14.877
  533TMC3    C5 7949   3.849   0.325  14.946
  533TMC3    C6 7950   3.982   0.359  14.947
  533TMC3     C 7951   3.900   4.771  14.866
  533TMC3     O 7952   3.979   4.715  14.943
  533TMC3     H 7953   4.120   0.090  14.812
  533TMC3    H1 7954   3.708   0.192  14.878
  533TMC3    H2 7955   3.998   0.463  14.971
  533TMC3    C7 7956   3.786   0.337  15.078
  533TMC3    C8 7957   4.214   0.341  14.900
  533TMC3    O1 7958   3.707   0.249  15.108
  533TMC3    O2 7959   4.234   0.396  15.006
  534MPD2     C 7960   2.059   0.937  19.909
  534MPD2    C1 7961   1.965   1.027  19.857
  534MPD2    C2 7962   1.849   0.979  19.797
  534MPD2    C3 7963   1.823   0.847  19.789
  534MPD2    C4 7964   1.912   0.758  19.844
  534MPD2    C5 7965   2.030   0.805  19.896
  534MPD2     H 7966   1.786   1.060  19.763
  534MPD2    H1 7967   1.891   0.652  19.843
  534MPD2    H2 7968   2.152   0.970  19.954
  534MPD2    H3 7969   2.099   0.728  19.928
  534MPD2     N 7970   1.710   0.792  19.718
  534MPD2    H5 7971   1.698   0.696  19.690
  534MPD2    N1 7972   1.989   1.170  19.850
  534MPD2    H7 7973   1.920   1.228  19.803
  535TMC3    C1 7974   1.512   0.803  19.592
  535TMC3    C2 7975   1.380   0.854  19.582
  535TMC3    C3 7976   1.316   0.827  19.465
  535TMC3    C4 7977   1.568   0.733  19.488
  535TMC3    C5 7978   1.503   0.720  19.365
  535TMC3    C6 7979   1.374   0.760  19.353
  535TMC3     C 7980   1.600   0.867  19.684
  535TMC3     O 7981   1.566   0.978  19.721
  535TMC3     H 7982   1.331   0.898  19.668
  535TMC3    H1 7983   1.671   0.701  19.497
  535TMC3    H2 7984   1.316   0.743  19.263
  535TMC3    C7 7985   1.582   0.718  19.243
  535TMC3    C8 7986   1.178   0.853  19.442
  535TMC3    O1 7987   1.702   0.723  19.262
  535TMC3    O2 7988   1.108   0.778  19.375
  536MPD2     C 7989   0.725   4.495  16.533
  536MPD2    C1 7990   0.602   4.441  16.556
  536MPD2    C2 7991   0.489   4.483  16.493
  536MPD2    C3 7992   0.493   4.579  16.396
  536MPD2    C4 7993   0.622   4.631  16.365
  536MPD2    C5 7994   0.734   4.601  16.442
  536MPD2     H 7995   0.396   4.432  16.515
  536MPD2    H1 7996   0.635   4.701  16.284
  536MPD2    H2 7997   0.814   4.454  16.580
  536MPD2    H3 7998   0.831   4.647  16.425
  536MPD2     N 7999   0.384   4.613  16.314
  536MPD2    H5 8000   0.399   4.689  16.248
  536MPD2    N1 8001   0.601   4.335  16.655
  536MPD2    H7 8002   0.684   4.322  16.712
  537TMC3    C1 8003   0.508   4.153  16.784
  537TMC3    C2 8004   0.525   4.215  16.911
  537TMC3    C3 8005   0.486   4.143  17.020
  537TMC3    C4 8006   0.446   4.033  16.782
  537TMC3    C5 8007   0.397   3.969  16.889
  537TMC3    C6 8008   0.422   4.026  17.013
  537TMC3     C 8009   0.498   4.246  16.675
  537TMC3     O 8010   0.399   4.220  16.601
  537TMC3     H 8011   0.579   4.307  16.929
  537TMC3    H1 8012   0.421   4.001  16.682
  537TMC3    H2 8013   0.386   3.994  17.110
  537TMC3    C7 8014   0.325   3.847  16.876
  537TMC3    C8 8015   0.489   4.205  17.145
  537TMC3    O1 8016   0.303   3.811  16.758
  537TMC3    O2 8017   0.517   4.133  17.244
  538TMC3    C1 8018   1.621   2.219  11.149
  538TMC3    C2 8019   1.758   2.217  11.154
  538TMC3    C3 8020   1.825   2.316  11.100
  538TMC3    C4 8021   1.560   2.317  11.080
  538TMC3    C5 8022   1.640   2.408  11.011
  538TMC3    C6 8023   1.773   2.413  11.025
  538TMC3     C 8024   1.547   2.202  11.276
  538TMC3     O 8025   1.427   2.205  11.260
  538TMC3     H 8026   1.810   2.140  11.209
  538TMC3    H1 8027   1.454   2.340  11.092
  538TMC3    H2 8028   1.825   2.488  10.967
  538TMC3    C7 8029   1.587   2.538  11.002
  538TMC3    C8 8030   1.962   2.282  11.055
  538TMC3    O1 8031   1.469   2.545  10.970
  538TMC3    O2 8032   1.980   2.163  11.015
  539MPD2     C 8033   1.093   1.905  12.287
  539MPD2    C1 8034   1.113   1.914  12.145
  539MPD2    C2 8035   1.106   2.034  12.086
  539MPD2    C3 8036   1.087   2.150  12.158
  539MPD2    C4 8037   1.065   2.137  12.296
  539MPD2    C5 8038   1.065   2.018  12.365
  539MPD2     H 8039   1.130   2.031  11.981
  539MPD2    H1 8040   1.029   2.216  12.362
  539MPD2    H2 8041   1.078   1.806  12.329
  539MPD2    H3 8042   1.055   2.015  12.473
  539MPD2     N 8043   1.088   2.282  12.108
  539MPD2    H5 8044   1.042   2.355  12.162
  539MPD2    N1 8045   1.144   1.803  12.070
  539MPD2    H7 8046   1.136   1.814  11.970
  540TMC3    C1 8047   1.097   2.448  11.935
  540TMC3    C2 8048   1.115   2.483  11.802
  540TMC3    C3 8049   1.117   2.614  11.761
  540TMC3    C4 8050   1.090   2.554  12.029
  540TMC3    C5 8051   1.097   2.684  11.980
  540TMC3    C6 8052   1.107   2.717  11.848
  540TMC3     C 8053   1.106   2.309  11.973
  540TMC3     O 8054   1.143   2.238  11.883
  540TMC3     H 8055   1.116   2.405  11.726
  540TMC3    H1 8056   1.073   2.537  12.135
  540TMC3    H2 8057   1.110   2.820  11.814
  540TMC3    C7 8058   1.026   2.775  12.063
  540TMC3    C8 8059   1.102   2.638  11.622
  540TMC3    O1 8060   0.933   2.711  12.113
  540TMC3    O2 8061   1.165   2.731  11.580
  541MPD2     C 8062   0.023   3.749  13.718
  541MPD2    C1 8063   4.671   3.718  13.721
  541MPD2    C2 8064   4.598   3.761  13.611
  541MPD2    C3 8065   4.645   3.847  13.514
  541MPD2    C4 8066   4.771   3.893  13.528
  541MPD2    C5 8067   0.074   3.837  13.621
  541MPD2     H 8068   4.500   3.716  13.600
  541MPD2    H1 8069   0.042   3.960  13.461
  541MPD2    H2 8070   0.088   3.704  13.793
  541MPD2    H3 8071   0.182   3.846  13.612
  541MPD2     N 8072   4.580   3.885  13.394
  541MPD2    H5 8073   4.600   3.973  13.348
  541MPD2    N1 8074   4.614   3.652  13.834
  541MPD2    H7 8075   4.675   3.593  13.890
  542TMC3    C1 8076   4.448   3.862  13.210
  542TMC3    C2 8077   4.419   3.766  13.112
  542TMC3    C3 8078   4.383   3.813  12.993
  542TMC3    C4 8079   4.444   3.999  13.187
  542TMC3    C5 8080   4.405   4.040  13.063
  542TMC3    C6 8081   4.377   3.947  12.966
  542TMC3     C 8082   4.487   3.806  13.337
  542TMC3     O 8083   4.446   3.695  13.365
  542TMC3     H 8084   4.439   3.664  13.140
  542TMC3    H1 8085   4.464   4.068  13.268
  542TMC3    H2 8086   4.364   3.972  12.862
  542TMC3    C7 8087   4.325   4.160  13.055
  542TMC3    C8 8088   4.406   3.734  12.879
  542TMC3    O1 8089   4.274   4.193  13.162
  542TMC3    O2 8090   4.458   3.793  12.786
  543TMC3    C1 8091   3.888   0.114  17.747
  543TMC3    C2 8092   3.901   4.758  17.766
  543TMC3    C3 8093   3.888   4.703  17.890
  543TMC3    C4 8094   3.872   0.192  17.852
  543TMC3    C5 8095   3.863   0.131  17.980
  543TMC3    C6 8096   3.865   4.776  18.004
  543TMC3     C 8097   3.949   0.169  17.625
  543TMC3     O 8098   4.034   0.097  17.576
  543TMC3     H 8099   3.928   4.703  17.677
  543TMC3    H1 8100   3.864   0.299  17.837
  543TMC3    H2 8101   3.871   4.740  18.106
  543TMC3    C7 8102   3.827   0.215  18.098
  543TMC3    C8 8103   3.854   4.566  17.879
  543TMC3    O1 8104   3.780   0.156  18.192
  543TMC3    O2 8105   3.897   4.502  17.781
  544MPD2     C 8106   3.599   4.145  18.027
  544MPD2    C1 8107   3.676   4.166  17.916
  544MPD2    C2 8108   3.745   4.289  17.906
  544MPD2    C3 8109   3.722   4.384  18.001
  544MPD2    C4 8110   3.639   4.363  18.108
  544MPD2    C5 8111   3.575   4.245  18.119
  544MPD2     H 8112   3.811   4.318  17.825
  544MPD2    H1 8113   3.622   4.444  18.178
  544MPD2    H2 8114   3.535   4.058  18.040
  544MPD2    H3 8115   3.501   4.229  18.197
  544MPD2     N 8116   3.782   4.516  17.983
  544MPD2    H5 8117   3.753   4.581  18.055
  544MPD2    N1 8118   3.693   4.065  17.820
  544MPD2    H7 8119   3.635   3.984  17.839
  545TMC3    C1 8120   3.748   3.971  17.598
  545TMC3    C2 8121   3.810   3.989  17.473
  545TMC3    C3 8122   3.787   3.893  17.372
  545TMC3    C4 8123   3.684   3.850  17.622
  545TMC3    C5 8124   3.678   3.752  17.524
  545TMC3    C6 8125   3.728   3.770  17.396
  545TMC3     C 8126   3.740   4.088  17.689
  545TMC3     O 8127   3.781   4.192  17.637
  545TMC3     H 8128   3.864   4.080  17.449
  545TMC3    H1 8129   3.631   3.842  17.716
  545TMC3    H2 8130   3.714   3.691  17.324
  545TMC3    C7 8131   3.636   3.622  17.566
  545TMC3    C8 8132   3.858   3.892  17.250
  545TMC3    O1 8133   3.567   3.617  17.667
  545TMC3    O2 8134   3.896   3.785  17.205
  546MPD2     C 8135   0.747   4.747  17.882
  546MPD2    C1 8136   0.653   0.018  17.796
  546MPD2    C2 8137   0.678   0.130  17.712
  546MPD2    C3 8138   0.804   0.192  17.718
  546MPD2    C4 8139   0.889   0.155  17.819
  546MPD2    C5 8140   0.864   0.041  17.897
  546MPD2     H 8141   0.611   0.178  17.642
  546MPD2    H1 8142   0.983   0.206  17.836
  546MPD2    H2 8143   0.746   4.658  17.944
  546MPD2    H3 8144   0.942   4.777  17.957
  546MPD2     N 8145   0.837   0.298  17.633
  546MPD2    H5 8146   0.933   0.327  17.650
  546MPD2    N1 8147   0.530   4.725  17.783
  546MPD2    H7 8148   0.511   4.638  17.832
  547TMC3    C1 8149   0.307   4.675  17.700
  547TMC3    C2 8150   0.230   4.686  17.591
  547TMC3    C3 8151   0.126   4.596  17.577
  547TMC3    C4 8152   0.281   4.588  17.796
  547TMC3    C5 8153   0.179   4.499  17.780
  547TMC3    C6 8154   0.101   4.496  17.671
  547TMC3     C 8155   0.418   4.769  17.707
  547TMC3     O 8156   0.404   0.088  17.636
  547TMC3     H 8157   0.256   4.750  17.507
  547TMC3    H1 8158   0.328   4.597  17.894
  547TMC3    H2 8159   0.018   4.428  17.656
  547TMC3    C7 8160   0.181   4.381  17.878
  547TMC3    C8 8161   0.057   4.599  17.456
  547TMC3    O1 8162   0.238   4.410  17.984
  547TMC3    O2 8163   0.048   4.705  17.396
  548MPD2     C 8164   0.022   0.982  12.808
  548MPD2    C1 8165   0.003   0.870  12.876
  548MPD2    C2 8166   0.087   0.759  12.845
  548MPD2    C3 8167   0.191   0.774  12.751
  548MPD2    C4 8168   0.211   0.898  12.686
  548MPD2    C5 8169   0.120   0.993  12.715
  548MPD2     H 8170   0.069   0.664  12.893
  548MPD2    H1 8171   0.284   0.917  12.608
  548MPD2    H2 8172   4.730   1.062  12.813
  548MPD2    H3 8173   0.135   1.094  12.679
  548MPD2     N 8174   0.262   0.659  12.725
  548MPD2    H5 8175   0.259   0.589  12.798
  548MPD2    N1 8176   4.678   0.862  12.970
  548MPD2    H7 8177   4.621   0.945  12.982
  549TMC3    C1 8178   4.523   0.777  13.121
  549TMC3    C2 8179   4.425   0.857  13.070
  549TMC3    C3 8180   4.291   0.844  13.105
  549TMC3    C4 8181   4.475   0.667  13.194
  549TMC3    C5 8182   4.339   0.650  13.220
  549TMC3    C6 8183   4.246   0.741  13.185
  549TMC3     C 8184   4.633   0.749  13.032
  549TMC3     O 8185   4.664   0.634  13.010
  549TMC3     H 8186   4.446   0.925  12.988
  549TMC3    H1 8187   4.547   0.609  13.251
  549TMC3    H2 8188   4.141   0.730  13.210
  549TMC3    C7 8189   4.290   0.523  13.263
  549TMC3    C8 8190   4.196   0.925  13.031
  549TMC3    O1 8191   4.176   0.520  13.305
  549TMC3    O2 8192   4.083   0.884  13.010
  550TMC3    C1 8193   3.835   3.763  12.832
  550TMC3    C2 8194   3.788   3.756  12.963
  550TMC3    C3 8195   3.719   3.869  12.998
  550TMC3    C4 8196   3.816   3.868  12.745
  550TMC3    C5 8197   3.741   3.977  12.788
  550TMC3    C6 8198   3.686   3.974  12.916
  550TMC3     C 8199   3.876   3.638  12.770
  550TMC3     O 8200   3.949   3.567  12.841
  550TMC3     H 8201   3.835   3.686  13.031
  550TMC3    H1 8202   3.856   3.872  12.644
  550TMC3    H2 8203   3.628   4.058  12.952
  550TMC3    C7 8204   3.632   3.993  12.690
  550TMC3    C8 8205   3.627   3.853  13.115
  550TMC3    O1 8206   3.525   3.941  12.720
  550TMC3    O2 8207   3.606   3.959  13.170
  551TMC3    C1 8208   1.372   1.145  13.760
  551TMC3    C2 8209   1.471   1.160  13.667
  551TMC3    C3 8210   1.570   1.250  13.688
  551TMC3    C4 8211   1.383   1.207  13.874
  551TMC3    C5 8212   1.481   1.302  13.887
  551TMC3    C6 8213   1.572   1.331  13.793
  551TMC3     C 8214   1.242   1.113  13.705
  551TMC3     O 8215   1.236   1.049  13.604
  551TMC3     H 8216   1.469   1.108  13.572
  551TMC3    H1 8217   1.309   1.197  13.952
  551TMC3    H2 8218   1.655   1.397  13.818
  551TMC3    C7 8219   1.486   1.366  14.014
  551TMC3    C8 8220   1.667   1.273  13.587
  551TMC3    O1 8221   1.466   1.297  14.112
  551TMC3    O2 8222   1.690   1.175  13.514
  552MPD2     C 8223   3.144   3.249  14.374
  552MPD2    C1 8224   3.126   3.118  14.400
  552MPD2    C2 8225   3.208   3.053  14.488
  552MPD2    C3 8226   3.310   3.123  14.554
  552MPD2    C4 8227   3.332   3.256  14.518
  552MPD2    C5 8228   3.251   3.322  14.428
  552MPD2     H 8229   3.203   2.945  14.499
  552MPD2    H1 8230   3.421   3.316  14.537
  552MPD2    H2 8231   3.080   3.308  14.310
  552MPD2    H3 8232   3.275   3.421  14.393
  552MPD2     N 8233   3.401   3.065  14.638
  552MPD2    H5 8234   3.468   3.132  14.674
  552MPD2    N1 8235   3.027   3.040  14.334
  552MPD2    H7 8236   3.034   2.945  14.367
  553TMC3    C1 8237   2.847   2.980  14.195
  553TMC3    C2 8238   2.804   3.021  14.071
  553TMC3    C3 8239   2.811   2.937  13.966
  553TMC3    C4 8240   2.882   2.849  14.219
  553TMC3    C5 8241   2.876   2.763  14.116
  553TMC3    C6 8242   2.840   2.799  13.990
  553TMC3     C 8243   2.927   3.089  14.255
  553TMC3     O 8244   2.882   3.204  14.245
  553TMC3     H 8245   2.795   3.127  14.048
  553TMC3    H1 8246   2.913   2.818  14.319
  553TMC3    H2 8247   2.842   2.725  13.911
  553TMC3    C7 8248   2.925   2.631  14.132
  553TMC3    C8 8249   2.915   2.980  13.876
  553TMC3    O1 8250   2.850   2.541  14.097
  553TMC3    O2 8251   2.986   3.069  13.928
  554TMC3    C1 8252   0.151   2.557  11.973
  554TMC3    C2 8253   0.083   2.509  11.864
  554TMC3    C3 8254   0.152   2.466  11.753
  554TMC3    C4 8255   0.284   2.574  11.969
  554TMC3    C5 8256   0.351   2.519  11.864
  554TMC3    C6 8257   0.290   2.462  11.753
  554TMC3     C 8258   0.104   2.497  12.097
  554TMC3     O 8259   4.763   2.502  12.115
  554TMC3     H 8260   4.758   2.494  11.881
  554TMC3    H1 8261   0.349   2.610  12.048
  554TMC3    H2 8262   0.353   2.436  11.669
  554TMC3    C7 8263   0.484   2.560  11.828
  554TMC3    C8 8264   0.086   2.447  11.626
  554TMC3    O1 8265   0.552   2.491  11.752
  554TMC3    O2 8266   0.156   2.409  11.529
  555TMC3    C1 8267   4.066   1.807  15.186
  555TMC3    C2 8268   4.011   1.900  15.267
  555TMC3    C3 8269   3.992   1.861  15.396
  555TMC3    C4 8270   4.107   1.682  15.229
  555TMC3    C5 8271   4.084   1.650  15.358
  555TMC3    C6 8272   4.037   1.739  15.443
  555TMC3     C 8273   4.065   1.829  15.042
  555TMC3     O 8274   4.141   1.758  14.974
  555TMC3     H 8275   3.984   2.000  15.237
  555TMC3    H1 8276   4.151   1.608  15.164
  555TMC3    H2 8277   4.022   1.718  15.549
  555TMC3    C7 8278   4.148   1.537  15.421
  555TMC3    C8 8279   3.979   1.967  15.494
  555TMC3    O1 8280   4.072   1.479  15.495
  555TMC3    O2 8281   3.924   2.072  15.468
  556MPD2     C 8282   2.273   3.563  11.349
  556MPD2    C1 8283   2.292   3.435  11.392
  556MPD2    C2 8284   2.336   3.340  11.298
  556MPD2    C3 8285   2.342   3.367  11.165
  556MPD2    C4 8286   2.324   3.504  11.126
  556MPD2    C5 8287   2.298   3.606  11.218
  556MPD2     H 8288   2.371   3.242  11.329
  556MPD2    H1 8289   2.337   3.553  11.031
  556MPD2    H2 8290   2.246   3.639  11.421
  556MPD2    H3 8291   2.288   3.710  11.191
  556MPD2     N 8292   2.353   3.262  11.069
  556MPD2    H5 8293   2.371   3.171  11.111
  556MPD2    N1 8294   2.283   3.401  11.525
  556MPD2    H7 8295   2.304   3.304  11.545
  557TMC3    C1 8296   2.369   3.146  10.856
  557TMC3    C2 8297   2.345   3.159  10.722
  557TMC3    C3 8298   2.341   3.048  10.638
  557TMC3    C4 8299   2.373   3.023  10.914
  557TMC3    C5 8300   2.361   2.912  10.828
  557TMC3    C6 8301   2.335   2.920  10.693
  557TMC3     C 8302   2.349   3.270  10.930
  557TMC3     O 8303   2.343   3.372  10.861
  557TMC3     H 8304   2.355   3.250  10.664
  557TMC3    H1 8305   2.393   3.017  11.020
  557TMC3    H2 8306   2.310   2.829  10.640
  557TMC3    C7 8307   2.331   2.788  10.902
  557TMC3    C8 8308   2.301   3.069  10.499
  557TMC3    O1 8309   2.289   2.798  11.016
  557TMC3    O2 8310   2.278   3.180  10.469
  558TMC3    C1 8311   4.408   1.033  10.644
  558TMC3    C2 8312   4.284   1.036  10.711
  558TMC3    C3 8313   4.172   1.079  10.646
  558TMC3    C4 8314   4.416   1.078  10.514
  558TMC3    C5 8315   4.295   1.119  10.463
  558TMC3    C6 8316   4.174   1.120  10.521
  558TMC3     C 8317   4.529   1.051  10.723
  558TMC3     O 8318   4.634   1.039  10.663
  558TMC3     H 8319   4.284   0.995  10.812
  558TMC3    H1 8320   4.510   1.086  10.460
  558TMC3    H2 8321   4.090   1.167  10.472
  558TMC3    C7 8322   4.319   1.217  10.365
  558TMC3    C8 8323   4.039   1.059  10.710
  558TMC3    O1 8324   4.427   1.274  10.361
  558TMC3    O2 8325   3.939   1.076  10.641
  559MPD2     C 8326   4.582   2.205  11.253
  559MPD2    C1 8327   4.482   2.118  11.301
  559MPD2    C2 8328   4.500   2.042  11.413
  559MPD2    C3 8329   4.627   2.053  11.472
  559MPD2    C4 8330   4.723   2.136  11.419
  559MPD2    C5 8331   4.705   2.207  11.303
  559MPD2     H 8332   4.428   1.986  11.470
  559MPD2    H1 8333   0.040   2.149  11.465
  559MPD2    H2 8334   4.578   2.264  11.162
  559MPD2    H3 8335   0.010   2.250  11.252
  559MPD2     N 8336   4.652   1.970  11.581
  559MPD2    H5 8337   4.561   1.951  11.623
  559MPD2    N1 8338   4.361   2.115  11.227
  559MPD2    H7 8339   4.357   2.188  11.156
  560TMC3    C1 8340   4.778   1.858  11.741
  560TMC3    C2 8341   4.691   1.751  11.731
  560TMC3    C3 8342   4.729   1.636  11.788
  560TMC3    C4 8343   0.117   1.849  11.810
  560TMC3    C5 8344   0.151   1.731  11.866
  560TMC3    C6 8345   0.068   1.624  11.854
  560TMC3     C 8346   4.770   1.965  11.645
  560TMC3     O 8347   0.099   2.018  11.618
  560TMC3     H 8348   4.606   1.740  11.665
  560TMC3    H1 8349   0.172   1.940  11.830
  560TMC3    H2 8350   0.100   1.534  11.904
  560TMC3    C7 8351   0.290   1.713  11.910
  560TMC3    C8 8352   4.668   1.521  11.724
  560TMC3    O1 8353   0.305   1.615  11.980
  560TMC3    O2 8354   4.549   1.520  11.698
  561TMC3    C1 8355   2.760   1.064  11.228
  561TMC3    C2 8356   2.676   0.981  11.292
  561TMC3    C3 8357   2.615   1.023  11.405
  561TMC3    C4 8358   2.791   1.188  11.271
  561TMC3    C5 8359   2.729   1.226  11.387
  561TMC3    C6 8360   2.647   1.142  11.459
  561TMC3     C 8361   2.839   1.009  11.117
  561TMC3     O 8362   2.790   0.904  11.074
  561TMC3     H 8363   2.658   0.883  11.249
  561TMC3    H1 8364   2.861   1.254  11.223
  561TMC3    H2 8365   2.607   1.187  11.550
  561TMC3    C7 8366   2.757   1.357  11.433
  561TMC3    C8 8367   2.559   0.919  11.485
  561TMC3    O1 8368   2.759   1.381  11.551
  561TMC3    O2 8369   2.562   0.805  11.443
  562TMC3    C1 8370   4.014   2.315  16.821
  562TMC3    C2 8371   3.952   2.427  16.787
  562TMC3    C3 8372   3.836   2.425  16.714
  562TMC3    C4 8373   3.956   2.191  16.788
  562TMC3    C5 8374   3.842   2.192  16.711
  562TMC3    C6 8375   3.782   2.305  16.669
  562TMC3     C 8376   4.161   2.311  16.835
  562TMC3     O 8377   4.209   2.221  16.900
  562TMC3     H 8378   3.967   2.526  16.828
  562TMC3    H1 8379   4.013   2.102  16.809
  562TMC3    H2 8380   3.695   2.303  16.604
  562TMC3    C7 8381   3.781   2.069  16.666
  562TMC3    C8 8382   3.778   2.553  16.677
  562TMC3    O1 8383   3.679   2.086  16.604
  562TMC3    O2 8384   3.819   2.654  16.734
  563MPD2     C 8385   1.311   3.340  15.797
  563MPD2    C1 8386   1.362   3.373  15.916
  563MPD2    C2 8387   1.486   3.330  15.943
  563MPD2    C3 8388   1.559   3.245  15.863
  563MPD2    C4 8389   1.496   3.193  15.755
  563MPD2    C5 8390   1.376   3.250  15.714
  563MPD2     H 8391   1.540   3.352  16.035
  563MPD2    H1 8392   1.541   3.137  15.673
  563MPD2    H2 8393   1.218   3.388  15.768
  563MPD2    H3 8394   1.329   3.224  15.619
  563MPD2     N 8395   1.671   3.172  15.925
  563MPD2    H5 8396   1.707   3.205  16.014
  563MPD2    N1 8397   1.287   3.453  16.008
  563MPD2    H7 8398   1.193   3.483  15.985
  564TMC3    C1 8399   1.228   3.486  16.240
  564TMC3    C2 8400   1.116   3.419  16.208
  564TMC3    C3 8401   1.057   3.332  16.294
  564TMC3    C4 8402   1.283   3.472  16.365
  564TMC3    C5 8403   1.244   3.369  16.437
  564TMC3    C6 8404   1.123   3.307  16.409
  564TMC3     C 8405   1.331   3.496  16.131
  564TMC3     O 8406   1.444   3.508  16.171
  564TMC3     H 8407   1.068   3.452  16.116
  564TMC3    H1 8408   1.376   3.522  16.392
  564TMC3    H2 8409   1.080   3.240  16.482
  564TMC3    C7 8410   1.352   3.270  16.454
  564TMC3    C8 8411   1.023   3.198  16.231
  564TMC3    O1 8412   1.453   3.316  16.513
  564TMC3    O2 8413   0.977   3.114  16.307
  565TMC3    C1 8414   1.972   4.731  10.843
  565TMC3    C2 8415   2.007   4.638  10.932
  565TMC3    C3 8416   1.950   4.513  10.918
  565TMC3    C4 8417   1.892   4.699  10.736
  565TMC3    C5 8418   1.849   4.568  10.713
  565TMC3    C6 8419   1.869   4.473  10.812
  565TMC3     C 8420   2.044   0.075  10.833
  565TMC3     O 8421   2.052   0.129  10.725
  565TMC3     H 8422   2.087   4.660  11.002
  565TMC3    H1 8423   1.848   4.779  10.677
  565TMC3    H2 8424   1.867   4.372  10.772
  565TMC3    C7 8425   1.708   4.566  10.670
  565TMC3    C8 8426   2.017   4.406  10.997
  565TMC3    O1 8427   1.682   4.649  10.579
  565TMC3    O2 8428   2.122   4.439  11.051
  566MPD2     C 8429   3.663   1.615  14.773
  566MPD2    C1 8430   3.665   1.505  14.690
  566MPD2    C2 8431   3.545   1.445  14.661
  566MPD2    C3 8432   3.429   1.497  14.709
  566MPD2    C4 8433   3.436   1.611  14.791
  566MPD2    C5 8434   3.550   1.674  14.818
  566MPD2     H 8435   3.551   1.347  14.614
  566MPD2    H1 8436   3.346   1.637  14.845
  566MPD2    H2 8437   3.755   1.669  14.793
  566MPD2    H3 8438   3.551   1.764  14.879
  566MPD2     N 8439   3.300   1.445  14.679
  566MPD2    H5 8440   3.223   1.479  14.736
  566MPD2    N1 8441   3.788   1.462  14.645
  566MPD2    H7 8442   3.860   1.533  14.636
  567TMC3    C1 8443   3.932   1.341  14.509
  567TMC3    C2 8444   3.979   1.449  14.435
  567TMC3    C3 8445   4.111   1.443  14.400
  567TMC3    C4 8446   4.013   1.242  14.552
  567TMC3    C5 8447   4.148   1.240  14.519
  567TMC3    C6 8448   4.192   1.332  14.427
  567TMC3     C 8449   3.805   1.347  14.578
  567TMC3     O 8450   3.751   1.241  14.589
  567TMC3     H 8451   3.907   1.519  14.395
  567TMC3    H1 8452   3.968   1.163  14.611
  567TMC3    H2 8453   4.297   1.333  14.402
  567TMC3    C7 8454   4.217   1.235  14.646
  567TMC3    C8 8455   4.159   1.543  14.304
  567TMC3    O1 8456   4.339   1.220  14.660
  567TMC3    O2 8457   4.246   1.519  14.228
  568MPD2     C 8458   1.006   1.744  16.445
  568MPD2    C1 8459   1.074   1.822  16.538
  568MPD2    C2 8460   1.073   1.960  16.535
  568MPD2    C3 8461   1.013   2.029  16.433
  568MPD2    C4 8462   0.942   1.955  16.340
  568MPD2    C5 8463   0.942   1.815  16.344
  568MPD2     H 8464   1.118   2.012  16.619
  568MPD2    H1 8465   0.885   1.997  16.258
  568MPD2    H2 8466   1.009   1.636  16.438
  568MPD2    H3 8467   0.886   1.765  16.265
  568MPD2     N 8468   1.029   2.166  16.423
  568MPD2    H5 8469   1.053   2.221  16.505
  568MPD2    N1 8470   1.130   1.754  16.647
  568MPD2    H7 8471   1.157   1.656  16.635
  569TMC3    C1 8472   1.060   2.367  16.313
  569TMC3    C2 8473   1.072   2.436  16.435
  569TMC3    C3 8474   1.165   2.540  16.448
  569TMC3    C4 8475   1.134   2.411  16.206
  569TMC3    C5 8476   1.219   2.518  16.219
  569TMC3    C6 8477   1.237   2.582  16.341
  569TMC3     C 8478   1.005   2.236  16.306
  569TMC3     O 8479   0.964   2.203  16.196
  569TMC3     H 8480   1.008   2.421  16.522
  569TMC3    H1 8481   1.108   2.382  16.105
  569TMC3    H2 8482   1.322   2.648  16.351
  569TMC3    C7 8483   1.242   2.604  16.105
  569TMC3    C8 8484   1.124   2.650  16.540
  569TMC3    O1 8485   1.245   2.549  15.995
  569TMC3    O2 8486   1.011   2.658  16.583
  570TMC3    C1 8487   0.652   0.784  16.424
  570TMC3    C2 8488   0.770   0.765  16.366
  570TMC3    C3 8489   0.827   0.880  16.313
  570TMC3    C4 8490   0.569   0.897  16.405
  570TMC3    C5 8491   0.631   0.999  16.343
  570TMC3    C6 8492   0.760   1.001  16.304
  570TMC3     C 8493   0.611   0.676  16.512
  570TMC3     O 8494   0.651   0.566  16.490
  570TMC3     H 8495   0.827   0.674  16.383
  570TMC3    H1 8496   0.469   0.908  16.446
  570TMC3    H2 8497   0.809   1.090  16.267
  570TMC3    C7 8498   0.589   1.129  16.385
  570TMC3    C8 8499   0.963   0.884  16.264
  570TMC3    O1 8500   0.667   1.179  16.462
  570TMC3    O2 8501   1.009   0.993  16.243
  571MPD2     C 8502   3.154   2.611  17.606
  571MPD2    C1 8503   3.087   2.695  17.682
  571MPD2    C2 8504   3.153   2.816  17.717
  571MPD2    C3 8505   3.286   2.836  17.688
  571MPD2    C4 8506   3.352   2.756  17.604
  571MPD2    C5 8507   3.284   2.642  17.565
  571MPD2     H 8508   3.106   2.890  17.781
  571MPD2    H1 8509   3.450   2.780  17.566
  571MPD2    H2 8510   3.109   2.518  17.575
  571MPD2    H3 8511   3.336   2.573  17.499
  571MPD2     N 8512   3.359   2.941  17.743
  571MPD2    H5 8513   3.457   2.923  17.762
  571MPD2    N1 8514   2.963   2.662  17.734
  571MPD2    H7 8515   2.925   2.568  17.727
  572TMC3    C1 8516   3.389   3.146  17.859
  572TMC3    C2 8517   3.432   3.080  17.970
  572TMC3    C3 8518   3.461   3.151  18.083
  572TMC3    C4 8519   3.344   3.272  17.873
  572TMC3    C5 8520   3.376   3.343  17.983
  572TMC3    C6 8521   3.428   3.283  18.095
  572TMC3     C 8522   3.304   3.063  17.780
  572TMC3     O 8523   3.198   3.109  17.737
  572TMC3     H 8524   3.468   2.978  17.970
  572TMC3    H1 8525   3.302   3.313  17.783
  572TMC3    H2 8526   3.431   3.337  18.189
  572TMC3    C7 8527   3.342   3.490  17.990
  572TMC3    C8 8528   3.476   3.079  18.204
  572TMC3    O1 8529   3.249   3.523  17.923
  572TMC3    O2 8530   3.550   2.980  18.206
  573MPD2     C 8531   3.902   2.969  18.428
  573MPD2    C1 8532   3.995   3.057  18.375
  573MPD2    C2 8533   4.037   3.037  18.241
  573MPD2    C3 8534   3.999   2.923  18.175
  573MPD2    C4 8535   3.917   2.833  18.233
  573MPD2    C5 8536   3.872   2.855  18.358
  573MPD2     H 8537   4.109   3.105  18.196
  573MPD2    H1 8538   3.885   2.747  18.175
  573MPD2    H2 8539   3.875   2.983  18.533
  573MPD2    H3 8540   3.804   2.787  18.409
  573MPD2     N 8541   4.042   2.903  18.036
  573MPD2    H5 8542   4.015   2.815  17.994
  573MPD2    N1 8543   4.040   3.160  18.457
  573MPD2    H7 8544   3.984   3.178  18.539
  574TMC3    C1 8545   4.146   2.948  17.818
  574TMC3    C2 8546   4.034   2.900  17.760
  574TMC3    C3 8547   4.026   2.905  17.626
  574TMC3    C4 8548   4.252   3.005  17.754
  574TMC3    C5 8549   4.248   2.987  17.620
  574TMC3    C6 8550   4.131   2.954  17.558
  574TMC3     C 8551   4.127   2.981  17.958
  574TMC3     O 8552   4.191   3.075  18.005
  574TMC3     H 8553   3.947   2.864  17.813
  574TMC3    H1 8554   4.344   3.043  17.797
  574TMC3    H2 8555   4.123   2.961  17.450
  574TMC3    C7 8556   4.335   3.062  17.531
  574TMC3    C8 8557   3.897   2.946  17.580
  574TMC3    O1 8558   4.363   3.008  17.424
  574TMC3    O2 8559   3.809   2.861  17.592
  575TMC3    C1 8560   2.368   4.188  11.803
  575TMC3    C2 8561   2.283   4.103  11.871
  575TMC3    C3 8562   2.165   4.061  11.811
  575TMC3    C4 8563   2.342   4.235  11.678
  575TMC3    C5 8564   2.231   4.181  11.617
  575TMC3    C6 8565   2.137   4.096  11.688
  575TMC3     C 8566   2.490   4.213  11.881
  575TMC3     O 8567   2.513   4.138  11.974
  575TMC3     H 8568   2.304   4.066  11.971
  575TMC3    H1 8569   2.402   4.302  11.618
  575TMC3    H2 8570   2.040   4.073  11.646
  575TMC3    C7 8571   2.205   4.201  11.476
  575TMC3    C8 8572   2.078   3.978  11.885
  575TMC3    O1 8573   2.236   4.301  11.419
  575TMC3    O2 8574   2.087   3.991  12.008
  576MPD2     C 8575   1.947   0.993  12.799
  576MPD2    C1 8576   1.931   1.105  12.725
  576MPD2    C2 8577   1.871   1.208  12.790
  576MPD2    C3 8578   1.819   1.196  12.922
  576MPD2    C4 8579   1.840   1.080  12.990
  576MPD2    C5 8580   1.916   0.985  12.930
  576MPD2     H 8581   1.856   1.304  12.743
  576MPD2    H1 8582   1.803   1.061  13.090
  576MPD2    H2 8583   2.004   0.907  12.765
  576MPD2    H3 8584   1.943   0.893  12.980
  576MPD2     N 8585   1.736   1.298  12.977
  576MPD2    H5 8586   1.725   1.384  12.924
  576MPD2    N1 8587   1.987   1.119  12.590
  576MPD2    H7 8588   1.994   1.209  12.543
  577TMC3    C1 8589   2.116   1.053  12.401
  577TMC3    C2 8590   2.225   0.969  12.373
  577TMC3    C3 8591   2.323   1.008  12.288
  577TMC3    C4 8592   2.107   1.176  12.336
  577TMC3    C5 8593   2.211   1.214  12.244
  577TMC3    C6 8594   2.319   1.131  12.233
  577TMC3     C 8595   2.044   1.015  12.521
  577TMC3     O 8596   2.044   0.897  12.541
  577TMC3     H 8597   2.237   0.871  12.418
  577TMC3    H1 8598   2.023   1.239  12.359
  577TMC3    H2 8599   2.411   1.167  12.188
  577TMC3    C7 8600   2.172   1.254  12.107
  577TMC3    C8 8601   2.372   0.904  12.205
  577TMC3    O1 8602   2.245   1.197  12.028
  577TMC3    O2 8603   2.410   0.800  12.251
  578MPD2     C 8604   4.588   1.180  18.861
  578MPD2    C1 8605   4.630   1.050  18.827
  578MPD2    C2 8606   4.717   0.982  18.908
  578MPD2    C3 8607   4.756   1.045  19.024
  578MPD2    C4 8608   4.711   1.169  19.066
  578MPD2    C5 8609   4.634   1.241  18.972
  578MPD2     H 8610   4.760   0.886  18.884
  578MPD2    H1 8611   4.748   1.222  19.153
  578MPD2    H2 8612   4.526   1.242  18.797
  578MPD2    H3 8613   4.589   1.338  18.988
  578MPD2     N 8614   0.071   0.972  19.100
  578MPD2    H5 8615   0.111   0.887  19.060
  578MPD2    N1 8616   4.568   0.992  18.716
  578MPD2    H7 8617   4.491   1.043  18.673
  579TMC3    C1 8618   0.214   0.918  19.279
  579TMC3    C2 8619   0.311   0.988  19.353
  579TMC3    C3 8620   0.429   0.925  19.387
  579TMC3    C4 8621   0.247   0.798  19.221
  579TMC3    C5 8622   0.364   0.736  19.261
  579TMC3    C6 8623   0.459   0.794  19.352
  579TMC3     C 8624   0.109   1.002  19.223
  579TMC3     O 8625   0.061   1.083  19.300
  579TMC3     H 8626   0.289   1.093  19.370
  579TMC3    H1 8627   0.168   0.737  19.177
  579TMC3    H2 8628   0.553   0.745  19.374
  579TMC3    C7 8629   0.373   0.592  19.255
  579TMC3    C8 8630   0.526   1.007  19.459
  579TMC3    O1 8631   0.434   0.538  19.344
  579TMC3    O2 8632   0.490   1.117  19.498
  580TMC3    C1 8633   4.481   0.407  12.425
  580TMC3    C2 8634   4.608   0.418  12.378
  580TMC3    C3 8635   4.663   0.309  12.312
  580TMC3    C4 8636   4.421   0.277  12.424
  580TMC3    C5 8637   4.486   0.171  12.368
  580TMC3    C6 8638   4.604   0.185  12.306
  580TMC3     C 8639   4.407   0.507  12.347
  580TMC3     O 8640   4.431   0.514  12.229
  580TMC3     H 8641   4.656   0.514  12.360
  580TMC3    H1 8642   4.326   0.261  12.474
  580TMC3    H2 8643   4.666   0.113  12.254
  580TMC3    C7 8644   4.473   0.048  12.448
  580TMC3    C8 8645   4.767   0.332  12.219
  580TMC3    O1 8646   4.407   0.047  12.549
  580TMC3    O2 8647   4.754   0.290  12.105
  581MPD2     C 8648   2.270   4.669  14.808
  581MPD2    C1 8649   2.270   4.661  14.948
  581MPD2    C2 8650   2.152   4.683  15.017
  581MPD2    C3 8651   2.042   4.718  14.941
  581MPD2    C4 8652   2.043   4.721  14.810
  581MPD2    C5 8653   2.159   4.692  14.742
  581MPD2     H 8654   2.146   4.659  15.123
  581MPD2    H1 8655   1.959   4.748  14.747
  581MPD2    H2 8656   2.359   4.648  14.750
  581MPD2    H3 8657   2.157   4.689  14.634
  581MPD2     N 8658   1.928   4.746  15.017
  581MPD2    H5 8659   1.936   4.766  15.117
  581MPD2    N1 8660   2.387   4.614  15.012
  581MPD2    H7 8661   2.458   4.573  14.951
  582TMC3    C1 8662   2.497   4.492  15.170
  582TMC3    C2 8663   2.577   4.506  15.276
  582TMC3    C3 8664   2.625   4.400  15.344
  582TMC3    C4 8665   2.454   4.368  15.139
  582TMC3    C5 8666   2.492   4.260  15.219
  582TMC3    C6 8667   2.590   4.275  15.310
  582TMC3     C 8668   2.408   4.601  15.143
  582TMC3     O 8669   2.347   4.642  15.240
  582TMC3     H 8670   2.599   4.610  15.297
  582TMC3    H1 8671   2.362   4.373  15.082
  582TMC3    H2 8672   2.612   4.190  15.373
  582TMC3    C7 8673   2.373   4.214  15.297
  582TMC3    C8 8674   2.659   4.422  15.487
  582TMC3    O1 8675   2.368   4.100  15.345
  582TMC3    O2 8676   2.599   4.511  15.546
  583MPD2     C 8677   2.447   1.472  17.012
  583MPD2    C1 8678   2.420   1.590  16.946
  583MPD2    C2 8679   2.348   1.690  17.009
  583MPD2    C3 8680   2.321   1.670  17.142
  583MPD2    C4 8681   2.347   1.549  17.204
  583MPD2    C5 8682   2.412   1.453  17.142
  583MPD2     H 8683   2.326   1.786  16.963
  583MPD2    H1 8684   2.317   1.526  17.306
  583MPD2    H2 8685   2.506   1.392  16.969
  583MPD2    H3 8686   2.423   1.353  17.183
  583MPD2     N 8687   2.247   1.772  17.212
  583MPD2    H5 8688   2.219   1.846  17.149
  583MPD2    N1 8689   2.457   1.615  16.813
  583MPD2    H7 8690   2.419   1.699  16.771
  584TMC3    C1 8691   2.172   1.919  17.378
  584TMC3    C2 8692   2.189   2.027  17.297
  584TMC3    C3 8693   2.130   2.147  17.339
  584TMC3    C4 8694   2.115   1.934  17.501
  584TMC3    C5 8695   2.070   2.059  17.541
  584TMC3    C6 8696   2.071   2.165  17.461
  584TMC3     C 8697   2.231   1.791  17.343
  584TMC3     O 8698   2.259   1.710  17.435
  584TMC3     H 8699   2.232   2.018  17.198
  584TMC3    H1 8700   2.109   1.842  17.557
  584TMC3    H2 8701   2.007   2.253  17.466
  584TMC3    C7 8702   2.020   2.073  17.678
  584TMC3    C8 8703   2.138   2.259  17.241
  584TMC3    O1 8704   2.057   1.990  17.758
  584TMC3    O2 8705   2.144   2.227  17.123
  585MPD2     C 8706   1.893   0.487  18.979
  585MPD2    C1 8707   1.975   0.488  18.871
  585MPD2    C2 8708   1.937   0.430  18.754
  585MPD2    C3 8709   1.805   0.375  18.736
  585MPD2    C4 8710   1.728   0.361  18.846
  585MPD2    C5 8711   1.770   0.421  18.962
  585MPD2     H 8712   2.007   0.447  18.673
  585MPD2    H1 8713   1.625   0.328  18.839
  585MPD2    H2 8714   1.914   0.534  19.075
  585MPD2    H3 8715   1.696   0.429  19.041
  585MPD2     N 8716   1.750   0.327  18.611
  585MPD2    H5 8717   1.650   0.334  18.597
  585MPD2    N1 8718   2.084   0.573  18.886
  585MPD2    H7 8719   2.090   0.627  18.972
  586TMC3    C1 8720   1.759   0.342  18.373
  586TMC3    C2 8721   1.831   0.400  18.268
  586TMC3    C3 8722   1.774   0.425  18.152
  586TMC3    C4 8723   1.625   0.301  18.358
  586TMC3    C5 8724   1.571   0.334  18.232
  586TMC3    C6 8725   1.641   0.392  18.133
  586TMC3     C 8726   1.828   0.327  18.499
  586TMC3     O 8727   1.945   0.306  18.493
  586TMC3     H 8728   1.937   0.421  18.279
  586TMC3    H1 8729   1.572   0.244  18.434
  586TMC3    H2 8730   1.595   0.419  18.038
  586TMC3    C7 8731   1.474   0.235  18.193
  586TMC3    C8 8732   1.833   0.344  18.058
  586TMC3    O1 8733   1.373   0.216  18.254
  586TMC3    O2 8734   1.813   0.221  18.077
  587TMC3    C1 8735   3.938   3.993  16.470
  587TMC3    C2 8736   3.918   4.126  16.504
  587TMC3    C3 8737   4.027   4.198  16.528
  587TMC3    C4 8738   4.058   3.935  16.468
  587TMC3    C5 8739   4.169   4.017  16.487
  587TMC3    C6 8740   4.152   4.149  16.522
  587TMC3     C 8741   3.832   3.919  16.409
  587TMC3     O 8742   3.862   3.828  16.332
  587TMC3     H 8743   3.831   4.185  16.477
  587TMC3    H1 8744   4.069   3.831  16.436
  587TMC3    H2 8745   4.240   4.210  16.536
  587TMC3    C7 8746   4.281   3.946  16.542
  587TMC3    C8 8747   4.023   4.339  16.558
  587TMC3    O1 8748   4.265   3.831  16.585
  587TMC3    O2 8749   4.124   4.407  16.526
  588TMC3    C1 8750   1.365   2.126   9.946
  588TMC3    C2 8751   1.298   2.006   9.958
  588TMC3    C3 8752   1.382   1.898   9.998
  588TMC3    C4 8753   1.500   2.142   9.956
  588TMC3    C5 8754   1.579   2.040   9.989
  588TMC3    C6 8755   1.522   1.919  10.017
  588TMC3     C 8756   1.282   2.250   9.940
  588TMC3     O 8757   1.167   2.252   9.897
  588TMC3     H 8758   1.192   1.986   9.945
  588TMC3    H1 8759   1.540   2.241   9.937
  588TMC3    H2 8760   1.584   1.837  10.049
  588TMC3    C7 8761   1.703   2.075  10.056
  588TMC3    C8 8762   1.316   1.775  10.037
  588TMC3    O1 8763   1.725   2.005  10.155
  588TMC3    O2 8764   1.216   1.768   9.971
  589TMC3    C1 8765   0.898   3.780  19.065
  589TMC3    C2 8766   0.948   3.830  19.187
  589TMC3    C3 8767   1.082   3.813  19.207
  589TMC3    C4 8768   0.975   3.712  18.973
  589TMC3    C5 8769   1.112   3.701  19.006
  589TMC3    C6 8770   1.169   3.755  19.117
  589TMC3     C 8771   0.754   3.794  19.025
  589TMC3     O 8772   0.714   3.714  18.939
  589TMC3     H 8773   0.887   3.870  19.267
  589TMC3    H1 8774   0.926   3.671  18.885
  589TMC3    H2 8775   1.268   3.724  19.148
  589TMC3    C7 8776   1.150   3.559  18.993
  589TMC3    C8 8777   1.133   3.864  19.333
  589TMC3    O1 8778   1.165   3.492  19.093
  589TMC3    O2 8779   1.066   3.862  19.436
  590MPD2     C 8780   4.510   2.115  16.621
  590MPD2    C1 8781   4.518   2.180  16.503
  590MPD2    C2 8782   4.642   2.234  16.471
  590MPD2    C3 8783   4.750   2.224  16.556
  590MPD2    C4 8784   4.747   2.145  16.665
  590MPD2    C5 8785   4.624   2.085  16.691
  590MPD2     H 8786   4.644   2.309  16.393
  590MPD2    H1 8787   0.054   2.131  16.727
  590MPD2    H2 8788   4.423   2.064  16.660
  590MPD2    H3 8789   4.611   2.025  16.781
  590MPD2     N 8790   0.075   2.303  16.518
  590MPD2    H5 8791   0.055   2.361  16.437
  590MPD2    N1 8792   4.403   2.196  16.434
  590MPD2    H7 8793   4.320   2.147  16.467
  591TMC3    C1 8794   0.281   2.400  16.510
  591TMC3    C2 8795   0.379   2.364  16.413
  591TMC3    C3 8796   0.431   2.463  16.334
  591TMC3    C4 8797   0.242   2.531  16.519
  591TMC3    C5 8798   0.287   2.621  16.430
  591TMC3    C6 8799   0.388   2.589  16.337
  591TMC3     C 8800   0.200   2.302  16.570
  591TMC3     O 8801   0.252   2.217  16.645
  591TMC3     H 8802   0.409   2.261  16.401
  591TMC3    H1 8803   0.157   2.553  16.583
  591TMC3    H2 8804   0.422   2.664  16.267
  591TMC3    C7 8805   0.238   2.755  16.434
  591TMC3    C8 8806   0.544   2.428  16.239
  591TMC3    O1 8807   0.124   2.756  16.474
  591TMC3    O2 8808   0.566   2.306  16.226
  592MPD2     C 8809   0.609   4.582  11.882
  592MPD2    C1 8810   0.620   4.614  12.015
  592MPD2    C2 8811   0.530   4.560  12.101
  592MPD2    C3 8812   0.449   4.457  12.064
  592MPD2    C4 8813   0.448   4.424  11.934
  592MPD2    C5 8814   0.528   4.483  11.838
  592MPD2     H 8815   0.529   4.581  12.207
  592MPD2    H1 8816   0.370   4.355  11.902
  592MPD2    H2 8817   0.682   4.628  11.817
  592MPD2    H3 8818   0.524   4.453  11.734
  592MPD2     N 8819   0.375   4.392  12.163
  592MPD2    H5 8820   0.380   4.446  12.249
  592MPD2    N1 8821   0.719   4.718  12.042
  592MPD2    H7 8822   0.765   4.757  11.960
  593TMC3    C1 8823   0.846   0.090  12.180
  593TMC3    C2 8824   0.818   0.169  12.286
  593TMC3    C3 8825   0.889   0.281  12.297
  593TMC3    C4 8826   0.925   0.132  12.073
  593TMC3    C5 8827   0.993   0.250  12.091
  593TMC3    C6 8828   0.985   0.326  12.210
  593TMC3     C 8829   0.752   4.753  12.170
  593TMC3     O 8830   0.721   4.706  12.279
  593TMC3     H 8831   0.749   0.146  12.367
  593TMC3    H1 8832   0.953   0.065  11.993
  593TMC3    H2 8833   1.019   0.429  12.210
  593TMC3    C7 8834   1.044   0.334  11.976
  593TMC3    C8 8835   0.847   0.372  12.405
  593TMC3    O1 8836   1.121   0.422  12.004
  593TMC3    O2 8837   0.730   0.370  12.436
  594MPD2     C 8838   3.892   3.272  14.430
  594MPD2    C1 8839   3.920   3.253  14.560
  594MPD2    C2 8840   4.001   3.352  14.620
  594MPD2    C3 8841   4.068   3.453  14.548
  594MPD2    C4 8842   4.055   3.442  14.413
  594MPD2    C5 8843   3.964   3.364  14.355
  594MPD2     H 8844   4.023   3.358  14.726
  594MPD2    H1 8845   4.103   3.511  14.344
  594MPD2    H2 8846   3.824   3.205  14.379
  594MPD2    H3 8847   3.948   3.385  14.250
  594MPD2     N 8848   4.140   3.558  14.604
  594MPD2    H5 8849   4.129   3.581  14.702
  594MPD2    N1 8850   3.839   3.155  14.623
  594MPD2    H7 8851   3.775   3.112  14.557
  595TMC3    C1 8852   4.441   3.905  14.674
  595TMC3    C2 8853   4.381   3.822  14.582
  595TMC3    C3 8854   4.254   3.767  14.611
  595TMC3    C4 8855   4.385   3.927  14.796
  595TMC3    C5 8856   4.260   3.877  14.815
  595TMC3    C6 8857   4.194   3.795  14.726
  595TMC3     C 8858   4.583   3.908  14.684
  595TMC3     O 8859   4.639   3.913  14.794
  595TMC3     H 8860   4.436   3.790  14.494
  595TMC3    H1 8861   4.421   4.011  14.854
  595TMC3    H2 8862   4.096   3.760  14.756
  595TMC3    C7 8863   4.193   3.916  14.938
  595TMC3    C8 8864   4.226   3.645  14.536
  595TMC3    O1 8865   4.078   3.953  14.935
  595TMC3    O2 8866   4.303   3.615  14.443
  596MPD2     C 8867   3.132   1.504  17.235
  596MPD2    C1 8868   3.124   1.600  17.137
  596MPD2    C2 8869   3.170   1.576  17.010
  596MPD2    C3 8870   3.225   1.455  16.975
  596MPD2    C4 8871   3.229   1.353  17.071
  596MPD2    C5 8872   3.191   1.383  17.200
  596MPD2     H 8873   3.167   1.660  16.942
  596MPD2    H1 8874   3.267   1.254  17.051
  596MPD2    H2 8875   3.098   1.516  17.337
  596MPD2    H3 8876   3.206   1.318  17.286
  596MPD2     N 8877   3.274   1.425  16.852
  596MPD2    H5 8878   3.287   1.327  16.829
  596MPD2    N1 8879   3.077   1.730  17.151
  596MPD2    H7 8880   3.087   1.783  17.065
  597TMC3    C1 8881   2.956   1.912  17.231
  597TMC3    C2 8882   3.012   1.993  17.136
  597TMC3    C3 8883   2.954   2.116  17.117
  597TMC3    C4 8884   2.863   1.960  17.320
  597TMC3    C5 8885   2.807   2.083  17.306
  597TMC3    C6 8886   2.853   2.161  17.201
  597TMC3     C 8887   3.013   1.785  17.263
  597TMC3     O 8888   2.982   1.730  17.367
  597TMC3     H 8889   3.094   1.958  17.074
  597TMC3    H1 8890   2.834   1.905  17.409
  597TMC3    H2 8891   2.812   2.259  17.180
  597TMC3    C7 8892   2.683   2.128  17.371
  597TMC3    C8 8893   3.036   2.225  17.046
  597TMC3    O1 8894   2.619   2.038  17.426
  597TMC3    O2 8895   2.981   2.331  17.023
  598TMC3    C1 8896   1.411   2.907  15.407
  598TMC3    C2 8897   1.294   2.831  15.415
  598TMC3    C3 8898   1.193   2.861  15.330
  598TMC3    C4 8899   1.426   3.018  15.327
  598TMC3    C5 8900   1.326   3.034  15.238
  598TMC3    C6 8901   1.207   2.957  15.240
  598TMC3     C 8902   1.517   2.859  15.492
  598TMC3     O 8903   1.484   2.783  15.582
  598TMC3     H 8904   1.289   2.733  15.462
  598TMC3    H1 8905   1.519   3.075  15.327
  598TMC3    H2 8906   1.131   2.974  15.164
  598TMC3    C7 8907   1.328   3.129  15.129
  598TMC3    C8 8908   1.063   2.787  15.334
  598TMC3    O1 8909   1.292   3.091  15.018
  598TMC3    O2 8910   0.997   2.803  15.232
  599MPD2     C 8911   1.753   0.636  16.269
  599MPD2    C1 8912   1.693   0.509  16.264
  599MPD2    C2 8913   1.576   0.486  16.326
  599MPD2    C3 8914   1.517   0.583  16.397
  599MPD2    C4 8915   1.571   0.706  16.400
  599MPD2    C5 8916   1.691   0.736  16.342
  599MPD2     H 8917   1.528   0.390  16.322
  599MPD2    H1 8918   1.521   0.785  16.456
  599MPD2    H2 8919   1.850   0.654  16.225
  599MPD2    H3 8920   1.735   0.835  16.347
  599MPD2     N 8921   1.396   0.568  16.469
  599MPD2    H5 8922   1.366   0.646  16.527
  599MPD2    N1 8923   1.769   0.414  16.192
  599MPD2    H7 8924   1.857   0.443  16.151
  600TMC3    C1 8925   1.203   0.465  16.563
  600TMC3    C2 8926   1.136   0.350  16.595
  600TMC3    C3 8927   1.015   0.370  16.662
  600TMC3    C4 8928   1.152   0.596  16.583
  600TMC3    C5 8929   1.035   0.600  16.651
  600TMC3    C6 8930   0.962   0.494  16.683
  600TMC3     C 8931   1.321   0.451  16.482
  600TMC3     O 8932   1.342   0.342  16.431
  600TMC3     H 8933   1.169   0.250  16.571
  600TMC3    H1 8934   1.210   0.684  16.558
  600TMC3    H2 8935   0.864   0.513  16.726
  600TMC3    C7 8936   1.006   0.726  16.717
  600TMC3    C8 8937   0.931   0.255  16.668
  600TMC3    O1 8938   0.888   0.752  16.738
  600TMC3    O2 8939   0.994   0.151  16.666
  601MPD2     C 8940   3.340   3.930  18.253
  601MPD2    C1 8941   3.257   3.877  18.161
  601MPD2    C2 8942   3.283   3.755  18.107
  601MPD2    C3 8943   3.402   3.688  18.127
  601MPD2    C4 8944   3.483   3.741  18.228
  601MPD2    C5 8945   3.458   3.867  18.286
  601MPD2     H 8946   3.213   3.712  18.036
  601MPD2    H1 8947   3.563   3.678  18.266
  601MPD2    H2 8948   3.327   4.023  18.308
  601MPD2    H3 8949   3.513   3.909  18.369
  601MPD2     N 8950   3.425   3.560  18.081
  601MPD2    H5 8951   3.517   3.521  18.100
  601MPD2    N1 8952   3.144   3.945  18.120
  601MPD2    H7 8953   3.085   3.894  18.056
  602TMC3    C1 8954   2.982   4.112  18.092
  602TMC3    C2 8955   2.959   4.246  18.082
  602TMC3    C3 8956   2.850   4.288  18.020
  602TMC3    C4 8957   2.898   4.025  18.017
  602TMC3    C5 8958   2.788   4.075  17.946
  602TMC3    C6 8959   2.763   4.213  17.955
  602TMC3     C 8960   3.111   4.074  18.144
  602TMC3     O 8961   3.179   4.160  18.194
  602TMC3     H 8962   3.031   4.319  18.116
  602TMC3    H1 8963   2.919   3.919  18.011
  602TMC3    H2 8964   2.669   4.250  17.915
  602TMC3    C7 8965   2.721   3.986  17.860
  602TMC3    C8 8966   2.847   4.433  17.996
  602TMC3    O1 8967   2.715   3.871  17.888
  602TMC3    O2 8968   2.875   4.506  18.093
  603TMC3    C1 8969   1.734   3.959  11.441
  603TMC3    C2 8970   1.745   3.949  11.578
  603TMC3    C3 8971   1.769   4.062  11.654
  603TMC3    C4 8972   1.727   4.081  11.379
  603TMC3    C5 8973   1.760   4.184  11.456
  603TMC3    C6 8974   1.775   4.176  11.588
  603TMC3     C 8975   1.725   3.839  11.359
  603TMC3     O 8976   1.649   3.843  11.262
  603TMC3     H 8977   1.726   3.858  11.633
  603TMC3    H1 8978   1.714   4.086  11.271
  603TMC3    H2 8979   1.771   4.268  11.645
  603TMC3    C7 8980   1.779   4.314  11.399
  603TMC3    C8 8981   1.708   4.064  11.786
  603TMC3    O1 8982   1.858   4.390  11.449
  603TMC3    O2 8983   1.607   3.990  11.800
  604MPD2     C 8984   2.391   2.718  16.534
  604MPD2    C1 8985   2.288   2.645  16.476
  604MPD2    C2 8986   2.313   2.587  16.355
  604MPD2    C3 8987   2.438   2.599  16.292
  604MPD2    C4 8988   2.532   2.677  16.351
  604MPD2    C5 8989   2.512   2.732  16.475
  604MPD2     H 8990   2.236   2.517  16.321
  604MPD2    H1 8991   2.624   2.706  16.301
  604MPD2    H2 8992   2.362   2.783  16.616
  604MPD2    H3 8993   2.590   2.797  16.514
  604MPD2     N 8994   2.460   2.526  16.169
  604MPD2    H5 8995   2.398   2.448  16.148
  604MPD2    N1 8996   2.169   2.636  16.550
  604MPD2    H7 8997   2.168   2.680  16.642
  605TMC3    C1 8998   1.952   2.571  16.617
  605TMC3    C2 8999   2.008   2.608  16.735
  605TMC3    C3 9000   1.975   2.721  16.801
  605TMC3    C4 9001   1.852   2.660  16.571
  605TMC3    C5 9002   1.812   2.775  16.634
  605TMC3    C6 9003   1.870   2.801  16.755
  605TMC3     C 9004   2.055   2.567  16.514
  605TMC3     O 9005   2.030   2.512  16.410
  605TMC3     H 9006   2.077   2.537  16.777
  605TMC3    H1 9007   1.814   2.639  16.471
  605TMC3    H2 9008   1.850   2.899  16.797
  605TMC3    C7 9009   1.706   2.865  16.585
  605TMC3    C8 9010   2.092   2.793  16.847
  605TMC3    O1 9011   1.653   2.935  16.671
  605TMC3    O2 9012   2.190   2.743  16.802
  606TMC3    C1 9013   3.084   1.763  17.720
  606TMC3    C2 9014   3.068   1.761  17.854
  606TMC3    C3 9015   3.080   1.645  17.923
  606TMC3    C4 9016   3.109   1.649  17.656
  606TMC3    C5 9017   3.124   1.536  17.723
  606TMC3    C6 9018   3.108   1.524  17.857
  606TMC3     C 9019   3.094   1.894  17.656
  606TMC3     O 9020   3.045   1.988  17.718
  606TMC3     H 9021   3.051   1.854  17.907
  606TMC3    H1 9022   3.127   1.646  17.550
  606TMC3    H2 9023   3.119   1.430  17.909
  606TMC3    C7 9024   3.170   1.415  17.654
  606TMC3    C8 9025   3.155   1.654  18.047
  606TMC3    O1 9026   3.236   1.435  17.553
  606TMC3    O2 9027   3.202   1.763  18.082
  607MPD2     C 9028   0.813   4.299  12.165
  607MPD2    C1 9029   0.876   4.348  12.275
  607MPD2    C2 9030   0.820   4.329  12.399
  607MPD2    C3 9031   0.707   4.260  12.415
  607MPD2    C4 9032   0.643   4.207  12.297
  607MPD2    C5 9033   0.691   4.239  12.182
  607MPD2     H 9034   0.876   4.357  12.487
  607MPD2    H1 9035   0.556   4.143  12.286
  607MPD2    H2 9036   0.846   4.311  12.063
  607MPD2    H3 9037   0.645   4.204  12.090
  607MPD2     N 9038   0.653   4.234  12.541
  607MPD2    H5 9039   0.700   4.269  12.623
  607MPD2    N1 9040   0.999   4.414  12.265
  607MPD2    H7 9041   1.046   4.431  12.353
  608TMC3    C1 9042   1.180   4.533  12.184
  608TMC3    C2 9043   1.194   4.574  12.313
  608TMC3    C3 9044   1.232   4.704  12.337
  608TMC3    C4 9045   1.217   4.603  12.075
  608TMC3    C5 9046   1.268   4.730  12.096
  608TMC3    C6 9047   1.265   4.778  12.220
  608TMC3     C 9048   1.070   4.443  12.152
  608TMC3     O 9049   1.045   4.424  12.032
  608TMC3     H 9050   1.204   4.501  12.393
  608TMC3    H1 9051   1.216   4.571  11.971
  608TMC3    H2 9052   1.296   0.100  12.233
  608TMC3    C7 9053   1.308   0.033  11.982
  608TMC3    C8 9054   1.155   4.772  12.438
  608TMC3    O1 9055   1.270   4.772  11.873
  608TMC3    O2 9056   1.133   0.108  12.413
  609TMC3    C1 9057   4.208   3.652   9.442
  609TMC3    C2 9058   4.132   3.605   9.339
  609TMC3    C3 9059   4.193   3.556   9.227
  609TMC3    C4 9060   4.346   3.648   9.437
  609TMC3    C5 9061   4.402   3.596   9.326
  609TMC3    C6 9062   4.330   3.540   9.220
  609TMC3     C 9063   4.138   3.687   9.558
  609TMC3     O 9064   4.030   3.634   9.581
  609TMC3     H 9065   4.025   3.621   9.350
  609TMC3    H1 9066   4.405   3.692   9.516
  609TMC3    H2 9067   4.366   3.473   9.142
  609TMC3    C7 9068   4.538   3.540   9.346
  609TMC3    C8 9069   4.116   3.520   9.103
  609TMC3    O1 9070   4.604   3.562   9.449
  609TMC3    O2 9071   4.177   3.476   9.010
  610TMC3    C1 9072   1.096   4.304  13.029
  610TMC3    C2 9073   1.131   4.356  12.906
  610TMC3    C3 9074   1.196   4.275  12.822
  610TMC3    C4 9075   1.136   4.182  13.071
  610TMC3    C5 9076   1.211   4.103  12.983
  610TMC3    C6 9077   1.235   4.154  12.861
  610TMC3     C 9078   1.022   4.391  13.121
  610TMC3     O 9079   1.027   4.353  13.236
  610TMC3     H 9080   1.093   4.447  12.862
  610TMC3    H1 9081   1.124   4.150  13.174
  610TMC3    H2 9082   1.291   4.080  12.804
  610TMC3    C7 9083   1.302   4.012  13.038
  610TMC3    C8 9084   1.218   4.313  12.686
  610TMC3    O1 9085   1.417   4.026  12.999
  610TMC3    O2 9086   1.225   4.431  12.654
  611MPD2     C 9087   0.669   4.367  11.393
  611MPD2    C1 9088   0.649   4.345  11.259
  611MPD2    C2 9089   0.730   4.402  11.159
  611MPD2    C3 9090   0.845   4.467  11.205
  611MPD2    C4 9091   0.866   4.492  11.343
  611MPD2    C5 9092   0.775   4.438  11.431
  611MPD2     H 9093   0.703   4.392  11.054
  611MPD2    H1 9094   0.952   4.551  11.371
  611MPD2    H2 9095   0.600   4.332  11.469
  611MPD2    H3 9096   0.794   4.442  11.538
  611MPD2     N 9097   0.938   4.527  11.114
  611MPD2    H5 9098   1.023   4.566  11.154
  611MPD2    N1 9099   0.530   4.261  11.235
  611MPD2    H7 9100   0.466   4.247  11.312
  612TMC3    C1 9101   1.031   4.616  10.899
  612TMC3    C2 9102   1.153   4.644  10.960
  612TMC3    C3 9103   1.238   4.714  10.886
  612TMC3    C4 9104   0.996   4.655  10.779
  612TMC3    C5 9105   1.080   4.738  10.714
  612TMC3    C6 9106   1.204   4.766  10.767
  612TMC3     C 9107   0.934   4.533  10.973
  612TMC3     O 9108   0.848   4.480  10.905
  612TMC3     H 9109   1.181   4.608  11.058
  612TMC3    H1 9110   0.900   4.634  10.732
  612TMC3    H2 9111   1.278   0.047  10.719
  612TMC3    C7 9112   1.059   4.750  10.571
  612TMC3    C8 9113   1.378   4.715  10.930
  612TMC3    O1 9114   1.010   4.661  10.507
  612TMC3    O2 9115   1.447   0.019  10.880
  613MPD2     C 9116   0.051   1.654  16.718
  613MPD2    C1 9117   4.697   1.664  16.670
  613MPD2    C2 9118   4.596   1.589  16.733
  613MPD2    C3 9119   4.623   1.495  16.832
  613MPD2    C4 9120   4.759   1.477  16.866
  613MPD2    C5 9121   0.078   1.545  16.798
  613MPD2     H 9122   4.494   1.591  16.695
  613MPD2    H1 9123   0.004   1.395  16.933
  613MPD2    H2 9124   0.117   1.729  16.676
  613MPD2    H3 9125   0.182   1.542  16.826
  613MPD2     N 9126   4.528   1.401  16.867
  613MPD2    H5 9127   4.549   1.308  16.900
  613MPD2    N1 9128   4.677   1.754  16.569
  613MPD2    H7 9129   4.762   1.796  16.533
  614TMC3    C1 9130   4.557   1.837  16.385
  614TMC3    C2 9131   4.636   1.765  16.302
  614TMC3    C3 9132   4.593   1.740  16.174
  614TMC3    C4 9133   4.434   1.886  16.337
  614TMC3    C5 9134   4.404   1.868  16.204
  614TMC3    C6 9135   4.483   1.797  16.121
  614TMC3     C 9136   4.557   1.798  16.523
  614TMC3     O 9137   4.448   1.794  16.575
  614TMC3     H 9138   4.728   1.722  16.339
  614TMC3    H1 9139   4.362   1.943  16.395
  614TMC3    H2 9140   4.471   1.785  16.014
  614TMC3    C7 9141   4.277   1.936  16.153
  614TMC3    C8 9142   4.600   1.594  16.153
  614TMC3    O1 9143   4.206   1.997  16.233
  614TMC3    O2 9144   4.657   1.532  16.240
  615MPD2     C 9145   4.117   2.974  15.784
  615MPD2    C1 9146   4.006   3.025  15.857
  615MPD2    C2 9147   3.872   3.015  15.801
  615MPD2    C3 9148   3.862   2.982  15.663
  615MPD2    C4 9149   3.970   2.941  15.592
  615MPD2    C5 9150   4.092   2.928  15.654
  615MPD2     H 9151   3.790   3.042  15.867
  615MPD2    H1 9152   3.951   2.908  15.490
  615MPD2    H2 9153   4.215   2.970  15.831
  615MPD2    H3 9154   4.167   2.879  15.593
  615MPD2     N 9155   3.737   2.976  15.596
  615MPD2    H5 9156   3.741   2.965  15.495
  615MPD2    N1 9157   4.016   3.080  15.989
  615MPD2    H7 9158   3.927   3.114  16.025
  616TMC3    C1 9159   4.089   3.127  16.195
  616TMC3    C2 9160   4.195   3.188  16.255
  616TMC3    C3 9161   4.173   3.269  16.368
  616TMC3    C4 9162   3.957   3.137  16.236
  616TMC3    C5 9163   3.936   3.226  16.337
  616TMC3    C6 9164   4.041   3.284  16.398
  616TMC3     C 9165   4.123   3.075  16.072
  616TMC3     O 9166   4.237   3.040  16.051
  616TMC3     H 9167   4.298   3.182  16.222
  616TMC3    H1 9168   3.879   3.071  16.199
  616TMC3    H2 9169   4.033   3.358  16.478
  616TMC3    C7 9170   3.811   3.226  16.423
  616TMC3    C8 9171   4.238   3.395  16.349
  616TMC3    O1 9172   3.814   3.269  16.540
  616TMC3    O2 9173   4.169   3.492  16.327
  617MPD2     C 9174   1.978   1.124  13.969
  617MPD2    C1 9175   2.004   1.142  14.101
  617MPD2    C2 9176   1.905   1.139  14.192
  617MPD2    C3 9177   1.769   1.142  14.152
  617MPD2    C4 9178   1.746   1.138  14.009
  617MPD2    C5 9179   1.853   1.130  13.926
  617MPD2     H 9180   1.929   1.139  14.297
  617MPD2    H1 9181   1.645   1.134  13.971
  617MPD2    H2 9182   2.062   1.111  13.902
  617MPD2    H3 9183   1.832   1.111  13.821
  617MPD2     N 9184   1.652   1.145  14.236
  617MPD2    H5 9185   1.568   1.174  14.187
  617MPD2    N1 9186   2.139   1.147  14.134
  617MPD2    H7 9187   2.201   1.124  14.057
  618TMC3    C1 9188   2.327   1.178  14.257
  618TMC3    C2 9189   2.372   1.054  14.240
  618TMC3    C3 9190   2.500   1.027  14.291
  618TMC3    C4 9191   2.394   1.281  14.325
  618TMC3    C5 9192   2.520   1.245  14.370
  618TMC3    C6 9193   2.572   1.119  14.365
  618TMC3     C 9194   2.185   1.193  14.256
  618TMC3     O 9195   2.129   1.270  14.331
  618TMC3     H 9196   2.316   0.977  14.189
  618TMC3    H1 9197   2.352   1.380  14.337
  618TMC3    H2 9198   2.664   1.088  14.413
  618TMC3    C7 9199   2.604   1.360  14.423
  618TMC3    C8 9200   2.571   0.904  14.264
  618TMC3    O1 9201   2.538   1.442  14.486
  618TMC3    O2 9202   2.490   0.822  14.222
  619MPD2     C 9203   3.499   2.418  14.094
  619MPD2    C1 9204   3.439   2.517  14.021
  619MPD2    C2 9205   3.311   2.493  13.975
  619MPD2    C3 9206   3.245   2.373  13.985
  619MPD2    C4 9207   3.297   2.280  14.069
  619MPD2    C5 9208   3.423   2.305  14.127
  619MPD2     H 9209   3.265   2.560  13.903
  619MPD2    H1 9210   3.256   2.181  14.087
  619MPD2    H2 9211   3.595   2.436  14.140
  619MPD2    H3 9212   3.465   2.222  14.183
  619MPD2     N 9213   3.123   2.337  13.917
  619MPD2    H5 9214   3.075   2.251  13.944
  619MPD2    N1 9215   3.498   2.642  13.992
  619MPD2    H7 9216   3.449   2.702  13.927
  620TMC3    C1 9217   3.656   2.807  13.951
  620TMC3    C2 9218   3.587   2.844  13.844
  620TMC3    C3 9219   3.564   2.979  13.824
  620TMC3    C4 9220   3.722   2.886  14.030
  620TMC3    C5 9221   3.700   3.021  14.019
  620TMC3    C6 9222   3.622   3.074  13.913
  620TMC3     C 9223   3.637   2.671  13.991
  620TMC3     O 9224   3.726   2.598  14.040
  620TMC3     H 9225   3.539   2.769  13.783
  620TMC3    H1 9226   3.777   2.842  14.112
  620TMC3    H2 9227   3.612   3.178  13.885
  620TMC3    C7 9228   3.786   3.099  14.113
  620TMC3    C8 9229   3.437   3.016  13.770
  620TMC3    O1 9230   3.866   3.033  14.175
  620TMC3    O2 9231   3.383   3.093  13.843
  621MPD2     C 9232   3.883   2.476  10.594
  621MPD2    C1 9233   3.828   2.475  10.468
  621MPD2    C2 9234   3.842   2.588  10.389
  621MPD2    C3 9235   3.891   2.706  10.438
  621MPD2    C4 9236   3.945   2.703  10.559
  621MPD2    C5 9237   3.956   2.586  10.630
  621MPD2     H 9238   3.789   2.591  10.295
  621MPD2    H1 9239   4.007   2.782  10.601
  621MPD2    H2 9240   3.887   2.397  10.668
  621MPD2    H3 9241   4.017   2.585  10.719
  621MPD2     N 9242   3.898   2.815  10.354
  621MPD2    H5 9243   3.823   2.830  10.287
  621MPD2    N1 9244   3.762   2.368  10.412
  621MPD2    H7 9245   3.761   2.371  10.311
  622TMC3    C1 9246   3.628   2.168  10.409
  622TMC3    C2 9247   3.513   2.125  10.469
  622TMC3    C3 9248   3.434   2.040  10.404
  622TMC3    C4 9249   3.646   2.150  10.271
  622TMC3    C5 9250   3.553   2.081  10.203
  622TMC3    C6 9251   3.456   2.013  10.268
  622TMC3     C 9252   3.710   2.259  10.487
  622TMC3     O 9253   3.703   2.246  10.608
  622TMC3     H 9254   3.509   2.136  10.577
  622TMC3    H1 9255   3.722   2.203  10.215
  622TMC3    H2 9256   3.396   1.942  10.212
  622TMC3    C7 9257   3.552   2.065  10.060
  622TMC3    C8 9258   3.292   2.052  10.420
  622TMC3    O1 9259   3.507   1.956  10.020
  622TMC3    O2 9260   3.216   1.983  10.353
  623MPD2     C 9261   2.393   2.785  15.774
  623MPD2    C1 9262   2.307   2.789  15.884
  623MPD2    C2 9263   2.356   2.822  16.003
  623MPD2    C3 9264   2.482   2.864  16.010
  623MPD2    C4 9265   2.572   2.851  15.912
  623MPD2    C5 9266   2.525   2.803  15.792
  623MPD2     H 9267   2.297   2.836  16.093
  623MPD2    H1 9268   2.679   2.867  15.922
  623MPD2    H2 9269   2.369   2.738  15.679
  623MPD2    H3 9270   2.600   2.777  15.719
  623MPD2     N 9271   2.523   2.909  16.139
  623MPD2    H5 9272   2.440   2.935  16.191
  623MPD2    N1 9273   2.169   2.764  15.862
  623MPD2    H7 9274   2.130   2.775  15.768
  624TMC3    C1 9275   2.772   3.022  16.508
  624TMC3    C2 9276   2.660   3.065  16.579
  624TMC3    C3 9277   2.546   3.086  16.505
  624TMC3    C4 9278   2.770   2.998  16.372
  624TMC3    C5 9279   2.649   3.011  16.313
  624TMC3    C6 9280   2.530   3.061  16.372
  624TMC3     C 9281   2.893   2.994  16.582
  624TMC3     O 9282   2.997   3.047  16.535
  624TMC3     H 9283   2.654   3.081  16.686
  624TMC3    H1 9284   2.862   2.960  16.327
  624TMC3    H2 9285   2.436   3.063  16.319
  624TMC3    C7 9286   2.646   2.961  16.176
  624TMC3    C8 9287   2.424   3.086  16.574
  624TMC3    O1 9288   2.744   2.984  16.103
  624TMC3    O2 9289   2.340   3.013  16.527
  625MPD2     C 9290   3.366   4.257  18.930
  625MPD2    C1 9291   3.435   4.378  18.938
  625MPD2    C2 9292   3.563   4.385  18.979
  625MPD2    C3 9293   3.638   4.272  19.018
  625MPD2    C4 9294   3.567   4.153  19.012
  625MPD2    C5 9295   3.432   4.144  18.971
  625MPD2     H 9296   3.618   4.478  18.993
  625MPD2    H1 9297   3.608   4.061  19.049
  625MPD2    H2 9298   3.261   4.250  18.901
  625MPD2    H3 9299   3.376   4.051  18.976
  625MPD2     N 9300   3.774   4.296  19.059
  625MPD2    H5 9301   3.801   4.394  19.060
  625MPD2    N1 9302   3.383   4.503  18.905
  625MPD2    H7 9303   3.442   4.585  18.917
  626TMC3    C1 9304   3.234   4.661  18.835
  626TMC3    C2 9305   3.133   4.695  18.748
  626TMC3    C3 9306   3.083   0.038  18.761
  626TMC3    C4 9307   3.303   4.752  18.905
  626TMC3    C5 9308   3.251   0.096  18.913
  626TMC3    C6 9309   3.142   0.131  18.840
  626TMC3     C 9310   3.254   4.523  18.865
  626TMC3     O 9311   3.164   4.441  18.834
  626TMC3     H 9312   3.083   4.620  18.688
  626TMC3    H1 9313   3.384   4.725  18.972
  626TMC3    H2 9314   3.104   0.232  18.847
  626TMC3    C7 9315   3.312   0.176  19.013
  626TMC3    C8 9316   2.983   0.087  18.681
  626TMC3    O1 9317   3.431   0.168  19.037
  626TMC3    O2 9318   3.005   0.199  18.638
  627MPD2     C 9319   1.236   4.768  14.677
  627MPD2    C1 9320   1.256   4.698  14.791
  627MPD2    C2 9321   1.214   4.569  14.802
  627MPD2    C3 9322   1.114   4.517  14.713
  627MPD2    C4 9323   1.100   4.590  14.602
  627MPD2    C5 9324   1.166   4.705  14.581
  627MPD2     H 9325   1.215   4.531  14.904
  627MPD2    H1 9326   1.028   4.569  14.523
  627MPD2    H2 9327   1.267   0.088  14.652
  627MPD2    H3 9328   1.144   4.753  14.486
  627MPD2     N 9329   1.047   4.409  14.755
  627MPD2    H5 9330   1.041   4.402  14.856
  627MPD2    N1 9331   1.334   4.748  14.898
  627MPD2    H7 9332   1.360   4.687  14.976
  628TMC3    C1 9333   1.498   0.104  15.010
  628TMC3    C2 9334   1.588   4.779  15.028
  628TMC3    C3 9335   1.715   0.025  15.076
  628TMC3    C4 9336   1.540   0.232  15.032
  628TMC3    C5 9337   1.670   0.257  15.075
  628TMC3    C6 9338   1.749   0.147  15.115
  628TMC3     C 9339   1.398   0.085  14.908
  628TMC3     O 9340   1.387   0.178  14.825
  628TMC3     H 9341   1.568   4.685  14.978
  628TMC3    H1 9342   1.474   0.314  15.010
  628TMC3    H2 9343   1.850   0.182  15.135
  628TMC3    C7 9344   1.748   0.378  15.051
  628TMC3    C8 9345   1.804   4.760  14.968
  628TMC3    O1 9346   1.853   0.387  15.111
  628TMC3    O2 9347   1.754   4.728  14.860
  629MPD2     C 9348   4.653   3.702  16.432
  629MPD2    C1 9349   4.686   3.570  16.454
  629MPD2    C2 9350   4.590   3.472  16.435
  629MPD2    C3 9351   4.452   3.495  16.411
  629MPD2    C4 9352   4.420   3.626  16.390
  629MPD2    C5 9353   4.521   3.719  16.399
  629MPD2     H 9354   4.629   3.370  16.432
  629MPD2    H1 9355   4.320   3.654  16.361
  629MPD2    H2 9356   4.726   3.781  16.438
  629MPD2    H3 9357   4.500   3.824  16.379
  629MPD2     N 9358   4.368   3.384  16.387
  629MPD2    H5 9359   4.399   3.293  16.419
  629MPD2    N1 9360   0.040   3.550  16.490
  629MPD2    H7 9361   0.096   3.635  16.490
  630TMC3    C1 9362   0.244   3.435  16.538
  630TMC3    C2 9363   0.312   3.544  16.483
  630TMC3    C3 9364   0.427   3.588  16.543
  630TMC3    C4 9365   0.291   3.376  16.654
  630TMC3    C5 9366   0.394   3.429  16.712
  630TMC3    C6 9367   0.467   3.538  16.666
  630TMC3     C 9368   0.104   3.428  16.523
  630TMC3     O 9369   0.050   3.325  16.547
  630TMC3     H 9370   0.276   3.600  16.397
  630TMC3    H1 9371   0.224   3.311  16.709
  630TMC3    H2 9372   0.570   3.555  16.696
  630TMC3    C7 9373   0.446   3.368  16.838
  630TMC3    C8 9374   0.506   3.701  16.501
  630TMC3    O1 9375   0.403   3.257  16.869
  630TMC3    O2 9376   0.593   3.741  16.580
  631MPD2     C 9377   2.725   3.255  15.704
  631MPD2    C1 9378   2.802   3.338  15.629
  631MPD2    C2 9379   2.913   3.284  15.561
  631MPD2    C3 9380   2.958   3.152  15.591
  631MPD2    C4 9381   2.872   3.072  15.661
  631MPD2    C5 9382   2.759   3.124  15.715
  631MPD2     H 9383   2.960   3.337  15.480
  631MPD2    H1 9384   2.877   2.965  15.681
  631MPD2    H2 9385   2.628   3.283  15.743
  631MPD2    H3 9386   2.686   3.061  15.765
  631MPD2     N 9387   3.085   3.112  15.548
  631MPD2    H5 9388   3.119   3.166  15.470
  631MPD2    N1 9389   2.761   3.472  15.616
  631MPD2    H7 9390   2.693   3.510  15.682
  632TMC3    C1 9391   2.760   3.696  15.563
  632TMC3    C2 9392   2.622   3.711  15.551
  632TMC3    C3 9393   2.576   3.842  15.539
  632TMC3    C4 9394   2.851   3.799  15.547
  632TMC3    C5 9395   2.793   3.924  15.537
  632TMC3    C6 9396   2.661   3.947  15.534
  632TMC3     C 9397   2.823   3.570  15.543
  632TMC3     O 9398   2.896   3.553  15.446
  632TMC3     H 9399   2.548   3.633  15.562
  632TMC3    H1 9400   2.956   3.786  15.567
  632TMC3    H2 9401   2.613   4.043  15.518
  632TMC3    C7 9402   2.874   4.012  15.453
  632TMC3    C8 9403   2.429   3.854  15.537
  632TMC3    O1 9404   2.826   4.093  15.376
  632TMC3    O2 9405   2.367   3.760  15.494
  633MPD2     C 9406   2.608   1.286  17.611
  633MPD2    C1 9407   2.651   1.218  17.500
  633MPD2    C2 9408   2.667   1.087  17.505
  633MPD2    C3 9409   2.646   1.012  17.616
  633MPD2    C4 9410   2.593   1.076  17.726
  633MPD2    C5 9411   2.575   1.208  17.721
  633MPD2     H 9412   2.711   1.049  17.413
  633MPD2    H1 9413   2.575   1.028  17.821
  633MPD2    H2 9414   2.602   1.394  17.617
  633MPD2    H3 9415   2.546   1.250  17.816
  633MPD2     N 9416   2.661   0.872  17.633
  633MPD2    H5 9417   2.639   0.830  17.723
  633MPD2    N1 9418   2.682   1.282  17.376
  633MPD2    H7 9419   2.727   1.223  17.307
  634TMC3    C1 9420   2.753   1.445  17.233
  634TMC3    C2 9421   2.812   1.350  17.158
  634TMC3    C3 9422   2.854   1.380  17.028
  634TMC3    C4 9423   2.728   1.566  17.179
  634TMC3    C5 9424   2.771   1.598  17.057
  634TMC3    C6 9425   2.828   1.507  16.974
  634TMC3     C 9426   2.699   1.415  17.360
  634TMC3     O 9427   2.650   1.501  17.434
  634TMC3     H 9428   2.836   1.251  17.197
  634TMC3    H1 9429   2.672   1.634  17.242
  634TMC3    H2 9430   2.856   1.543  16.875
  634TMC3    C7 9431   2.744   1.729  16.998
  634TMC3    C8 9432   2.916   1.281  16.946
  634TMC3    O1 9433   2.817   1.751  16.903
  634TMC3    O2 9434   2.937   1.174  17.002
  635TMC3    C1 9435   2.768   2.668  17.868
  635TMC3    C2 9436   2.774   2.534  17.891
  635TMC3    C3 9437   2.674   2.487  17.963
  635TMC3    C4 9438   2.662   2.748  17.914
  635TMC3    C5 9439   2.556   2.685  17.983
  635TMC3    C6 9440   2.563   2.556  18.003
  635TMC3     C 9441   2.876   2.742  17.803
  635TMC3     O 9442   2.884   2.864  17.825
  635TMC3     H 9443   2.872   2.489  17.885
  635TMC3    H1 9444   2.661   2.856  17.911
  635TMC3    H2 9445   2.481   2.517  18.063
  635TMC3    C7 9446   2.460   2.763  18.057
  635TMC3    C8 9447   2.685   2.347  17.986
  635TMC3    O1 9448   2.351   2.713  18.068
  635TMC3    O2 9449   2.766   2.284  17.924
  636MPD2     C 9450   3.718   1.791  16.570
  636MPD2    C1 9451   3.818   1.822  16.664
  636MPD2    C2 9452   3.889   1.718  16.714
  636MPD2    C3 9453   3.875   1.589  16.671
  636MPD2    C4 9454   3.771   1.557  16.591
  636MPD2    C5 9455   3.700   1.659  16.535
  636MPD2     H 9456   3.975   1.743  16.775
  636MPD2    H1 9457   3.748   1.455  16.561
  636MPD2    H2 9458   3.661   1.863  16.512
  636MPD2    H3 9459   3.632   1.649  16.450
  636MPD2     N 9460   3.963   1.491  16.723
  636MPD2    H5 9461   4.048   1.520  16.769
  636MPD2    N1 9462   3.850   1.954  16.700
  636MPD2    H7 9463   3.941   1.963  16.744
  637TMC3    C1 9464   4.100   1.297  16.710
  637TMC3    C2 9465   4.177   1.350  16.807
  637TMC3    C3 9466   4.312   1.312  16.810
  637TMC3    C4 9467   4.154   1.227  16.609
  637TMC3    C5 9468   4.291   1.202  16.602
  637TMC3    C6 9469   4.364   1.235  16.713
  637TMC3     C 9470   3.971   1.366  16.678
  637TMC3     O 9471   3.904   1.307  16.593
  637TMC3     H 9472   4.134   1.391  16.897
  637TMC3    H1 9473   4.088   1.195  16.529
  637TMC3    H2 9474   4.470   1.212  16.712
  637TMC3    C7 9475   4.357   1.243  16.478
  637TMC3    C8 9476   4.388   1.421  16.856
  637TMC3    O1 9477   4.466   1.291  16.492
  637TMC3    O2 9478   4.335   1.531  16.852
  638MPD2     C 9479   3.921   0.518  15.374
  638MPD2    C1 9480   3.836   0.431  15.306
  638MPD2    C2 9481   3.750   0.351  15.375
  638MPD2    C3 9482   3.748   0.346  15.509
  638MPD2    C4 9483   3.818   0.440  15.577
  638MPD2    C5 9484   3.908   0.525  15.510
  638MPD2     H 9485   3.677   0.289  15.325
  638MPD2    H1 9486   3.816   0.460  15.683
  638MPD2    H2 9487   3.986   0.588  15.323
  638MPD2    H3 9488   3.966   0.595  15.569
  638MPD2     N 9489   3.665   0.249  15.575
  638MPD2    H5 9490   3.607   0.187  15.520
  638MPD2    N1 9491   3.859   0.427  15.159
  638MPD2    H7 9492   3.915   0.500  15.118
  639TMC3    C1 9493   3.589   0.109  15.726
  639TMC3    C2 9494   3.526   0.046  15.622
  639TMC3    C3 9495   3.544   4.697  15.593
  639TMC3    C4 9496   3.665   0.040  15.805
  639TMC3    C5 9497   3.698   4.687  15.763
  639TMC3    C6 9498   3.644   4.622  15.654
  639TMC3     C 9499   3.650   0.236  15.705
  639TMC3     O 9500   3.707   0.289  15.797
  639TMC3     H 9501   3.441   0.098  15.582
  639TMC3    H1 9502   3.726   0.077  15.887
  639TMC3    H2 9503   3.656   4.518  15.623
  639TMC3    C7 9504   3.815   4.617  15.823
  639TMC3    C8 9505   3.466   4.628  15.492
  639TMC3    O1 9506   3.846   4.646  15.940
  639TMC3    O2 9507   3.536   4.567  15.411
  640MPD2     C 9508   4.753   4.198  10.527
  640MPD2    C1 9509   4.736   4.250  10.402
  640MPD2    C2 9510   4.623   4.323  10.369
  640MPD2    C3 9511   4.522   4.335  10.466
  640MPD2    C4 9512   4.540   4.281  10.591
  640MPD2    C5 9513   4.654   4.212  10.620
  640MPD2     H 9514   4.614   4.367  10.270
  640MPD2    H1 9515   4.467   4.296  10.670
  640MPD2    H2 9516   0.059   4.136  10.546
  640MPD2    H3 9517   4.656   4.163  10.717
  640MPD2     N 9518   4.399   4.402  10.443
  640MPD2    H5 9519   4.353   4.438  10.526
  640MPD2    N1 9520   0.063   4.233  10.315
  640MPD2    H7 9521   0.128   4.165  10.352
  641TMC3    C1 9522   0.192   4.247  10.118
  641TMC3    C2 9523   0.239   4.124  10.137
  641TMC3    C3 9524   0.350   4.086  10.065
  641TMC3    C4 9525   0.260   4.335  10.027
  641TMC3    C5 9526   0.361   4.285   9.948
  641TMC3    C6 9527   0.410   4.162   9.971
  641TMC3     C 9528   0.081   4.299  10.197
  641TMC3     O 9529   0.031   4.409  10.168
  641TMC3     H 9530   0.184   4.057  10.202
  641TMC3    H1 9531   0.235   4.439  10.009
  641TMC3    H2 9532   0.503   4.123   9.931
  641TMC3    C7 9533   0.453   4.382   9.882
  641TMC3    C8 9534   0.413   3.957  10.075
  641TMC3    O1 9535   0.422   4.501   9.901
  641TMC3    O2 9536   0.470   3.914   9.976
  642TMC3    C1 9537   0.443   0.519  12.675
  642TMC3    C2 9538   0.556   0.536  12.747
  642TMC3    C3 9539   0.603   0.422  12.815
  642TMC3    C4 9540   0.383   0.395  12.654
  642TMC3    C5 9541   0.426   0.298  12.741
  642TMC3    C6 9542   0.533   0.310  12.819
  642TMC3     C 9543   0.365   0.637  12.639
  642TMC3     O 9544   0.421   0.702  12.548
  642TMC3     H 9545   0.589   0.639  12.758
  642TMC3    H1 9546   0.307   0.378  12.579
  642TMC3    H2 9547   0.568   0.227  12.880
  642TMC3    C7 9548   0.384   0.164  12.711
  642TMC3    C8 9549   0.722   0.432  12.896
  642TMC3    O1 9550   0.337   0.133  12.602
  642TMC3    O2 9551   0.771   0.330  12.942
  643TMC3    C1 9552   0.118   4.428  18.416
  643TMC3    C2 9553   0.005   4.455  18.345
  643TMC3    C3 9554   4.730   4.356  18.273
  643TMC3    C4 9555   0.176   4.301  18.414
  643TMC3    C5 9556   0.121   4.210  18.329
  643TMC3    C6 9557   4.778   4.227  18.273
  643TMC3     C 9558   0.189   4.544  18.474
  643TMC3     O 9559   0.161   4.657  18.434
  643TMC3     H 9560   4.754   4.559  18.343
  643TMC3    H1 9561   0.258   4.272  18.477
  643TMC3    H2 9562   4.747   4.147  18.207
  643TMC3    C7 9563   0.183   4.083  18.339
  643TMC3    C8 9564   4.667   4.386  18.140
  643TMC3    O1 9565   0.216   4.054  18.454
  643TMC3    O2 9566   4.636   4.295  18.065
  644MPD2     C 9567   0.375   0.272  10.239
  644MPD2    C1 9568   0.323   0.144  10.205
  644MPD2    C2 9569   0.199   0.139  10.144
  644MPD2    C3 9570   0.124   0.252  10.131
  644MPD2    C4 9571   0.170   0.379  10.174
  644MPD2    C5 9572   0.296   0.385  10.223
  644MPD2     H 9573   0.173   0.040  10.106
  644MPD2    H1 9574   0.121   0.475  10.175
  644MPD2    H2 9575   0.479   0.273  10.269
  644MPD2    H3 9576   0.340   0.478  10.259
  644MPD2     N 9577   4.779   0.227  10.080
  644MPD2    H5 9578   4.746   0.136  10.051
  644MPD2    N1 9579   0.404   0.038  10.220
  644MPD2    H7 9580   0.495   0.055  10.263
  645TMC3    C1 9581   4.570   0.285   9.989
  645TMC3    C2 9582   4.468   0.375   9.967
  645TMC3    C3 9583   4.347   0.340   9.912
  645TMC3    C4 9584   4.552   0.155   9.954
  645TMC3    C5 9585   4.427   0.123   9.909
  645TMC3    C6 9586   4.324   0.209   9.891
  645TMC3     C 9587   4.675   0.322  10.075
  645TMC3     O 9588   4.672   0.441  10.103
  645TMC3     H 9589   4.468   0.480   9.992
  645TMC3    H1 9590   4.632   0.086   9.930
  645TMC3    H2 9591   4.230   0.178   9.846
  645TMC3    C7 9592   4.409   4.770   9.849
  645TMC3    C8 9593   4.251   0.435   9.871
  645TMC3    O1 9594   4.324   4.754   9.768
  645TMC3    O2 9595   4.234   0.521   9.951
  646MPD2     C 9596   3.810   3.811  14.958
  646MPD2    C1 9597   3.760   3.869  15.077
  646MPD2    C2 9598   3.652   3.957  15.073
  646MPD2    C3 9599   3.603   3.999  14.943
  646MPD2    C4 9600   3.647   3.925  14.829
  646MPD2    C5 9601   3.751   3.841  14.840
  646MPD2     H 9602   3.607   3.998  15.163
  646MPD2    H1 9603   3.606   3.944  14.730
  646MPD2    H2 9604   3.895   3.743  14.960
  646MPD2    H3 9605   3.805   3.801  14.755
  646MPD2     N 9606   3.499   4.096  14.940
  646MPD2    H5 9607   3.456   4.113  15.030
  646MPD2    N1 9608   3.826   3.820  15.197
  646MPD2    H7 9609   3.896   3.750  15.172
  647TMC3    C1 9610   3.871   3.770  15.418
  647TMC3    C2 9611   3.815   3.746  15.536
  647TMC3    C3 9612   3.894   3.677  15.628
  647TMC3    C4 9613   4.006   3.749  15.394
  647TMC3    C5 9614   4.087   3.701  15.499
  647TMC3    C6 9615   4.030   3.662  15.621
  647TMC3     C 9616   3.787   3.845  15.324
  647TMC3     O 9617   3.686   3.892  15.367
  647TMC3     H 9618   3.710   3.763  15.560
  647TMC3    H1 9619   4.044   3.774  15.295
  647TMC3    H2 9620   4.086   3.610  15.699
  647TMC3    C7 9621   4.208   3.627  15.472
  647TMC3    C8 9622   3.836   3.543  15.656
  647TMC3    O1 9623   4.273   3.600  15.571
  647TMC3    O2 9624   3.899   3.474  15.732
  648TMC3    C1 9625   3.306   1.445  16.625
  648TMC3    C2 9626   3.357   1.324  16.618
  648TMC3    C3 9627   3.408   1.275  16.498
  648TMC3    C4 9628   3.293   1.527  16.509
  648TMC3    C5 9629   3.336   1.471  16.383
  648TMC3    C6 9630   3.409   1.356  16.385
  648TMC3     C 9631   3.281   1.512  16.749
  648TMC3     O 9632   3.264   1.635  16.739
  648TMC3     H 9633   3.359   1.253  16.700
  648TMC3    H1 9634   3.258   1.630  16.509
  648TMC3    H2 9635   3.447   1.314  16.292
  648TMC3    C7 9636   3.313   1.550  16.262
  648TMC3    C8 9637   3.505   1.171  16.513
  648TMC3    O1 9638   3.389   1.536  16.170
  648TMC3    O2 9639   3.495   1.101  16.616
  649TMC3    C1 9640   2.117   2.916  13.017
  649TMC3    C2 9641   2.250   2.910  12.973
  649TMC3    C3 9642   2.344   2.851  13.054
  649TMC3    C4 9643   2.085   2.882  13.146
  649TMC3    C5 9644   2.180   2.819  13.224
  649TMC3    C6 9645   2.309   2.800  13.177
  649TMC3     C 9646   2.012   2.922  12.913
  649TMC3     O 9647   1.895   2.930  12.955
  649TMC3     H 9648   2.282   2.936  12.873
  649TMC3    H1 9649   1.981   2.900  13.171
  649TMC3    H2 9650   2.384   2.764  13.246
  649TMC3    C7 9651   2.128   2.707  13.302
  649TMC3    C8 9652   2.491   2.851  13.027
  649TMC3    O1 9653   2.015   2.706  13.350
  649TMC3    O2 9654   2.548   2.764  13.094
  650TMC3    C1 9655   0.069   4.457  13.177
  650TMC3    C2 9656   0.010   4.566  13.235
  650TMC3    C3 9657   4.664   4.599  13.181
  650TMC3    C4 9658   0.018   4.381  13.074
  650TMC3    C5 9659   4.678   4.424  13.032
  650TMC3    C6 9660   4.609   4.535  13.078
  650TMC3     C 9661   0.198   4.406  13.235
  650TMC3     O 9662   0.252   4.490  13.310
  650TMC3     H 9663   0.052   4.624  13.317
  650TMC3    H1 9664   0.076   4.309  13.017
  650TMC3    H2 9665   4.514   4.560  13.033
  650TMC3    C7 9666   4.656   4.388  12.891
  650TMC3    C8 9667   4.609   4.725  13.233
  650TMC3    O1 9668   4.660   4.269  12.857
  650TMC3    O2 9669   4.684   0.034  13.267
  651MPD2     C 9670   3.497   1.751  10.672
  651MPD2    C1 9671   3.449   1.827  10.768
  651MPD2    C2 9672   3.544   1.876  10.860
  651MPD2    C3 9673   3.675   1.837  10.864
  651MPD2    C4 9674   3.719   1.742  10.774
  651MPD2    C5 9675   3.630   1.708  10.674
  651MPD2     H 9676   3.519   1.949  10.937
  651MPD2    H1 9677   3.827   1.727  10.771
  651MPD2    H2 9678   3.439   1.710  10.589
  651MPD2    H3 9679   3.667   1.649  10.591
  651MPD2     N 9680   3.763   1.909  10.949
  651MPD2    H5 9681   3.721   1.992  10.990
  651MPD2    N1 9682   3.316   1.874  10.780
  651MPD2    H7 9683   3.293   1.942  10.851
  652TMC3    C1 9684   4.143   2.054  11.178
  652TMC3    C2 9685   4.074   1.958  11.116
  652TMC3    C3 9686   3.967   1.995  11.041
  652TMC3    C4 9687   4.117   2.185  11.162
  652TMC3    C5 9688   4.010   2.218  11.086
  652TMC3    C6 9689   3.932   2.127  11.023
  652TMC3     C 9690   4.264   2.018  11.241
  652TMC3     O 9691   4.278   1.905  11.292
  652TMC3     H 9692   4.106   1.855  11.128
  652TMC3    H1 9693   4.173   2.265  11.210
  652TMC3    H2 9694   3.842   2.153  10.968
  652TMC3    C7 9695   3.951   2.349  11.083
  652TMC3    C8 9696   3.893   1.887  10.974
  652TMC3    O1 9697   3.830   2.357  11.082
  652TMC3    O2 9698   3.960   1.785  10.946
  653MPD2     C 9699   2.207   1.614  18.074
  653MPD2    C1 9700   2.179   1.693  17.965
  653MPD2    C2 9701   2.169   1.635  17.843
  653MPD2    C3 9702   2.185   1.499  17.822
  653MPD2    C4 9703   2.194   1.415  17.934
  653MPD2    C5 9704   2.209   1.481  18.060
  653MPD2     H 9705   2.176   1.689  17.749
  653MPD2    H1 9706   2.205   1.307  17.932
  653MPD2    H2 9707   2.233   1.653  18.172
  653MPD2    H3 9708   2.210   1.427  18.154
  653MPD2     N 9709   2.184   1.447  17.692
  653MPD2    H5 9710   2.199   1.521  17.624
  653MPD2    N1 9711   2.177   1.838  17.966
  653MPD2    H7 9712   2.155   1.891  17.883
  654TMC3    C1 9713   2.226   1.301  17.512
  654TMC3    C2 9714   2.137   1.352  17.420
  654TMC3    C3 9715   2.122   1.288  17.297
  654TMC3    C4 9716   2.292   1.187  17.473
  654TMC3    C5 9717   2.275   1.126  17.351
  654TMC3    C6 9718   2.189   1.176  17.265
  654TMC3     C 9719   2.236   1.328  17.656
  654TMC3     O 9720   2.299   1.241  17.718
  654TMC3     H 9721   2.075   1.438  17.444
  654TMC3    H1 9722   2.371   1.139  17.530
  654TMC3    H2 9723   2.167   1.121  17.175
  654TMC3    C7 9724   2.291   0.989  17.348
  654TMC3    C8 9725   2.000   1.326  17.220
  654TMC3    O1 9726   2.281   0.940  17.239
  654TMC3    O2 9727   1.937   1.419  17.264
  655MPD2     C 9728   3.936   1.676  15.991
  655MPD2    C1 9729   3.819   1.710  15.933
  655MPD2    C2 9730   3.785   1.662  15.810
  655MPD2    C3 9731   3.862   1.570  15.736
  655MPD2    C4 9732   3.989   1.550  15.785
  655MPD2    C5 9733   4.020   1.606  15.910
  655MPD2     H 9734   3.687   1.688  15.770
  655MPD2    H1 9735   4.063   1.480  15.748
  655MPD2    H2 9736   3.980   1.714  16.082
  655MPD2    H3 9737   4.113   1.569  15.952
  655MPD2     N 9738   3.823   1.509  15.615
  655MPD2    H5 9739   3.895   1.465  15.558
  655MPD2    N1 9740   3.735   1.805  15.995
  655MPD2    H7 9741   3.657   1.852  15.950
  656TMC3    C1 9742   3.646   1.940  16.152
  656TMC3    C2 9743   3.555   1.895  16.248
  656TMC3    C3 9744   3.439   1.963  16.262
  656TMC3    C4 9745   3.616   2.044  16.067
  656TMC3    C5 9746   3.493   2.106  16.078
  656TMC3    C6 9747   3.401   2.066  16.173
  656TMC3     C 9748   3.755   1.847  16.125
  656TMC3     O 9749   3.811   1.785  16.214
  656TMC3     H 9750   3.566   1.803  16.304
  656TMC3    H1 9751   3.697   2.059  15.996
  656TMC3    H2 9752   3.303   2.111  16.185
  656TMC3    C7 9753   3.466   2.189  15.964
  656TMC3    C8 9754   3.355   1.932  16.371
  656TMC3    O1 9755   3.556   2.214  15.887
  656TMC3    O2 9756   3.379   1.833  16.439
  657TMC3    C1 9757   2.670   1.043  15.382
  657TMC3    C2 9758   2.718   1.071  15.502
  657TMC3    C3 9759   2.684   1.193  15.554
  657TMC3    C4 9760   2.588   1.124  15.307
  657TMC3    C5 9761   2.558   1.246  15.365
  657TMC3    C6 9762   2.600   1.277  15.491
  657TMC3     C 9763   2.697   0.910  15.328
  657TMC3     O 9764   2.605   0.864  15.263
  657TMC3     H 9765   2.779   0.997  15.553
  657TMC3    H1 9766   2.558   1.090  15.208
  657TMC3    H2 9767   2.579   1.376  15.528
  657TMC3    C7 9768   2.452   1.326  15.308
  657TMC3    C8 9769   2.751   1.246  15.676
  657TMC3    O1 9770   2.385   1.393  15.382
  657TMC3    O2 9771   2.711   1.355  15.714
  658MPD2     C 9772   4.146   1.254  15.156
  658MPD2    C1 9773   4.048   1.328  15.088
  658MPD2    C2 9774   4.047   1.328  14.949
  658MPD2    C3 9775   4.151   1.276  14.879
  658MPD2    C4 9776   4.250   1.201  14.950
  658MPD2    C5 9777   4.244   1.193  15.088
  658MPD2     H 9778   3.954   1.361  14.904
  658MPD2    H1 9779   4.324   1.150  14.888
  658MPD2    H2 9780   4.143   1.250  15.264
  658MPD2    H3 9781   4.311   1.128  15.143
  658MPD2     N 9782   4.135   1.280  14.740
  658MPD2    H5 9783   4.049   1.326  14.714
  658MPD2    N1 9784   3.942   1.382  15.162
  658MPD2    H7 9785   3.957   1.377  15.263
  659TMC3    C1 9786   3.739   1.480  15.204
  659TMC3    C2 9787   3.774   1.466  15.335
  659TMC3    C3 9788   3.672   1.462  15.429
  659TMC3    C4 9789   3.616   1.463  15.156
  659TMC3    C5 9790   3.516   1.449  15.253
  659TMC3    C6 9791   3.538   1.452  15.388
  659TMC3     C 9792   3.847   1.463  15.113
  659TMC3     O 9793   3.839   1.524  15.004
  659TMC3     H 9794   3.876   1.484  15.367
  659TMC3    H1 9795   3.599   1.472  15.050
  659TMC3    H2 9796   3.456   1.452  15.459
  659TMC3    C7 9797   3.390   1.396  15.204
  659TMC3    C8 9798   3.693   1.512  15.568
  659TMC3    O1 9799   3.297   1.429  15.274
  659TMC3    O2 9800   3.591   1.528  15.633
  660MPD2     C 9801   1.864   0.587  12.923
  660MPD2    C1 9802   1.741   0.604  12.982
  660MPD2    C2 9803   1.702   0.515  13.081
  660MPD2    C3 9804   1.779   0.406  13.110
  660MPD2    C4 9805   1.891   0.386  13.038
  660MPD2    C5 9806   1.940   0.480  12.948
  660MPD2     H 9807   1.607   0.531  13.130
  660MPD2    H1 9808   1.951   0.299  13.064
  660MPD2    H2 9809   1.906   0.657  12.852
  660MPD2    H3 9810   2.027   0.452  12.889
  660MPD2     N 9811   1.734   0.310  13.203
  660MPD2    H5 9812   1.778   0.218  13.209
  660MPD2    N1 9813   1.664   0.703  12.924
  660MPD2    H7 9814   1.709   0.768  12.861
  661TMC3    C1 9815   1.473   0.844  12.883
  661TMC3    C2 9816   1.547   0.927  12.800
  661TMC3    C3 9817   1.479   1.020  12.727
  661TMC3    C4 9818   1.335   0.860  12.892
  661TMC3    C5 9819   1.271   0.955  12.814
  661TMC3    C6 9820   1.341   1.028  12.725
  661TMC3     C 9821   1.532   0.735  12.956
  661TMC3     O 9822   1.463   0.666  13.031
  661TMC3     H 9823   1.655   0.918  12.797
  661TMC3    H1 9824   1.277   0.794  12.956
  661TMC3    H2 9825   1.280   1.087  12.657
  661TMC3    C7 9826   1.141   0.930  12.773
  661TMC3    C8 9827   1.545   1.057  12.597
  661TMC3    O1 9828   1.056   1.017  12.782
  661TMC3    O2 9829   1.657   1.008  12.580
  662MPD2     C 9830   2.024   0.224  17.596
  662MPD2    C1 9831   1.990   0.146  17.709
  662MPD2    C2 9832   1.938   0.210  17.816
  662MPD2    C3 9833   1.923   0.348  17.827
  662MPD2    C4 9834   1.956   0.424  17.717
  662MPD2    C5 9835   2.010   0.363  17.604
  662MPD2     H 9836   1.912   0.146  17.900
  662MPD2    H1 9837   1.945   0.532  17.716
  662MPD2    H2 9838   2.061   0.192  17.499
  662MPD2    H3 9839   2.036   0.430  17.524
  662MPD2     N 9840   1.868   0.408  17.940
  662MPD2    H5 9841   1.854   0.508  17.943
  662MPD2    N1 9842   1.975   0.004  17.699
  662MPD2    H7 9843   1.940   4.743  17.785
  663TMC3    C1 9844   1.963   4.567  17.599
  663TMC3    C2 9845   1.848   4.541  17.673
  663TMC3    C3 9846   1.784   4.422  17.661
  663TMC3    C4 9847   2.025   4.463  17.535
  663TMC3    C5 9848   1.962   4.343  17.529
  663TMC3    C6 9849   1.844   4.315  17.597
  663TMC3     C 9850   2.012   4.706  17.598
  663TMC3     O 9851   2.076   4.737  17.499
  663TMC3     H 9852   1.789   4.623  17.714
  663TMC3    H1 9853   2.112   4.476  17.472
  663TMC3    H2 9854   1.787   4.223  17.590
  663TMC3    C7 9855   2.008   4.244  17.440
  663TMC3    C8 9856   1.663   4.400  17.733
  663TMC3    O1 9857   2.057   4.286  17.334
  663TMC3    O2 9858   1.592   4.308  17.684
  664MPD2     C 9859   4.653   2.815  17.616
  664MPD2    C1 9860   4.711   2.930  17.668
  664MPD2    C2 9861   4.682   2.976  17.794
  664MPD2    C3 9862   4.598   2.905  17.876
  664MPD2    C4 9863   4.530   2.794  17.820
  664MPD2    C5 9864   4.564   2.743  17.699
  664MPD2     H 9865   4.730   3.063  17.837
  664MPD2    H1 9866   4.457   2.746  17.883
  664MPD2    H2 9867   4.686   2.779  17.520
  664MPD2    H3 9868   4.523   2.645  17.678
  664MPD2     N 9869   4.571   2.956  18.001
  664MPD2    H5 9870   4.621   3.036  18.039
  664MPD2    N1 9871   0.019   3.004  17.587
  664MPD2    H7 9872   0.041   3.091  17.636
  665TMC3    C1 9873   4.528   2.947  18.236
  665TMC3    C2 9874   4.416   2.952  18.320
  665TMC3    C3 9875   4.431   3.008  18.446
  665TMC3    C4 9876   4.646   3.002  18.266
  665TMC3    C5 9877   4.657   3.050  18.397
  665TMC3    C6 9878   4.553   3.054  18.487
  665TMC3     C 9879   4.503   2.890  18.102
  665TMC3     O 9880   4.416   2.803  18.097
  665TMC3     H 9881   4.320   2.912  18.290
  665TMC3    H1 9882   4.728   3.007  18.195
  665TMC3    H2 9883   4.570   3.058  18.594
  665TMC3    C7 9884   0.010   3.090  18.441
  665TMC3    C8 9885   4.322   2.981  18.539
  665TMC3    O1 9886   0.105   3.077  18.362
  665TMC3    O2 9887   4.318   3.059  18.633
  666TMC3    C1 9888   3.924   3.038  10.291
  666TMC3    C2 9889   3.938   2.999  10.161
  666TMC3    C3 9890   3.998   3.074  10.062
  666TMC3    C4 9891   3.966   3.164  10.330
  666TMC3    C5 9892   4.026   3.240  10.233
  666TMC3    C6 9893   4.040   3.201  10.100
  666TMC3     C 9894   3.938   2.943  10.396
  666TMC3     O 9895   3.960   2.988  10.510
  666TMC3     H 9896   3.928   2.896  10.132
  666TMC3    H1 9897   3.949   3.209  10.427
  666TMC3    H2 9898   4.068   3.276  10.027
  666TMC3    C7 9899   4.092   3.355  10.280
  666TMC3    C8 9900   4.054   2.992   9.955
  666TMC3    O1 9901   4.072   3.396  10.393
  666TMC3    O2 9902   3.975   2.916   9.908
  667MPD2     C 9903   0.758   2.906  14.840
  667MPD2    C1 9904   0.697   2.891  14.970
  667MPD2    C2 9905   0.612   2.784  15.002
  667MPD2    C3 9906   0.575   2.706  14.892
  667MPD2    C4 9907   0.635   2.723  14.771
  667MPD2    C5 9908   0.717   2.826  14.745
  667MPD2     H 9909   0.570   2.763  15.100
  667MPD2    H1 9910   0.610   2.662  14.685
  667MPD2    H2 9911   0.811   2.995  14.809
  667MPD2    H3 9912   0.751   2.850  14.645
  667MPD2     N 9913   0.476   2.608  14.903
  667MPD2    H5 9914   0.478   2.533  14.835
  667MPD2    N1 9915   0.704   2.996  15.068
  667MPD2    H7 9916   0.652   2.975  15.152
  668TMC3    C1 9917   0.810   3.169  15.203
  668TMC3    C2 9918   0.882   3.287  15.194
  668TMC3    C3 9919   0.969   3.322  15.294
  668TMC3    C4 9920   0.819   3.097  15.318
  668TMC3    C5 9921   0.909   3.131  15.416
  668TMC3    C6 9922   0.985   3.244  15.411
  668TMC3     C 9923   0.790   3.101  15.071
  668TMC3     O 9924   0.866   3.139  14.985
  668TMC3     H 9925   0.869   3.344  15.103
  668TMC3    H1 9926   0.779   2.997  15.330
  668TMC3    H2 9927   1.064   3.271  15.480
  668TMC3    C7 9928   0.902   3.070  15.551
  668TMC3    C8 9929   1.034   3.451  15.297
  668TMC3    O1 9930   1.006   3.074  15.614
  668TMC3    O2 9931   1.075   3.497  15.406
  669TMC3    C1 9932   3.642   2.882  14.959
  669TMC3    C2 9933   3.539   2.863  14.873
  669TMC3    C3 9934   3.538   2.916  14.747
  669TMC3    C4 9935   3.745   2.961  14.912
  669TMC3    C5 9936   3.734   3.021  14.786
  669TMC3    C6 9937   3.630   3.003  14.708
  669TMC3     C 9938   3.634   2.838  15.096
  669TMC3     O 9939   3.524   2.811  15.133
  669TMC3     H 9940   3.460   2.796  14.907
  669TMC3    H1 9941   3.817   2.998  14.985
  669TMC3    H2 9942   3.631   3.052  14.611
  669TMC3    C7 9943   3.831   3.129  14.758
  669TMC3    C8 9944   3.412   2.935  14.677
  669TMC3    O1 9945   3.886   3.178  14.850
  669TMC3    O2 9946   3.334   2.840  14.666
  670MPD2     C 9947   2.099   0.974  13.589
  670MPD2    C1 9948   2.166   0.886  13.674
  670MPD2    C2 9949   2.093   0.818  13.770
  670MPD2    C3 9950   1.954   0.834  13.783
  670MPD2    C4 9951   1.891   0.907  13.684
  670MPD2    C5 9952   1.964   0.968  13.590
  670MPD2     H 9953   2.136   0.738  13.830
  670MPD2    H1 9954   1.784   0.921  13.672
  670MPD2    H2 9955   2.149   1.029  13.510
  670MPD2    H3 9956   1.915   1.022  13.509
  670MPD2     N 9957   1.897   0.793  13.906
  670MPD2    H5 9958   1.968   0.777  13.977
  670MPD2    N1 9959   2.307   0.867  13.678
  670MPD2    H7 9960   2.343   0.812  13.755
  671TMC3    C1 9961   1.738   0.768  14.084
  671TMC3    C2 9962   1.815   0.783  14.187
  671TMC3    C3 9963   1.783   0.738  14.315
  671TMC3    C4 9964   1.621   0.703  14.091
  671TMC3    C5 9965   1.597   0.634  14.205
  671TMC3    C6 9966   1.667   0.656  14.318
  671TMC3     C 9967   1.768   0.817  13.951
  671TMC3     O 9968   1.678   0.870  13.888
  671TMC3     H 9969   1.902   0.846  14.173
  671TMC3    H1 9970   1.552   0.714  14.008
  671TMC3    H2 9971   1.654   0.582  14.396
  671TMC3    C7 9972   1.544   0.505  14.174
  671TMC3    C8 9973   1.888   0.654  14.372
  671TMC3    O1 9974   1.556   0.467  14.060
  671TMC3    O2 9975   1.952   0.593  14.288
  672MPD2     C 9976   2.330   1.182  19.626
  672MPD2    C1 9977   2.379   1.258  19.533
  672MPD2    C2 9978   2.482   1.353  19.571
  672MPD2    C3 9979   2.524   1.373  19.701
  672MPD2    C4 9980   2.483   1.279  19.794
  672MPD2    C5 9981   2.380   1.193  19.755
  672MPD2     H 9982   2.517   1.420  19.493
  672MPD2    H1 9983   2.512   1.302  19.896
  672MPD2    H2 9984   2.269   1.097  19.601
  672MPD2    H3 9985   2.332   1.124  19.823
  672MPD2     N 9986   2.609   1.471  19.735
  672MPD2    H5 9987   2.661   1.462  19.822
  672MPD2    N1 9988   2.354   1.242  19.397
  672MPD2    H7 9989   2.417   1.288  19.332
  673TMC3    C1 9990   2.255   1.153  19.208
  673TMC3    C2 9991   2.374   1.140  19.140
  673TMC3    C3 9992   2.367   1.135  19.003
  673TMC3    C4 9993   2.132   1.156  19.144
  673TMC3    C5 9994   2.130   1.157  19.007
  673TMC3    C6 9995   2.249   1.150  18.932
  673TMC3     C 9996   2.251   1.175  19.349
  673TMC3     O 9997   2.148   1.137  19.400
  673TMC3     H 9998   2.465   1.138  19.198
  673TMC3    H1 9999   2.034   1.156  19.191
  673TMC3    H210000   2.249   1.133  18.825
  673TMC3    C710001   1.998   1.159  18.939
  673TMC3    C810002   2.467   1.054  18.938
  673TMC3    O110003   1.908   1.109  19.004
  673TMC3    O210004   2.434   1.001  18.829
  674MPD2     C10005   2.210   0.383  18.139
  674MPD2    C110006   2.206   0.345  18.264
  674MPD2    C210007   2.211   0.447  18.362
  674MPD2    C310008   2.224   0.578  18.329
  674MPD2    C410009   2.229   0.617  18.198
  674MPD2    C510010   2.218   0.520  18.107
  674MPD2     H10011   2.204   0.423  18.467
  674MPD2    H110012   2.248   0.719  18.167
  674MPD2    H210013   2.201   0.307  18.062
  674MPD2    H310014   2.208   0.550  18.004
  674MPD2     N10015   2.229   0.657  18.440
  674MPD2    H510016   2.230   0.607  18.528
  674MPD2    N110017   2.192   0.209  18.289
  674MPD2    H710018   2.155   0.158  18.210
  675TMC3    C110019   2.281   0.203  18.519
  675TMC3    C210020   2.231   0.180  18.646
  675TMC3    C310021   2.297   0.244  18.750
  675TMC3    C410022   2.396   0.269  18.490
  675TMC3    C510023   2.456   0.331  18.593
  675TMC3    C610024   2.411   0.322  18.719
  675TMC3     C10025   2.208   0.139  18.412
  675TMC3     O10026   2.184   0.020  18.422
  675TMC3     H10027   2.142   0.122  18.665
  675TMC3    H110028   2.428   0.285  18.387
  675TMC3    H210029   2.460   0.369  18.803
  675TMC3    C710030   2.542   0.448  18.575
  675TMC3    C810031   2.247   0.235  18.883
  675TMC3    O110032   2.564   0.512  18.673
  675TMC3    O210033   2.161   0.146  18.904
  676MPD2     C10034   0.555   4.041  11.516
  676MPD2    C110035   0.440   3.993  11.561
  676MPD2    C210036   0.412   3.859  11.540
  676MPD2    C310037   0.502   3.771  11.482
  676MPD2    C410038   0.625   3.820  11.443
  676MPD2    C510039   0.655   3.952  11.459
  676MPD2     H10040   0.312   3.823  11.559
  676MPD2    H110041   0.698   3.761  11.389
  676MPD2    H210042   0.578   4.143  11.543
  676MPD2    H310043   0.747   4.003  11.432
  676MPD2     N10044   0.476   3.634  11.451
  676MPD2    H510045   0.547   3.596  11.389
  676MPD2    N110046   0.342   4.063  11.624
  676MPD2    H710047   0.255   4.021  11.656
  677TMC3    C110048   0.224   4.237  11.727
  677TMC3    C210049   0.135   4.136  11.763
  677TMC3    C310050   0.019   4.169  11.831
  677TMC3    C410051   0.190   4.371  11.752
  677TMC3    C510052   0.078   4.398  11.824
  677TMC3    C610053   4.770   4.301  11.866
  677TMC3     C10054   0.333   4.201  11.644
  677TMC3     O10055   0.397   4.296  11.593
  677TMC3     H10056   0.155   4.029  11.759
  677TMC3    H110057   0.266   4.439  11.717
  677TMC3    H210058   4.675   4.331  11.907
  677TMC3    C710059   0.067   4.509  11.910
  677TMC3    C810060   4.749   4.069  11.927
  677TMC3    O110061   4.737   4.527  11.960
  677TMC3    O210062   0.032   3.964  11.936
  678MPD2     C10063   1.532   3.973  19.620
  678MPD2    C110064   1.555   4.017  19.490
  678MPD2    C210065   1.463   3.989  19.394
  678MPD2    C310066   1.351   3.928  19.427
  678MPD2    C410067   1.327   3.874  19.551
  678MPD2    C510068   1.416   3.904  19.646
  678MPD2     H10069   1.488   4.018  19.293
  678MPD2    H110070   1.235   3.822  19.576
  678MPD2    H210071   1.598   3.984  19.706
  678MPD2    H310072   1.394   3.871  19.747
  678MPD2     N10073   1.258   3.908  19.318
  678MPD2    H510074   1.285   3.930  19.223
  678MPD2    N110075   1.671   4.084  19.455
  678MPD2    H710076   1.660   4.136  19.369
  679TMC3    C110077   2.115   4.120  19.393
  679TMC3    C210078   2.013   4.094  19.483
  679TMC3    C310079   1.894   4.157  19.472
  679TMC3    C410080   2.093   4.205  19.288
  679TMC3    C510081   1.975   4.281  19.289
  679TMC3    C610082   1.873   4.244  19.368
  679TMC3     C10083   2.195   4.006  19.350
  679TMC3     O10084   2.217   3.995  19.231
  679TMC3     H10085   2.018   4.009  19.550
  679TMC3    H110086   2.165   4.205  19.207
  679TMC3    H210087   1.778   4.293  19.348
  679TMC3    C710088   1.947   4.388  19.189
  679TMC3    C810089   1.785   4.093  19.535
  679TMC3    O110090   1.839   4.443  19.189
  679TMC3    O210091   1.812   4.036  19.637
  680MPD2     C10092   1.244   2.515  13.619
  680MPD2    C110093   1.371   2.514  13.651
  680MPD2    C210094   1.425   2.617  13.727
  680MPD2    C310095   1.351   2.724  13.762
  680MPD2    C410096   1.220   2.728  13.720
  680MPD2    C510097   1.170   2.627  13.646
  680MPD2     H10098   1.529   2.609  13.756
  680MPD2    H110099   1.154   2.812  13.739
  680MPD2    H210100   1.193   2.445  13.555
  680MPD2    H310101   1.071   2.631  13.601
  680MPD2     N10102   1.392   2.845  13.826
  680MPD2    H510103   1.326   2.920  13.842
  680MPD2    N110104   1.451   2.404  13.623
  680MPD2    H710105   1.551   2.420  13.630
  681TMC3    C110106   1.514   2.199  13.530
  681TMC3    C210107   1.467   2.073  13.564
  681TMC3    C310108   1.563   1.997  13.629
  681TMC3    C410109   1.644   2.233  13.533
  681TMC3    C510110   1.737   2.147  13.585
  681TMC3    C610111   1.692   2.035  13.640
  681TMC3     C10112   1.409   2.295  13.544
  681TMC3     O10113   1.295   2.259  13.516
  681TMC3     H10114   1.360   2.052  13.563
  681TMC3    H110115   1.667   2.333  13.498
  681TMC3    H210116   1.762   1.966  13.686
  681TMC3    C710117   1.875   2.139  13.539
  681TMC3    C810118   1.524   1.960  13.763
  681TMC3    O110119   1.934   2.032  13.557
  681TMC3    O210120   1.445   1.865  13.766
  682MPD2     C10121   4.098   4.584  10.873
  682MPD2    C110122   4.064   4.467  10.930
  682MPD2    C210123   3.985   4.459  11.044
  682MPD2    C310124   3.914   4.570  11.087
  682MPD2    C410125   3.949   4.684  11.031
  682MPD2    C510126   4.040   4.695  10.926
  682MPD2     H10127   3.981   4.358  11.083
  682MPD2    H110128   3.908   4.774  11.076
  682MPD2    H210129   4.161   4.596  10.785
  682MPD2    H310130   4.059   0.010  10.879
  682MPD2     N10131   3.804   4.577  11.180
  682MPD2    H510132   3.787   4.673  11.209
  682MPD2    N110133   4.092   4.338  10.874
  682MPD2    H710134   4.051   4.259  10.922
  683TMC3    C110135   3.560   4.675  11.477
  683TMC3    C210136   3.454   4.586  11.496
  683TMC3    C310137   3.469   4.459  11.457
  683TMC3    C410138   3.668   4.635  11.403
  683TMC3    C510139   3.671   4.502  11.359
  683TMC3    C610140   3.578   4.405  11.398
  683TMC3     C10141   3.585   0.003  11.569
  683TMC3     O10142   3.676   0.081  11.545
  683TMC3     H10143   3.364   4.621  11.545
  683TMC3    H110144   3.757   4.696  11.393
  683TMC3    H210145   3.585   4.304  11.361
  683TMC3    C710146   3.771   4.466  11.257
  683TMC3    C810147   3.362   4.365  11.489
  683TMC3    O110148   3.795   4.345  11.247
  683TMC3    O210149   3.253   4.414  11.508
  684MPD2     C10150   1.983   3.161  16.579
  684MPD2    C110151   1.977   3.219  16.454
  684MPD2    C210152   1.978   3.357  16.443
  684MPD2    C310153   1.980   3.434  16.563
  684MPD2    C410154   1.984   3.374  16.689
  684MPD2    C510155   1.992   3.239  16.689
  684MPD2     H10156   1.969   3.397  16.342
  684MPD2    H110157   1.991   3.427  16.783
  684MPD2    H210158   1.989   3.054  16.592
  684MPD2    H310159   1.999   3.192  16.787
  684MPD2     N10160   1.998   3.573  16.561
  684MPD2    H510161   1.991   3.623  16.649
  684MPD2    N110162   1.952   3.151  16.335
  684MPD2    H710163   1.924   3.206  16.254
  685TMC3    C110164   1.927   2.979  16.179
  685TMC3    C210165   1.848   3.043  16.090
  685TMC3    C310166   1.837   3.007  15.966
  685TMC3    C410167   1.982   2.863  16.138
  685TMC3    C510168   1.970   2.814  16.007
  685TMC3    C610169   1.903   2.893  15.917
  685TMC3     C10170   1.955   3.018  16.320
  685TMC3     O10171   1.970   2.924  16.394
  685TMC3     H10172   1.793   3.128  16.127
  685TMC3    H110173   2.044   2.809  16.209
  685TMC3    H210174   1.906   2.879  15.809
  685TMC3    C710175   2.083   2.733  15.968
  685TMC3    C810176   1.737   3.062  15.875
  685TMC3    O110177   2.109   2.657  16.062
  685TMC3    O210178   1.701   2.986  15.787
  686MPD2     C10179   3.205   3.567  15.482
  686MPD2    C110180   3.258   3.449  15.538
  686MPD2    C210181   3.328   3.359  15.454
  686MPD2    C310182   3.332   3.372  15.319
  686MPD2    C410183   3.280   3.494  15.269
  686MPD2    C510184   3.220   3.587  15.348
  686MPD2     H10185   3.371   3.270  15.498
  686MPD2    H110186   3.265   3.515  15.163
  686MPD2    H210187   3.148   3.639  15.538
  686MPD2    H310188   3.172   3.675  15.308
  686MPD2     N10189   3.377   3.282  15.220
  686MPD2    H510190   3.370   3.318  15.125
  686MPD2    N110191   3.223   3.422  15.673
  686MPD2    H710192   3.157   3.478  15.725
  687TMC3    C110193   3.426   3.095  15.364
  687TMC3    C210194   3.298   3.062  15.398
  687TMC3    C310195   3.281   2.998  15.515
  687TMC3    C410196   3.538   3.057  15.436
  687TMC3    C510197   3.510   3.000  15.555
  687TMC3    C610198   3.383   2.968  15.598
  687TMC3     C10199   3.444   3.162  15.238
  687TMC3     O10200   3.522   3.110  15.160
  687TMC3     H10201   3.222   3.088  15.325
  687TMC3    H110202   3.632   3.093  15.396
  687TMC3    H210203   3.366   2.932  15.699
  687TMC3    C710204   3.615   2.989  15.651
  687TMC3    C810205   3.150   2.994  15.583
  687TMC3    O110206   3.584   2.986  15.773
  687TMC3    O210207   3.129   2.915  15.675
  688MPD2     C10208   2.473   2.468  17.679
  688MPD2    C110209   2.444   2.331  17.664
  688MPD2    C210210   2.499   2.270  17.554
  688MPD2    C310211   2.600   2.331  17.485
  688MPD2    C410212   2.618   2.467  17.503
  688MPD2    C510213   2.561   2.534  17.602
  688MPD2     H10214   2.478   2.164  17.551
  688MPD2    H110215   2.689   2.525  17.445
  688MPD2    H210216   2.434   2.537  17.752
  688MPD2    H310217   2.591   2.636  17.621
  688MPD2     N10218   2.681   2.264  17.391
  688MPD2    H510219   2.732   2.330  17.333
  688MPD2    N110220   2.356   2.268  17.746
  688MPD2    H710221   2.378   2.171  17.762
  689TMC3    C110222   2.237   2.252  17.958
  689TMC3    C210223   2.184   2.333  18.056
  689TMC3    C310224   2.147   2.270  18.174
  689TMC3    C410225   2.233   2.117  17.949
  689TMC3    C510226   2.182   2.058  18.065
  689TMC3    C610227   2.152   2.130  18.173
  689TMC3     C10228   2.278   2.330  17.840
  689TMC3     O10229   2.239   2.448  17.838
  689TMC3     H10230   2.159   2.438  18.051
  689TMC3    H110231   2.267   2.067  17.860
  689TMC3    H210232   2.118   2.073  18.260
  689TMC3    C710233   2.180   1.916  18.083
  689TMC3    C810234   2.165   2.327  18.311
  689TMC3    O110235   2.167   1.872  18.196
  689TMC3    O210236   2.143   2.256  18.406
  690MPD2     C10237   0.223   4.242  16.203
  690MPD2    C110238   0.193   4.182  16.082
  690MPD2    C210239   0.285   4.168  15.977
  690MPD2    C310240   0.406   4.239  15.988
  690MPD2    C410241   0.432   4.302  16.109
  690MPD2    C510242   0.345   4.293  16.215
  690MPD2     H10243   0.249   4.115  15.890
  690MPD2    H110244   0.518   4.365  16.126
  690MPD2    H210245   0.160   4.241  16.291
  690MPD2    H310246   0.375   4.344  16.306
  690MPD2     N10247   0.487   4.248  15.864
  690MPD2    H510248   0.460   4.176  15.798
  690MPD2    N110249   0.073   4.106  16.064
  690MPD2    H710250   0.070   4.054  15.977
  691TMC3    C110251   4.656   3.996  16.114
  691TMC3    C210252   4.522   4.023  16.144
  691TMC3    C310253   4.440   3.916  16.114
  691TMC3    C410254   4.704   3.868  16.080
  691TMC3    C510255   4.616   3.771  16.062
  691TMC3    C610256   4.479   3.790  16.081
  691TMC3     C10257   4.748   4.108  16.147
  691TMC3     O10258   4.714   4.186  16.237
  691TMC3     H10259   4.494   4.120  16.183
  691TMC3    H110260   0.031   3.864  16.073
  691TMC3    H210261   4.410   3.711  16.052
  691TMC3    C710262   4.667   3.637  16.023
  691TMC3    C810263   4.293   3.930  16.134
  691TMC3    O110264   0.005   3.622  16.036
  691TMC3    O210265   4.234   3.824  16.146
  692TMC3    C110266   1.815   0.208  16.091
  692TMC3    C210267   1.946   0.227  16.143
  692TMC3    C310268   2.020   0.116  16.149
  692TMC3    C410269   1.763   0.083  16.058
  692TMC3    C510270   1.839   4.750  16.083
  692TMC3    C610271   1.966   4.769  16.127
  692TMC3     C10272   1.714   0.289  16.155
  692TMC3     O10273   1.596   0.249  16.154
  692TMC3     H10274   2.004   0.317  16.126
  692TMC3    H110275   1.660   0.074  16.025
  692TMC3    H210276   2.030   4.682  16.131
  692TMC3    C710277   1.786   4.639  16.013
  692TMC3    C810278   2.116   0.119  16.264
  692TMC3    O110279   1.711   4.653  15.919
  692TMC3    O210280   2.188   0.014  16.276
  693MPD2     C10281   1.534   3.003  11.220
  693MPD2    C110282   1.444   2.912  11.168
  693MPD2    C210283   1.494   2.799  11.113
  693MPD2    C310284   1.622   2.761  11.110
  693MPD2    C410285   1.713   2.842  11.171
  693MPD2    C510286   1.664   2.961  11.222
  693MPD2     H10287   1.422   2.725  11.082
  693MPD2    H110288   1.817   2.810  11.170
  693MPD2    H210289   1.514   3.088  11.283
  693MPD2    H310290   1.731   3.028  11.274
  693MPD2     N10291   1.668   2.633  11.065
  693MPD2    H510292   1.769   2.617  11.067
  693MPD2    N110293   1.306   2.951  11.172
  693MPD2    H710294   1.278   3.021  11.240
  694TMC3    C110295   1.074   2.920  11.146
  694TMC3    C210296   0.974   2.895  11.058
  694TMC3    C310297   0.867   2.823  11.095
  694TMC3    C410298   1.065   2.891  11.281
  694TMC3    C510299   0.944   2.850  11.325
  694TMC3    C610300   0.842   2.813  11.234
  694TMC3     C10301   1.209   2.893  11.095
  694TMC3     O10302   1.211   2.833  10.988
  694TMC3     H10303   0.996   2.914  10.953
  694TMC3    H110304   1.154   2.885  11.343
  694TMC3    H210305   0.761   2.759  11.284
  694TMC3    C710306   0.920   2.882  11.466
  694TMC3    C810307   0.762   2.791  11.000
  694TMC3    O110308   1.004   2.954  11.511
  694TMC3    O210309   0.690   2.697  11.034
  695MPD2     C10310   2.243   0.167  13.800
  695MPD2    C110311   2.161   0.116  13.897
  695MPD2    C210312   2.025   0.143  13.875
  695MPD2    C310313   1.970   0.202  13.767
  695MPD2    C410314   2.057   0.249  13.668
  695MPD2    C510315   2.198   0.228  13.686
  695MPD2     H10316   1.954   0.096  13.942
  695MPD2    H110317   2.019   0.289  13.575
  695MPD2    H210318   2.350   0.148  13.807
  695MPD2    H310319   2.272   0.248  13.610
  695MPD2     N10320   1.827   0.224  13.765
  695MPD2    H510321   1.766   0.171  13.826
  695MPD2    N110322   2.196   0.053  14.014
  695MPD2    H710323   2.115   0.019  14.064
  696TMC3    C110324   1.612   0.272  13.694
  696TMC3    C210325   1.583   0.182  13.792
  696TMC3    C310326   1.467   0.194  13.868
  696TMC3    C410327   1.528   0.375  13.668
  696TMC3    C510328   1.415   0.386  13.733
  696TMC3    C610329   1.382   0.299  13.833
  696TMC3     C10330   1.758   0.296  13.675
  696TMC3     O10331   1.793   0.382  13.597
  696TMC3     H10332   1.635   0.088  13.803
  696TMC3    H110333   1.563   0.443  13.591
  696TMC3    H210334   1.288   0.303  13.887
  696TMC3    C710335   1.357   0.520  13.743
  696TMC3    C810336   1.425   0.058  13.906
  696TMC3    O110337   1.379   0.602  13.658
  696TMC3    O210338   1.446   4.755  13.821
  697MPD2     C10339   1.519   1.822  15.966
  697MPD2    C110340   1.479   1.770  15.850
  697MPD2    C210341   1.462   1.852  15.737
  697MPD2    C310342   1.482   1.986  15.746
  697MPD2    C410343   1.516   2.041  15.866
  697MPD2    C510344   1.538   1.961  15.974
  697MPD2     H10345   1.434   1.800  15.646
  697MPD2    H110346   1.531   2.148  15.871
  697MPD2    H210347   1.510   1.771  16.061
  697MPD2    H310348   1.571   2.013  16.064
  697MPD2     N10349   1.471   2.064  15.624
  697MPD2    H510350   1.417   2.016  15.552
  697MPD2    N110351   1.462   1.626  15.831
  697MPD2    H710352   1.426   1.602  15.740
  698TMC3    C110353   1.491   2.252  15.476
  698TMC3    C210354   1.516   2.389  15.469
  698TMC3    C310355   1.591   2.429  15.362
  698TMC3    C410356   1.531   2.171  15.377
  698TMC3    C510357   1.602   2.218  15.273
  698TMC3    C610358   1.642   2.349  15.261
  698TMC3     C10359   1.491   2.204  15.613
  698TMC3     O10360   1.511   2.282  15.705
  698TMC3     H10361   1.488   2.454  15.551
  698TMC3    H110362   1.496   2.069  15.373
  698TMC3    H210363   1.686   2.394  15.173
  698TMC3    C710364   1.599   2.142  15.150
  698TMC3    C810365   1.554   2.555  15.309
  698TMC3    O110366   1.505   2.072  15.124
  698TMC3    O210367   1.438   2.581  15.313
  699TMC3    C110368   1.575   0.235  13.359
  699TMC3    C210369   1.642   0.122  13.395
  699TMC3    C310370   1.566   0.014  13.427
  699TMC3    C410371   1.441   0.245  13.364
  699TMC3    C510372   1.369   0.133  13.399
  699TMC3    C610373   1.429   0.020  13.439
  699TMC3     C10374   1.650   0.344  13.310
  699TMC3     O10375   1.601   0.455  13.334
  699TMC3     H10376   1.751   0.121  13.398
  699TMC3    H110377   1.392   0.334  13.325
  699TMC3    H210378   1.367   4.720  13.476
  699TMC3    C710379   1.225   0.158  13.427
  699TMC3    C810380   1.627   4.693  13.504
  699TMC3    O110381   1.185   0.271  13.415
  699TMC3    O210382   1.549   4.613  13.555
  700TMC3    C110383   0.463   2.275  17.200
  700TMC3    C210384   0.513   2.145  17.214
  700TMC3    C310385   0.587   2.122  17.326
  700TMC3    C410386   0.457   2.364  17.308
  700TMC3    C510387   0.528   2.325  17.418
  700TMC3    C610388   0.590   2.206  17.431
  700TMC3     C10389   0.443   2.328  17.065
  700TMC3     O10390   0.399   2.264  16.972
  700TMC3     H10391   0.514   2.072  17.134
  700TMC3    H110392   0.424   2.464  17.283
  700TMC3    H210393   0.634   2.177  17.526
  700TMC3    C710394   0.531   2.421  17.527
  700TMC3    C810395   0.684   2.013  17.329
  700TMC3    O110396   0.627   2.430  17.600
  700TMC3    O210397   0.792   2.045  17.381
  701TMC3    C110398   0.830   0.909  15.903
  701TMC3    C210399   0.836   0.850  15.781
  701TMC3    C310400   0.915   0.916  15.687
  701TMC3    C410401   0.897   1.028  15.939
  701TMC3    C510402   0.979   1.077  15.842
  701TMC3    C610403   0.988   1.025  15.716
  701TMC3     C10404   0.713   0.863  15.976
  701TMC3     O10405   0.643   0.949  16.030
  701TMC3     H10406   0.777   0.763  15.755
  701TMC3    H110407   0.874   1.065  16.038
  701TMC3    H210408   1.051   1.076  15.644
  701TMC3    C710409   1.032   1.213  15.856
  701TMC3    C810410   0.907   0.887  15.546
  701TMC3    O110411   1.073   1.275  15.757
  701TMC3    O210412   0.992   0.929  15.469
  702MPD2     C10413   0.377   3.589  10.815
  702MPD2    C110414   0.284   3.625  10.914
  702MPD2    C210415   0.220   3.748  10.909
  702MPD2    C310416   0.253   3.837  10.804
  702MPD2    C410417   0.339   3.798  10.704
  702MPD2    C510418   0.399   3.674  10.710
  702MPD2     H10419   0.163   3.783  10.994
  702MPD2    H110420   0.358   3.857  10.616
  702MPD2    H210421   0.424   3.491  10.819
  702MPD2    H310422   0.460   3.645  10.625
  702MPD2     N10423   0.210   3.973  10.804
  702MPD2    H510424   0.258   4.035  10.739
  702MPD2    N110425   0.259   3.539  11.025
  702MPD2    H710426   0.181   3.564  11.084
  703TMC3    C110427   0.162   4.121  10.986
  703TMC3    C210428   0.086   4.134  11.100
  703TMC3    C310429   0.157   4.148  11.214
  703TMC3    C410430   0.301   4.136  10.981
  703TMC3    C510431   0.365   4.155  11.102
  703TMC3    C610432   0.298   4.157  11.220
  703TMC3     C10433   0.114   4.016  10.886
  703TMC3     O10434   0.008   3.960  10.914
  703TMC3     H10435   4.762   4.106  11.107
  703TMC3    H110436   0.354   4.156  10.889
  703TMC3    H210437   0.359   4.141  11.308
  703TMC3    C710438   0.497   4.216  11.108
  703TMC3    C810439   0.096   4.060  11.324
  703TMC3    O110440   0.555   4.222  11.001
  703TMC3    O210441   0.173   4.001  11.398
  704TMC3    C110442   3.153   1.907  13.275
  704TMC3    C210443   3.271   1.926  13.211
  704TMC3    C310444   3.367   1.824  13.212
  704TMC3    C410445   3.139   1.791  13.339
  704TMC3    C510446   3.230   1.693  13.338
  704TMC3    C610447   3.343   1.702  13.267
  704TMC3     C10448   3.038   1.947  13.199
  704TMC3     O10449   2.949   2.002  13.261
  704TMC3     H10450   3.283   2.011  13.145
  704TMC3    H110451   3.040   1.758  13.369
  704TMC3    H210452   3.403   1.614  13.248
  704TMC3    C710453   3.176   1.563  13.347
  704TMC3    C810454   3.442   1.828  13.090
  704TMC3    O110455   3.184   1.497  13.242
  704TMC3    O210456   3.411   1.913  13.004
  705MPD2     C10457   2.187   4.304  16.608
  705MPD2    C110458   2.202   4.444  16.621
  705MPD2    C210459   2.115   4.516  16.701
  705MPD2    C310460   2.001   4.459  16.760
  705MPD2    C410461   1.984   4.329  16.729
  705MPD2    C510462   2.072   4.251  16.654
  705MPD2     H10463   2.142   4.618  16.723
  705MPD2    H110464   1.898   4.275  16.768
  705MPD2    H210465   2.260   4.239  16.561
  705MPD2    H310466   2.057   4.143  16.649
  705MPD2     N10467   1.905   4.526  16.830
  705MPD2    H510468   1.829   4.460  16.845
  705MPD2    N110469   2.318   4.503  16.566
  705MPD2    H710470   2.335   4.599  16.595
  706TMC3    C110471   2.642   4.521  16.231
  706TMC3    C210472   2.613   4.646  16.202
  706TMC3    C310473   2.522   4.714  16.278
  706TMC3    C410474   2.577   4.461  16.334
  706TMC3    C510475   2.491   4.531  16.419
  706TMC3    C610476   2.462   4.656  16.381
  706TMC3     C10477   2.719   4.439  16.142
  706TMC3     O10478   2.787   4.353  16.199
  706TMC3     H10479   2.660   4.698  16.120
  706TMC3    H110480   2.598   4.356  16.352
  706TMC3    H210481   2.378   4.700  16.433
  706TMC3    C710482   2.385   4.447  16.464
  706TMC3    C810483   2.528   0.078  16.272
  706TMC3    O110484   2.360   4.341  16.397
  706TMC3    O210485   2.542   0.125  16.158
  707TMC3    C110486   4.285   4.097  18.313
  707TMC3    C210487   4.258   4.103  18.448
  707TMC3    C310488   4.163   4.010  18.492
  707TMC3    C410489   4.216   4.028  18.220
  707TMC3    C510490   4.137   3.930  18.268
  707TMC3    C610491   4.115   3.915  18.400
  707TMC3     C10492   4.402   4.159  18.265
  707TMC3     O10493   4.417   4.277  18.301
  707TMC3     H10494   4.315   4.167  18.513
  707TMC3    H110495   4.254   4.028  18.119
  707TMC3    H210496   4.054   3.832  18.433
  707TMC3    C710497   4.080   3.833  18.187
  707TMC3    C810498   4.173   3.973  18.634
  707TMC3    O110499   4.044   3.726  18.242
  707TMC3    O210500   4.246   4.048  18.698
  708MPD2     C10501   0.389   3.055  14.397
  708MPD2    C110502   0.288   3.089  14.491
  708MPD2    C210503   0.239   2.988  14.577
  708MPD2    C310504   0.297   2.863  14.574
  708MPD2    C410505   0.395   2.833  14.485
  708MPD2    C510506   0.441   2.925  14.397
  708MPD2     H10507   0.158   3.027  14.637
  708MPD2    H110508   0.422   2.728  14.474
  708MPD2    H210509   0.406   3.116  14.309
  708MPD2    H310510   0.513   2.890  14.325
  708MPD2     N10511   0.250   2.751  14.647
  708MPD2    H510512   0.280   2.662  14.609
  708MPD2    N110513   0.230   3.211  14.469
  708MPD2    H710514   0.281   3.274  14.407
  709TMC3    C110515   0.083   3.390  14.457
  709TMC3    C210516   0.046   3.389  14.327
  709TMC3    C310517   4.714   3.450  14.294
  709TMC3    C410518   0.020   3.469  14.547
  709TMC3    C510519   4.676   3.506  14.509
  709TMC3    C610520   4.630   3.508  14.386
  709TMC3     C10521   0.110   3.256  14.517
  709TMC3     O10522   0.014   3.204  14.569
  709TMC3     H10523   0.098   3.322  14.259
  709TMC3    H110524   0.051   3.453  14.650
  709TMC3    H210525   4.528   3.523  14.352
  709TMC3    C710526   4.579   3.495  14.625
  709TMC3    C810527   4.667   3.414  14.165
  709TMC3    O110528   4.618   3.528  14.735
  709TMC3    O210529   4.547   3.408  14.154
  710TMC3    C110530   1.386   4.766  18.638
  710TMC3    C210531   1.397   4.757  18.499
  710TMC3    C310532   1.525   4.732  18.446
  710TMC3    C410533   1.490   4.736  18.719
  710TMC3    C510534   1.606   4.700  18.662
  710TMC3    C610535   1.627   4.700  18.528
  710TMC3     C10536   1.252   4.767  18.690
  710TMC3     O10537   1.166   4.736  18.609
  710TMC3     H10538   1.318   0.005  18.432
  710TMC3    H110539   1.489   4.748  18.826
  710TMC3    H210540   1.719   4.658  18.489
  710TMC3    C710541   1.699   4.661  18.761
  710TMC3    C810542   1.543   4.688  18.313
  710TMC3    O110543   1.658   4.631  18.874
  710TMC3    O210544   1.655   4.677  18.272
  711TMC3    C110545   1.317   0.884  15.235
  711TMC3    C210546   1.311   0.899  15.371
  711TMC3    C310547   1.428   0.914  15.445
  711TMC3    C410548   1.437   0.877  15.176
  711TMC3    C510549   1.553   0.873  15.250
  711TMC3    C610550   1.550   0.915  15.379
  711TMC3     C10551   1.223   0.783  15.190
  711TMC3     O10552   1.225   0.763  15.073
  711TMC3     H10553   1.217   0.901  15.425
  711TMC3    H110554   1.440   0.841  15.074
  711TMC3    H210555   1.647   0.929  15.425
  711TMC3    C710556   1.617   0.738  15.262
  711TMC3    C810557   1.422   0.816  15.545
  711TMC3    O110558   1.715   0.735  15.329
  711TMC3    O210559   1.318   0.755  15.570
  712MPD2     C10560   2.318   1.780  13.865
  712MPD2    C110561   2.454   1.756  13.880
  712MPD2    C210562   2.534   1.864  13.851
  712MPD2    C310563   2.490   1.980  13.798
  712MPD2    C410564   2.365   1.989  13.755
  712MPD2    C510565   2.276   1.898  13.804
  712MPD2     H10566   2.638   1.847  13.876
  712MPD2    H110567   2.320   2.072  13.702
  712MPD2    H210568   2.230   1.719  13.878
  712MPD2    H310569   2.173   1.911  13.774
  712MPD2     N10570   2.565   2.098  13.787
  712MPD2    H510571   2.522   2.176  13.739
  712MPD2    N110572   2.506   1.633  13.921
  712MPD2    H710573   2.605   1.617  13.909
  713TMC3    C110574   2.747   2.248  13.818
  713TMC3    C210575   2.879   2.256  13.818
  713TMC3    C310576   2.937   2.371  13.769
  713TMC3    C410577   2.665   2.350  13.775
  713TMC3    C510578   2.725   2.465  13.719
  713TMC3    C610579   2.861   2.475  13.723
  713TMC3     C10580   2.685   2.122  13.848
  713TMC3     O10581   2.754   2.056  13.930
  713TMC3     H10582   2.942   2.170  13.837
  713TMC3    H110583   2.559   2.345  13.798
  713TMC3    H210584   2.906   2.567  13.687
  713TMC3    C710585   2.656   2.593  13.707
  713TMC3    C810586   3.070   2.410  13.817
  713TMC3    O110587   2.723   2.691  13.695
  713TMC3    O210588   3.115   2.511  13.760
  714MPD2     C10589   0.061   1.065  19.857
  714MPD2    C110590   0.066   0.973  19.754
  714MPD2    C210591   4.752   0.984  19.653
  714MPD2    C310592   4.673   1.096  19.644
  714MPD2    C410593   4.675   1.193  19.746
  714MPD2    C510594   4.758   1.171  19.850
  714MPD2     H10595   4.752   0.909  19.574
  714MPD2    H110596   4.617   1.284  19.756
  714MPD2    H210597   0.122   1.050  19.945
  714MPD2    H310598   4.751   1.242  19.931
  714MPD2     N10599   4.575   1.102  19.540
  714MPD2    H510600   4.574   1.019  19.481
  714MPD2    N110601   0.173   0.886  19.757
  714MPD2    H710602   0.229   0.885  19.841
  715TMC3    C110603   0.338   0.728  19.713
  715TMC3    C210604   0.368   0.598  19.699
  715TMC3    C310605   0.493   0.557  19.725
  715TMC3    C410606   0.429   0.821  19.756
  715TMC3    C510607   0.559   0.781  19.777
  715TMC3    C610608   0.592   0.645  19.772
  715TMC3     C10609   0.213   0.791  19.665
  715TMC3     O10610   0.160   0.756  19.561
  715TMC3     H10611   0.297   0.533  19.650
  715TMC3    H110612   0.405   0.926  19.741
  715TMC3    H210613   0.694   0.611  19.785
  715TMC3    C710614   0.640   0.856  19.865
  715TMC3    C810615   0.532   0.416  19.686
  715TMC3    O110616   0.744   0.802  19.900
  715TMC3    O210617   0.444   0.344  19.643
  716MPD2     C10618   0.351   3.709  10.323
  716MPD2    C110619   0.379   3.756  10.196
  716MPD2    C210620   0.388   3.665  10.084
  716MPD2    C310621   0.371   3.526  10.107
  716MPD2    C410622   0.348   3.484  10.236
  716MPD2    C510623   0.342   3.571  10.333
  716MPD2     H10624   0.386   3.702   9.982
  716MPD2    H110625   0.356   3.379  10.263
  716MPD2    H210626   0.339   3.756  10.420
  716MPD2    H310627   0.317   3.526  10.428
  716MPD2     N10628   0.375   3.436   9.998
  716MPD2    H510629   0.383   3.473   9.904
  716MPD2    N110630   0.372   3.890  10.184
  716MPD2    H710631   0.340   3.937  10.269
  717TMC3    C110632   0.348   3.232   9.880
  717TMC3    C210633   0.289   3.304   9.782
  717TMC3    C310634   0.262   3.245   9.662
  717TMC3    C410635   0.386   3.099   9.853
  717TMC3    C510636   0.362   3.036   9.728
  717TMC3    C610637   0.299   3.111   9.630
  717TMC3     C10638   0.380   3.297  10.013
  717TMC3     O10639   0.390   3.220  10.109
  717TMC3     H10640   0.270   3.411   9.790
  717TMC3    H110641   0.438   3.040   9.928
  717TMC3    H210642   0.257   3.062   9.543
  717TMC3    C710643   0.441   2.914   9.700
  717TMC3    C810644   0.199   3.325   9.563
  717TMC3    O110645   0.516   2.872   9.784
  717TMC3    O210646   0.158   3.433   9.595
  718MPD2     C10647   4.360   2.568  13.232
  718MPD2    C110648   4.247   2.531  13.162
  718MPD2    C210649   4.193   2.407  13.181
  718MPD2    C310650   4.246   2.327  13.285
  718MPD2    C410651   4.342   2.378  13.369
  718MPD2    C510652   4.405   2.493  13.338
  718MPD2     H10653   4.120   2.359  13.117
  718MPD2    H110654   4.381   2.313  13.446
  718MPD2    H210655   4.399   2.667  13.209
  718MPD2    H310656   4.487   2.529  13.399
  718MPD2     N10657   4.199   2.193  13.283
  718MPD2    H510658   4.123   2.174  13.219
  718MPD2    N110659   4.220   2.618  13.047
  718MPD2    H710660   4.286   2.695  13.050
  719TMC3    C110661   4.149   2.654  12.833
  719TMC3    C210662   4.138   2.541  12.756
  719TMC3    C310663   4.244   2.502  12.683
  719TMC3    C410664   4.258   2.734  12.829
  719TMC3    C510665   4.368   2.688  12.763
  719TMC3    C610666   4.359   2.562  12.691
  719TMC3     C10667   4.108   2.613  12.968
  719TMC3     O10668   4.008   2.539  12.984
  719TMC3     H10669   4.052   2.476  12.761
  719TMC3    H110670   4.249   2.830  12.879
  719TMC3    H210671   4.442   2.525  12.633
  719TMC3    C710672   4.490   2.768  12.738
  719TMC3    C810673   4.262   2.361  12.682
  719TMC3    O110674   4.572   2.723  12.658
  719TMC3    O210675   4.362   2.301  12.726
  720MPD2     C10676   2.412   4.023  14.330
  720MPD2    C110677   2.524   4.028  14.252
  720MPD2    C210678   2.649   3.981  14.293
  720MPD2    C310679   2.659   3.938  14.425
  720MPD2    C410680   2.548   3.939  14.509
  720MPD2    C510681   2.423   3.979  14.458
  720MPD2     H10682   2.733   3.988  14.225
  720MPD2    H110683   2.551   3.913  14.614
  720MPD2    H210684   2.319   4.073  14.303
  720MPD2    H310685   2.333   3.961  14.516
  720MPD2     N10686   2.794   3.907  14.466
  720MPD2    H510687   2.866   3.910  14.394
  720MPD2    N110688   2.528   4.082  14.120
  720MPD2    H710689   2.620   4.088  14.079
  721TMC3    C110690   2.975   3.889  14.619
  721TMC3    C210691   3.014   3.870  14.752
  721TMC3    C310692   3.147   3.874  14.780
  721TMC3    C410693   3.066   3.909  14.521
  721TMC3    C510694   3.199   3.921  14.560
  721TMC3    C610695   3.246   3.903  14.685
  721TMC3     C10696   2.831   3.881  14.597
  721TMC3     O10697   2.759   3.878  14.698
  721TMC3     H10698   2.936   3.847  14.823
  721TMC3    H110699   3.041   3.917  14.416
  721TMC3    H210700   3.350   3.909  14.715
  721TMC3    C710701   3.302   3.893  14.449
  721TMC3    C810702   3.189   3.849  14.918
  721TMC3    O110703   3.337   3.980  14.375
  721TMC3    O210704   3.277   3.766  14.930
  722MPD2     C10705   1.451   2.599  13.337
  722MPD2    C110706   1.413   2.724  13.391
  722MPD2    C210707   1.285   2.777  13.365
  722MPD2    C310708   1.189   2.704  13.295
  722MPD2    C410709   1.230   2.584  13.244
  722MPD2    C510710   1.356   2.533  13.272
  722MPD2     H10711   1.254   2.870  13.413
  722MPD2    H110712   1.177   2.518  13.176
  722MPD2    H210713   1.544   2.551  13.368
  722MPD2    H310714   1.361   2.433  13.231
  722MPD2     N10715   1.046   2.746  13.284
  722MPD2    H510716   1.029   2.830  13.338
  722MPD2    N110717   1.504   2.812  13.453
  722MPD2    H710718   1.470   2.903  13.485
  723TMC3    C110719   0.816   2.717  13.226
  723TMC3    C210720   0.725   2.619  13.206
  723TMC3    C310721   0.589   2.650  13.200
  723TMC3    C410722   0.781   2.850  13.256
  723TMC3    C510723   0.647   2.877  13.244
  723TMC3    C610724   0.553   2.782  13.217
  723TMC3     C10725   0.952   2.684  13.210
  723TMC3     O10726   0.970   2.599  13.121
  723TMC3     H10727   0.760   2.521  13.178
  723TMC3    H110728   0.861   2.923  13.266
  723TMC3    H210729   0.448   2.811  13.218
  723TMC3    C710730   0.609   3.013  13.215
  723TMC3    C810731   0.494   2.544  13.247
  723TMC3    O110732   0.516   3.034  13.137
  723TMC3    O210733   0.386   2.579  13.286
  724TMC3    C110734   1.693   0.630  10.607
  724TMC3    C210735   1.631   0.636  10.489
  724TMC3    C310736   1.713   0.653  10.380
  724TMC3    C410737   1.827   0.652  10.623
  724TMC3    C510738   1.906   0.656  10.514
  724TMC3    C610739   1.848   0.647  10.388
  724TMC3     C10740   1.619   0.587  10.724
  724TMC3     O10741   1.680   0.572  10.830
  724TMC3     H10742   1.527   0.667  10.481
  724TMC3    H110743   1.871   0.650  10.722
  724TMC3    H210744   1.905   0.653  10.296
  724TMC3    C710745   2.015   0.751  10.508
  724TMC3    C810746   1.661   0.751  10.283
  724TMC3    O110747   2.029   0.818  10.401
  724TMC3    O210748   1.545   0.743  10.247
  725TMC3    C110749   3.389   4.235  13.219
  725TMC3    C210750   3.382   4.179  13.090
  725TMC3    C310751   3.292   4.076  13.059
  725TMC3    C410752   3.320   4.171  13.315
  725TMC3    C510753   3.246   4.063  13.287
  725TMC3    C610754   3.220   4.019  13.159
  725TMC3     C10755   3.506   4.304  13.250
  725TMC3     O10756   3.486   4.409  13.312
  725TMC3     H10757   3.444   4.205  13.005
  725TMC3    H110758   3.331   4.194  13.420
  725TMC3    H210759   3.161   3.931  13.134
  725TMC3    C710760   3.172   4.000  13.400
  725TMC3    C810761   3.253   4.048  12.923
  725TMC3    O110762   3.114   4.082  13.471
  725TMC3    O210763   3.187   3.945  12.903
  726MPD2     C10764   0.889   0.919  10.570
  726MPD2    C110765   0.922   1.006  10.671
  726MPD2    C210766   0.832   1.025  10.775
  726MPD2    C310767   0.712   0.945  10.780
  726MPD2    C410768   0.696   0.849  10.682
  726MPD2    C510769   0.783   0.834  10.584
  726MPD2     H10770   0.858   1.095  10.853
  726MPD2    H110771   0.602   0.793  10.681
  726MPD2    H210772   0.959   0.899  10.490
  726MPD2    H310773   0.763   0.755  10.512
  726MPD2     N10774   0.613   0.957  10.879
  726MPD2    H510775   0.528   0.902  10.874
  726MPD2    N110776   1.040   1.087  10.665
  726MPD2    H710777   1.060   1.149  10.742
  727TMC3    C110778   1.225   1.189  10.577
  727TMC3    C210779   1.251   1.234  10.697
  727TMC3    C310780   1.275   1.363  10.727
  727TMC3    C410781   1.219   1.284  10.478
  727TMC3    C510782   1.234   1.420  10.501
  727TMC3    C610783   1.269   1.460  10.630
  727TMC3     C10784   1.134   1.083  10.566
  727TMC3     O10785   1.113   1.049  10.448
  727TMC3     H10786   1.271   1.158  10.772
  727TMC3    H110787   1.184   1.255  10.379
  727TMC3    H210788   1.267   1.566  10.651
  727TMC3    C710789   1.173   1.518  10.409
  727TMC3    C810790   1.326   1.398  10.857
  727TMC3    O110791   1.082   1.469  10.346
  727TMC3    O210792   1.393   1.319  10.922
  728TMC3    C110793   0.668   4.305  15.727
  728TMC3    C210794   0.795   4.368  15.726
  728TMC3    C310795   0.858   4.358  15.610
  728TMC3    C410796   0.601   4.261  15.615
  728TMC3    C510797   0.678   4.254  15.501
  728TMC3    C610798   0.808   4.296  15.498
  728TMC3     C10799   0.605   4.322  15.852
  728TMC3     O10800   0.654   4.402  15.926
  728TMC3     H10801   0.838   4.397  15.821
  728TMC3    H110802   0.493   4.249  15.611
  728TMC3    H210803   0.866   4.286  15.407
  728TMC3    C710804   0.598   4.242  15.376
  728TMC3    C810805   0.998   4.394  15.619
  728TMC3    O110806   0.498   4.169  15.379
  728TMC3    O210807   1.039   4.435  15.729
  729MPD2     C10808   2.868   0.431  16.889
  729MPD2    C110809   2.983   0.456  16.956
  729MPD2    C210810   2.981   0.446  17.094
  729MPD2    C310811   2.860   0.412  17.158
  729MPD2    C410812   2.752   0.373  17.089
  729MPD2    C510813   2.754   0.388  16.955
  729MPD2     H10814   3.066   0.481  17.152
  729MPD2    H110815   2.665   0.321  17.127
  729MPD2    H210816   2.847   0.460  16.787
  729MPD2    H310817   2.664   0.369  16.898
  729MPD2     N10818   2.843   0.415  17.300
  729MPD2    H510819   2.745   0.403  17.324
  729MPD2    N110820   3.091   0.502  16.882
  729MPD2    H710821   3.065   0.539  16.791
  730TMC3    C110822   2.896   0.506  17.505
  730TMC3    C210823   2.992   0.517  17.598
  730TMC3    C310824   2.965   0.616  17.694
  730TMC3    C410825   2.780   0.572  17.506
  730TMC3    C510826   2.757   0.669  17.598
  730TMC3    C610827   2.849   0.690  17.696
  730TMC3     C10828   2.944   0.446  17.385
  730TMC3     O10829   3.067   0.433  17.372
  730TMC3     H10830   3.085   0.461  17.591
  730TMC3    H110831   2.715   0.565  17.420
  730TMC3    H210832   2.831   0.764  17.774
  730TMC3    C710833   2.704   0.786  17.538
  730TMC3    C810834   3.083   0.694  17.716
  730TMC3    O110835   2.722   0.804  17.419
  730TMC3    O210836   3.190   0.639  17.697
  731MPD2     C10837   2.902   3.700  12.805
  731MPD2    C110838   2.981   3.598  12.752
  731MPD2    C210839   3.021   3.488  12.826
  731MPD2    C310840   2.980   3.474  12.959
  731MPD2    C410841   2.907   3.578  13.016
  731MPD2    C510842   2.861   3.677  12.939
  731MPD2     H10843   3.085   3.408  12.791
  731MPD2    H110844   2.889   3.581  13.122
  731MPD2    H210845   2.867   3.786  12.750
  731MPD2    H310846   2.799   3.755  12.982
  731MPD2     N10847   3.012   3.355  13.027
  731MPD2    H510848   3.081   3.299  12.977
  731MPD2    N110849   3.015   3.607  12.617
  731MPD2    H710850   2.991   3.697  12.576
  732TMC3    C110851   3.095   3.546  12.406
  732TMC3    C210852   3.041   3.452  12.323
  732TMC3    C310853   3.052   3.480  12.192
  732TMC3    C410854   3.136   3.675  12.364
  732TMC3    C510855   3.155   3.688  12.231
  732TMC3    C610856   3.121   3.591  12.142
  732TMC3     C10857   3.067   3.502  12.543
  732TMC3     O10858   3.092   3.386  12.571
  732TMC3     H10859   3.019   3.350  12.354
  732TMC3    H110860   3.166   3.744  12.442
  732TMC3    H210861   3.138   3.612  12.037
  732TMC3    C710862   3.270   3.770  12.196
  732TMC3    C810863   2.952   3.417  12.105
  732TMC3    O110864   3.287   3.788  12.077
  732TMC3    O210865   2.963   3.398  11.985
  733TMC3    C110866   4.058   1.771  13.361
  733TMC3    C210867   4.124   1.878  13.409
  733TMC3    C310868   4.189   1.963  13.322
  733TMC3    C410869   4.040   1.760  13.219
  733TMC3    C510870   4.102   1.853  13.136
  733TMC3    C610871   4.186   1.949  13.184
  733TMC3     C10872   3.935   1.755  13.425
  733TMC3     O10873   3.837   1.788  13.360
  733TMC3     H10874   4.143   1.889  13.515
  733TMC3    H110875   3.960   1.699  13.178
  733TMC3    H210876   4.238   2.021  13.121
  733TMC3    C710877   4.055   1.860  13.007
  733TMC3    C810878   4.242   2.091  13.367
  733TMC3    O110879   3.945   1.812  12.977
  733TMC3    O210880   4.310   2.095  13.469
  734MPD2     C10881   0.724   4.752  12.720
  734MPD2    C110882   0.781   4.625  12.726
  734MPD2    C210883   0.898   4.603  12.657
  734MPD2    C310884   0.961   4.707  12.584
  734MPD2    C410885   0.902   0.051  12.586
  734MPD2    C510886   0.784   0.070  12.643
  734MPD2     H10887   0.946   4.505  12.654
  734MPD2    H110888   0.944   0.136  12.534
  734MPD2    H210889   0.637   4.781  12.778
  734MPD2    H310890   0.738   0.168  12.636
  734MPD2     N10891   1.084   4.689  12.518
  734MPD2    H510892   1.125   4.600  12.542
  734MPD2    N110893   0.704   4.526  12.799
  734MPD2    H710894   0.616   4.556  12.841
  735TMC3    C110895   0.640   4.319  12.873
  735TMC3    C210896   0.547   4.294  12.775
  735TMC3    C310897   0.525   4.168  12.720
  735TMC3    C410898   0.689   4.218  12.946
  735TMC3    C510899   0.660   4.090  12.900
  735TMC3    C610900   0.588   4.063  12.783
  735TMC3     C10901   0.742   4.399  12.808
  735TMC3     O10902   0.819   4.331  12.743
  735TMC3     H10903   0.524   4.373  12.704
  735TMC3    H110904   0.760   4.229  13.027
  735TMC3    H210905   0.577   3.964  12.740
  735TMC3    C710906   0.760   3.991  12.930
  735TMC3    C810907   0.537   4.170  12.574
  735TMC3    O110908   0.873   4.033  12.949
  735TMC3    O210909   0.449   4.111  12.515
  736MPD2     C10910   0.749   3.626  12.898
  736MPD2    C110911   0.807   3.754  12.888
  736MPD2    C210912   0.932   3.771  12.834
  736MPD2    C310913   1.009   3.659  12.799
  736MPD2    C410914   0.955   3.535  12.820
  736MPD2    C510915   0.829   3.520  12.873
  736MPD2     H10916   0.968   3.872  12.817
  736MPD2    H110917   1.022   3.455  12.791
  736MPD2    H210918   0.650   3.626  12.942
  736MPD2    H310919   0.790   3.420  12.885
  736MPD2     N10920   1.138   3.669  12.739
  736MPD2    H510921   1.193   3.583  12.733
  736MPD2    N110922   0.719   3.862  12.919
  736MPD2    H710923   0.621   3.835  12.930
  737TMC3    C110924   1.331   3.766  12.637
  737TMC3    C210925   1.388   3.875  12.583
  737TMC3    C310926   1.477   3.863  12.480
  737TMC3    C410927   1.376   3.643  12.605
  737TMC3    C510928   1.478   3.632  12.510
  737TMC3    C610929   1.520   3.742  12.438
  737TMC3     C10930   1.205   3.788  12.701
  737TMC3     O10931   1.163   3.905  12.697
  737TMC3     H10932   1.353   3.975  12.605
  737TMC3    H110933   1.352   3.554  12.661
  737TMC3    H210934   1.596   3.742  12.361
  737TMC3    C710935   1.546   3.512  12.495
  737TMC3    C810936   1.550   3.977  12.430
  737TMC3    O110937   1.514   3.407  12.553
  737TMC3    O210938   1.560   4.065  12.517
  738MPD2     C10939   1.538   2.777  15.116
  738MPD2    C110940   1.654   2.719  15.155
  738MPD2    C210941   1.773   2.760  15.102
  738MPD2    C310942   1.768   2.861  15.005
  738MPD2    C410943   1.651   2.922  14.963
  738MPD2    C510944   1.534   2.879  15.018
  738MPD2     H10945   1.864   2.709  15.129
  738MPD2    H110946   1.646   2.998  14.885
  738MPD2    H210947   1.439   2.755  15.155
  738MPD2    H310948   1.435   2.915  14.991
  738MPD2     N10949   1.885   2.901  14.939
  738MPD2    H510950   1.871   2.963  14.860
  738MPD2    N110951   1.664   2.611  15.247
  738MPD2    H710952   1.754   2.568  15.262
  739TMC3    C110953   2.112   2.903  14.877
  739TMC3    C210954   2.079   2.948  14.753
  739TMC3    C310955   2.171   3.022  14.680
  739TMC3    C410956   2.233   2.944  14.934
  739TMC3    C510957   2.319   3.020  14.856
  739TMC3    C610958   2.296   3.052  14.722
  739TMC3     C10959   2.012   2.866  14.974
  739TMC3     O10960   2.053   2.814  15.076
  739TMC3     H10961   1.992   2.908  14.703
  739TMC3    H110962   2.264   2.913  15.034
  739TMC3    H210963   2.361   3.107  14.655
  739TMC3    C710964   2.434   3.071  14.930
  739TMC3    C810965   2.108   3.089  14.567
  739TMC3    O110966   2.448   3.038  15.045
  739TMC3    O210967   1.992   3.067  14.550
  740TMC3    C110968   2.524   4.261  14.667
  740TMC3    C210969   2.570   4.204  14.784
  740TMC3    C310970   2.706   4.185  14.797
  740TMC3    C410971   2.609   4.279  14.560
  740TMC3    C510972   2.738   4.239  14.572
  740TMC3    C610973   2.786   4.201  14.693
  740TMC3     C10974   2.390   4.309  14.661
  740TMC3     O10975   2.366   4.373  14.556
  740TMC3     H10976   2.515   4.228  14.874
  740TMC3    H110977   2.575   4.302  14.459
  740TMC3    H210978   2.891   4.175  14.702
  740TMC3    C710979   2.837   4.256  14.467
  740TMC3    C810980   2.759   4.111  14.912
  740TMC3    O110981   2.949   4.204  14.482
  740TMC3    O210982   2.880   4.104  14.924
  741TMC3    C110983   1.936   3.808  14.310
  741TMC3    C210984   1.840   3.716  14.281
  741TMC3    C310985   1.832   3.593  14.348
  741TMC3    C410986   2.033   3.780  14.411
  741TMC3    C510987   2.026   3.656  14.463
  741TMC3    C610988   1.933   3.559  14.439
  741TMC3     C10989   1.985   3.889  14.207
  741TMC3     O10990   2.099   3.937  14.219
  741TMC3     H10991   1.759   3.751  14.219
  741TMC3    H110992   2.115   3.843  14.444
  741TMC3    H210993   1.956   3.455  14.458
  741TMC3    C710994   2.124   3.622  14.569
  741TMC3    C810995   1.708   3.503  14.326
  741TMC3    O110996   2.224   3.693  14.580
  741TMC3    O210997   1.625   3.539  14.245
  742TMC3    C110998   2.163   2.024  15.732
  742TMC3    C210999   2.056   2.018  15.646
  742TMC3    C311000   2.074   2.046  15.518
  742TMC3    C411001   2.292   2.050  15.688
  742TMC3    C511002   2.302   2.064  15.552
  742TMC3    C611003   2.197   2.056  15.467
  742TMC3     C11004   2.141   2.022  15.876
  742TMC3     O11005   2.231   2.066  15.942
  742TMC3     H11006   1.957   2.030  15.689
  742TMC3    H111007   2.374   2.065  15.757
  742TMC3    H211008   2.223   2.077  15.364
  742TMC3    C711009   2.427   2.041  15.487
  742TMC3    C811010   1.984   1.986  15.424
  742TMC3    O111011   2.435   1.984  15.380
  742TMC3    O211012   2.019   1.998  15.310
  743MPD2     C11013   3.953   2.875  19.402
  743MPD2    C111014   3.977   3.003  19.357
  743MPD2    C211015   4.097   3.061  19.393
  743MPD2    C311016   4.189   2.987  19.466
  743MPD2    C411017   4.157   2.865  19.513
  743MPD2    C511018   4.039   2.807  19.479
  743MPD2     H11019   4.134   3.153  19.351
  743MPD2    H111020   4.230   2.808  19.569
  743MPD2    H211021   3.864   2.825  19.365
  743MPD2    H311022   4.012   2.704  19.497
  743MPD2     N11023   4.320   3.043  19.479
  743MPD2    H511024   4.346   3.113  19.410
  743MPD2    N111025   3.877   3.065  19.280
  743MPD2    H711026   3.804   3.002  19.247
  744TMC3    C111027   3.809   3.209  19.116
  744TMC3    C211028   3.775   3.336  19.081
  744TMC3    C311029   3.746   3.363  18.947
  744TMC3    C411030   3.815   3.112  19.026
  744TMC3    C511031   3.797   3.144  18.898
  744TMC3    C611032   3.766   3.269  18.854
  744TMC3     C11033   3.874   3.195  19.244
  744TMC3     O11034   3.943   3.291  19.283
  744TMC3     H11035   3.766   3.407  19.162
  744TMC3    H111036   3.844   3.010  19.051
  744TMC3    H211037   3.764   3.291  18.748
  744TMC3    C711038   3.889   3.074  18.800
  744TMC3    C811039   3.800   3.486  18.895
  744TMC3    O111040   3.924   3.146  18.706
  744TMC3    O211041   3.780   3.511  18.778
  745TMC3    C111042   2.435   1.407  13.925
  745TMC3    C211043   2.303   1.359  13.933
  745TMC3    C311044   2.230   1.342  13.823
  745TMC3    C411045   2.501   1.410  13.804
  745TMC3    C511046   2.428   1.379  13.692
  745TMC3    C611047   2.290   1.353  13.699
  745TMC3     C11048   2.433   1.532  13.985
  745TMC3     O11049   2.343   1.550  14.063
  745TMC3     H11050   2.260   1.354  14.032
  745TMC3    H111051   2.607   1.430  13.813
  745TMC3    H211052   2.231   1.335  13.610
  745TMC3    C711053   2.453   1.448  13.568
  745TMC3    C811054   2.097   1.395  13.820
  745TMC3    O111055   2.374   1.455  13.477
  745TMC3    O211056   2.029   1.369  13.721
  746TMC3    C111057   0.326   3.445  11.422
  746TMC3    C211058   0.380   3.435  11.302
  746TMC3    C311059   0.301   3.388  11.204
  746TMC3    C411060   0.192   3.423  11.451
  746TMC3    C511061   0.117   3.409  11.340
  746TMC3    C611062   0.164   3.382  11.215
  746TMC3     C11063   0.366   3.560  11.501
  746TMC3     O11064   0.280   3.599  11.580
  746TMC3     H11065   0.484   3.456  11.278
  746TMC3    H111066   0.151   3.419  11.551
  746TMC3    H211067   0.100   3.363  11.130
  746TMC3    C711068   4.755   3.422  11.359
  746TMC3    C811069   0.345   3.436  11.074
  746TMC3    O111070   4.702   3.415  11.249
  746TMC3    O211071   0.461   3.417  11.040
  747TMC3    C111072   2.282   3.411  11.757
  747TMC3    C211073   2.174   3.353  11.818
  747TMC3    C311074   2.160   3.370  11.955
  747TMC3    C411075   2.356   3.497  11.832
  747TMC3    C511076   2.335   3.516  11.963
  747TMC3    C611077   2.241   3.448  12.034
  747TMC3     C11078   2.239   3.477  11.629
  747TMC3     O11079   2.180   3.581  11.633
  747TMC3     H11080   2.106   3.284  11.769
  747TMC3    H111081   2.407   3.575  11.777
  747TMC3    H211082   2.238   3.448  12.142
  747TMC3    C711083   2.401   3.625  12.031
  747TMC3    C811084   2.047   3.298  12.019
  747TMC3    O111085   2.359   3.671  12.135
  747TMC3    O211086   2.002   3.200  11.953
  748MPD2     C11087   3.435   4.492  19.375
  748MPD2    C111088   3.491   4.369  19.371
  748MPD2    C211089   3.626   4.358  19.407
  748MPD2    C311090   3.707   4.471  19.422
  748MPD2    C411091   3.648   4.594  19.404
  748MPD2    C511092   3.511   4.607  19.390
  748MPD2     H11093   3.670   4.261  19.424
  748MPD2    H111094   3.710   4.682  19.418
  748MPD2    H211095   3.329   4.491  19.353
  748MPD2    H311096   3.461   4.702  19.373
  748MPD2     N11097   3.847   4.455  19.441
  748MPD2    H511098   3.881   4.360  19.446
  748MPD2    N111099   3.405   4.258  19.348
  748MPD2    H711100   3.305   4.276  19.341
  749TMC3    C111101   4.069   4.511  19.447
  749TMC3    C211102   4.095   4.388  19.506
  749TMC3    C311103   4.195   4.310  19.453
  749TMC3    C411104   4.153   4.563  19.354
  749TMC3    C511105   4.258   4.481  19.306
  749TMC3    C611106   4.272   4.360  19.353
  749TMC3     C11107   3.939   4.559  19.454
  749TMC3     O11108   3.917   4.680  19.479
  749TMC3     H11109   4.037   4.336  19.581
  749TMC3    H111110   4.125   4.658  19.311
  749TMC3    H211111   4.363   4.308  19.324
  749TMC3    C711112   4.301   4.525  19.174
  749TMC3    C811113   4.232   4.189  19.529
  749TMC3    O111114   4.304   4.642  19.144
  749TMC3    O211115   4.182   4.177  19.637
  750MPD2     C11116   0.193   0.967  11.713
  750MPD2    C111117   0.070   0.911  11.731
  750MPD2    C211118   0.066   0.770  11.710
  750MPD2    C311119   0.170   0.693  11.669
  750MPD2    C411120   0.293   0.760  11.645
  750MPD2    C511121   0.303   0.896  11.669
  750MPD2     H11122   4.755   0.722  11.740
  750MPD2    H111123   0.381   0.711  11.607
  750MPD2    H211124   0.203   1.073  11.732
  750MPD2    H311125   0.395   0.951  11.653
  750MPD2     N11126   0.166   0.554  11.662
  750MPD2    H511127   0.254   0.512  11.635
  750MPD2    N111128   4.745   0.981  11.790
  750MPD2    H711129   4.763   1.078  11.816
  751TMC3    C111130   0.089   0.338  11.695
  751TMC3    C211131   0.005   0.266  11.783
  751TMC3    C311132   0.004   0.128  11.775
  751TMC3    C411133   0.160   0.282  11.591
  751TMC3    C511134   0.158   0.150  11.589
  751TMC3    C611135   0.088   0.075  11.680
  751TMC3     C11136   0.055   0.474  11.683
  751TMC3     O11137   4.717   0.512  11.701
  751TMC3     H11138   4.714   0.321  11.842
  751TMC3    H111139   0.217   0.338  11.518
  751TMC3    H211140   0.095   4.748  11.677
  751TMC3    C711141   0.203   0.098  11.459
  751TMC3    C811142   4.674   0.060  11.828
  751TMC3    O111143   0.288   0.160  11.396
  751TMC3    O211144   4.646   4.735  11.773
  752TMC3    C111145   3.570   0.716  17.743
  752TMC3    C211146   3.591   0.584  17.729
  752TMC3    C311147   3.574   0.505  17.839
  752TMC3    C411148   3.539   0.776  17.866
  752TMC3    C511149   3.521   0.689  17.971
  752TMC3    C611150   3.541   0.555  17.957
  752TMC3     C11151   3.602   0.811  17.639
  752TMC3     O11152   3.646   0.917  17.667
  752TMC3     H11153   3.608   0.533  17.635
  752TMC3    H111154   3.523   0.882  17.883
  752TMC3    H211155   3.540   0.486  18.040
  752TMC3    C711156   3.497   0.747  18.102
  752TMC3    C811157   3.581   0.366  17.808
  752TMC3    O111158   3.512   0.870  18.104
  752TMC3    O211159   3.646   0.326  17.715
  753TMC3    C111160   0.455   1.623  13.831
  753TMC3    C211161   0.554   1.594  13.910
  753TMC3    C311162   0.558   1.464  13.957
  753TMC3    C411163   0.370   1.527  13.773
  753TMC3    C511164   0.382   1.398  13.817
  753TMC3    C611165   0.472   1.365  13.906
  753TMC3     C11166   0.472   1.747  13.759
  753TMC3     O11167   0.370   1.806  13.738
  753TMC3     H11168   0.624   1.671  13.940
  753TMC3    H111169   0.299   1.564  13.700
  753TMC3    H211170   0.464   1.274  13.963
  753TMC3    C711171   0.331   1.300  13.723
  753TMC3    C811172   0.608   1.439  14.089
  753TMC3    O111173   0.259   1.346  13.631
  753TMC3    O211174   0.564   1.343  14.154
  754MPD2     C11175   4.752   0.284  13.621
  754MPD2    C111176   4.710   0.159  13.602
  754MPD2    C211177   4.581   0.139  13.570
  754MPD2    C311178   4.487   0.242  13.589
  754MPD2    C411179   4.534   0.365  13.603
  754MPD2    C511180   4.665   0.389  13.617
  754MPD2     H11181   4.546   0.042  13.536
  754MPD2    H111182   4.467   0.450  13.596
  754MPD2    H211183   0.072   0.313  13.646
  754MPD2    H311184   4.704   0.487  13.641
  754MPD2     N11185   4.351   0.223  13.580
  754MPD2    H511186   4.292   0.305  13.584
  754MPD2    N111187   0.039   0.063  13.598
  754MPD2    H711188   0.129   0.094  13.633
  755MPD2     C11189   3.744   0.848  13.544
  755MPD2    C111190   3.724   0.734  13.619
  755MPD2    C211191   3.782   0.615  13.590
  755MPD2    C311192   3.877   0.602  13.487
  755MPD2    C411193   3.923   0.724  13.432
  755MPD2    C511194   3.854   0.843  13.457
  755MPD2     H11195   3.755   0.529  13.650
  755MPD2    H111196   4.001   0.726  13.356
  755MPD2    H211197   3.677   0.933  13.550
  755MPD2    H311198   3.888   0.935  13.411
  755MPD2     N11199   3.934   0.482  13.442
  755MPD2    H511200   3.987   0.479  13.355
  755MPD2    N111201   3.615   0.729  13.715
  755MPD2    H711202   3.595   0.637  13.753
  756MPD2     C11203   4.305   1.442  10.180
  756MPD2    C111204   4.237   1.324  10.161
  756MPD2    C211205   4.159   1.301  10.046
  756MPD2    C311206   4.167   1.391   9.939
  756MPD2    C411207   4.251   1.499   9.955
  756MPD2    C511208   4.310   1.532  10.076
  756MPD2     H11209   4.103   1.208  10.043
  756MPD2    H111210   4.262   1.573   9.877
  756MPD2    H211211   4.355   1.477  10.270
  756MPD2    H311212   4.359   1.627  10.093
  756MPD2     N11213   4.091   1.368   9.820
  756MPD2    H511214   4.023   1.294   9.833
  756MPD2    N111215   4.228   1.227  10.266
  756MPD2    H711216   4.157   1.154  10.267
  757MPD2     C11217   3.486   0.788   9.772
  757MPD2    C111218   3.617   0.795   9.814
  757MPD2    C211219   3.702   0.895   9.770
  757MPD2    C311220   3.650   0.995   9.693
  757MPD2    C411221   3.518   0.995   9.658
  757MPD2    C511222   3.434   0.892   9.698
  757MPD2     H11223   3.807   0.896   9.796
  757MPD2    H111224   3.472   1.074   9.599
  757MPD2    H211225   3.420   0.705   9.795
  757MPD2    H311226   3.334   0.878   9.658
  757MPD2     N11227   3.734   1.095   9.640
  757MPD2    H511228   3.826   1.084   9.680
  757MPD2    N111229   3.670   0.686   9.887
  757MPD2    H711230   3.611   0.607   9.910
  758MPD2     C11231   4.296   0.122  16.195
  758MPD2    C111232   4.384   0.055  16.272
  758MPD2    C211233   4.349   0.048  16.405
  758MPD2    C311234   4.244   0.114  16.462
  758MPD2    C411235   4.169   0.192  16.379
  758MPD2    C511236   4.192   0.201  16.241
  758MPD2     H11237   4.419   0.002  16.474
  758MPD2    H111238   4.086   0.255  16.410
  758MPD2    H211239   4.313   0.137  16.089
  758MPD2    H311240   4.133   0.274  16.187
  758MPD2     N11241   4.209   0.108  16.602
  758MPD2    H511242   4.142   0.179  16.631
  758MPD2    N111243   4.500   4.775  16.219
  758MPD2    H711244   4.506   4.773  16.117
  759MPD2     C11245   3.285   3.027  10.197
  759MPD2    C111246   3.329   3.051  10.322
  759MPD2    C211247   3.436   3.132  10.344
  759MPD2    C311248   3.497   3.196  10.240
  759MPD2    C411249   3.457   3.172  10.118
  759MPD2    C511250   3.349   3.092  10.093
  759MPD2     H11251   3.460   3.160  10.446
  759MPD2    H111252   3.512   3.202  10.030
  759MPD2    H211253   3.193   2.971  10.181
  759MPD2    H311254   3.309   3.080   9.993
  759MPD2     N11255   3.593   3.294  10.277
  759MPD2    H511256   3.628   3.288  10.372
  759MPD2    N111257   3.262   3.010  10.446
  759MPD2    H711258   3.299   3.048  10.533
  760MPD2     C11259   2.686   0.284  11.865
  760MPD2    C111260   2.773   0.339  11.962
  760MPD2    C211261   2.821   0.256  12.058
  760MPD2    C311262   2.784   0.126  12.073
  760MPD2    C411263   2.691   0.076  11.982
  760MPD2    C511264   2.651   0.149  11.878
  760MPD2     H11265   2.884   0.311  12.128
  760MPD2    H111266   2.657   4.754  11.988
  760MPD2    H211267   2.655   0.339  11.777
  760MPD2    H311268   2.583   0.110  11.804
  760MPD2     N11269   2.824   0.049  12.182
  760MPD2    H511270   2.781   4.739  12.199
  760MPD2    N111271   2.817   0.475  11.957
  760MPD2    H711272   2.889   0.499  12.024
  761MPD2     C11273   4.199   0.085  12.029
  761MPD2    C111274   4.255   0.007  11.930
  761MPD2    C211275   4.388   0.029  11.886
  761MPD2    C311276   4.461   0.124  11.945
  761MPD2    C411277   4.408   0.204  12.048
  761MPD2    C511278   4.277   0.183  12.086
  761MPD2     H11279   4.429   4.750  11.806
  761MPD2    H111280   4.462   0.286  12.095
  761MPD2    H211281   4.094   0.072  12.055
  761MPD2    H311282   4.243   0.238  12.173
  761MPD2     N11283   4.604   0.133  11.920
  761MPD2    H511284   4.653   0.215  11.952
  761MPD2    N111285   4.169   4.696  11.872
  761MPD2    H711286   4.082   4.665  11.915
  762MPD2     C11287   4.507   3.944  11.651
  762MPD2    C111288   4.464   4.044  11.574
  762MPD2    C211289   4.553   4.092  11.475
  762MPD2    C311290   4.666   4.027  11.444
  762MPD2    C411291   4.705   3.918  11.519
  762MPD2    C511292   4.625   3.881  11.621
  762MPD2     H11293   4.529   4.179  11.415
  762MPD2    H111294   0.012   3.857  11.503
  762MPD2    H211295   4.444   3.910  11.733
  762MPD2    H311296   4.659   3.798  11.683
  762MPD2     N11297   4.746   4.082  11.340
  762MPD2    H511298   4.694   4.137  11.273
  762MPD2    N111299   4.340   4.111  11.613
  762MPD2    H711300   4.294   4.059  11.687
  763MPD2     C11301   1.787   4.740  16.488
  763MPD2    C111302   1.660   0.017  16.478
  763MPD2    C211303   1.629   0.138  16.532
  763MPD2    C311304   1.727   0.192  16.615
  763MPD2    C411305   1.852   0.134  16.635
  763MPD2    C511306   1.883   0.020  16.563
  763MPD2     H11307   1.538   0.196  16.518
  763MPD2    H111308   1.932   0.175  16.695
  763MPD2    H211309   1.825   4.660  16.426
  763MPD2    H311310   1.979   4.750  16.575
  763MPD2     N11311   1.724   0.316  16.683
  763MPD2    H511312   1.815   0.352  16.712
  763MPD2    N111313   1.571   4.750  16.372
  763MPD2    H711314   1.481   0.012  16.351
  764MPD2     C11315   4.188   1.934  17.737
  764MPD2    C111316   4.074   1.861  17.728
  764MPD2    C211317   4.024   1.801  17.835
  764MPD2    C311318   4.078   1.822  17.961
  764MPD2    C411319   4.186   1.903  17.969
  764MPD2    C511320   4.244   1.960  17.862
  764MPD2     H11321   3.934   1.741  17.826
  764MPD2    H111322   4.229   1.918  18.067
  764MPD2    H211323   4.238   1.979  17.652
  764MPD2    H311324   4.339   2.011  17.875
  764MPD2     N11325   4.014   1.754  18.071
  764MPD2    H511326   3.933   1.703  18.040
  764MPD2    N111327   4.009   1.845  17.607
  764MPD2    H711328   3.923   1.792  17.611
  765MPD2     C11329   3.849   4.198  16.141
  765MPD2    C111330   3.953   4.283  16.178
  765MPD2    C211331   4.086   4.239  16.183
  765MPD2    C311332   4.115   4.108  16.151
  765MPD2    C411333   4.013   4.021  16.122
  765MPD2    C511334   3.883   4.064  16.115
  765MPD2     H11335   4.171   4.301  16.206
  765MPD2    H111336   4.031   3.919  16.089
  765MPD2    H211337   3.749   4.236  16.131
  765MPD2    H311338   3.810   3.992  16.081
  765MPD2     N11339   4.253   4.065  16.148
  765MPD2    H511340   4.326   4.135  16.155
  765MPD2    N111341   3.913   4.416  16.211
  765MPD2    H711342   3.813   4.433  16.215
  766MPD2     C11343   3.269   4.605  16.002
  766MPD2    C111344   3.404   4.565  16.012
  766MPD2    C211345   3.452   4.469  15.926
  766MPD2    C311346   3.377   4.416  15.824
  766MPD2    C411347   3.249   4.465  15.807
  766MPD2    C511348   3.196   4.556  15.896
  766MPD2     H11349   3.557   4.443  15.933
  766MPD2    H111350   3.184   4.442  15.724
  766MPD2    H211351   3.230   4.672  16.077
  766MPD2    H311352   3.089   4.575  15.901
  766MPD2     N11353   3.428   4.328  15.719
  766MPD2    H511354   3.365   4.307  15.642
  766MPD2    N111355   3.478   4.627  16.113
  766MPD2    H711356   3.433   4.697  16.171
  767MPD2     C11357   3.102   4.591  15.502
  767MPD2    C111358   3.231   4.581  15.445
  767MPD2    C211359   3.248   4.502  15.331
  767MPD2    C311360   3.139   4.446  15.267
  767MPD2    C411361   3.008   4.460  15.322
  767MPD2    C511362   2.997   4.531  15.434
  767MPD2     H11363   3.345   4.484  15.285
  767MPD2    H111364   2.913   4.418  15.292
  767MPD2    H211365   3.083   4.648  15.592
  767MPD2    H311366   2.902   4.546  15.484
  767MPD2     N11367   3.171   4.369  15.156
  767MPD2    H511368   3.265   4.332  15.163
  767MPD2    N111369   3.332   4.646  15.515
  767MPD2    H711370   3.306   4.711  15.589
  768MPD2     C11371   4.500   3.301  10.844
  768MPD2    C111372   4.428   3.248  10.953
  768MPD2    C211373   4.494   3.158  11.034
  768MPD2    C311374   4.623   3.116  11.026
  768MPD2    C411375   4.697   3.178  10.928
  768MPD2    C511376   4.631   3.262  10.835
  768MPD2     H11377   4.430   3.130  11.117
  768MPD2    H111378   0.022   3.158  10.925
  768MPD2    H211379   4.458   3.377  10.779
  768MPD2    H311380   4.690   3.312  10.759
  768MPD2     N11381   4.695   3.062  11.135
  768MPD2    H511382   0.015   3.055  11.128
  768MPD2    N111383   4.288   3.271  10.978
  768MPD2    H711384   4.248   3.213  11.052
  769MPD2     C11385   0.591   0.775  15.153
  769MPD2    C111386   0.529   0.762  15.275
  769MPD2    C211387   0.601   0.786  15.388
  769MPD2    C311388   0.730   0.814  15.386
  769MPD2    C411389   0.799   0.807  15.272
  769MPD2    C511390   0.733   0.792  15.152
  769MPD2     H11391   0.546   0.780  15.482
  769MPD2    H111392   0.907   0.813  15.263
  769MPD2    H211393   0.536   0.763  15.060
  769MPD2    H311394   0.792   0.784  15.062
  769MPD2     N11395   0.784   0.832  15.514
  769MPD2    H511396   0.713   0.847  15.585
  769MPD2    N111397   0.391   0.729  15.280
  769MPD2    H711398   0.352   0.707  15.189
  770MPD2     C11399   4.417   0.007  15.537
  770MPD2    C111400   4.484   4.777  15.420
  770MPD2    C211401   4.564   0.097  15.379
  770MPD2    C311402   4.590   0.213  15.458
  770MPD2    C411403   4.511   0.223  15.572
  770MPD2    C511404   4.429   0.122  15.614
  770MPD2     H11405   4.631   0.082  15.294
  770MPD2    H111406   4.517   0.302  15.646
  770MPD2    H211407   4.368   4.696  15.565
  770MPD2    H311408   4.378   0.126  15.709
  770MPD2     N11409   4.684   0.304  15.410
  770MPD2    H511410   4.731   0.290  15.321
  770MPD2    N111411   4.478   4.646  15.354
  770MPD2    H711412   4.421   4.578  15.403
  771MPD2     C11413   1.400   3.766  14.154
  771MPD2    C111414   1.337   3.883  14.113
  771MPD2    C211415   1.199   3.874  14.076
  771MPD2    C311416   1.135   3.753  14.060
  771MPD2    C411417   1.201   3.640  14.097
  771MPD2    C511418   1.332   3.645  14.148
  771MPD2     H11419   1.137   3.956  14.040
  771MPD2    H111420   1.155   3.543  14.086
  771MPD2    H211421   1.506   3.761  14.173
  771MPD2    H311422   1.377   3.553  14.184
  771MPD2     N11423   1.003   3.759  13.999
  771MPD2    H511424   0.965   3.850  13.973
  771MPD2    N111425   1.391   4.010  14.115
  771MPD2    H711426   1.325   4.078  14.078
  772MPD2     C11427   1.060   4.581  14.035
  772MPD2    C111428   1.071   4.480  14.130
  772MPD2    C211429   0.966   4.406  14.171
  772MPD2    C311430   0.843   4.421  14.118
  772MPD2    C411431   0.828   4.514  14.018
  772MPD2    C511432   0.934   4.600  13.982
  772MPD2     H11433   0.990   4.338  14.252
  772MPD2    H111434   0.729   4.526  13.976
  772MPD2    H211435   1.139   4.646  13.999
  772MPD2    H311436   0.917   4.677  13.908
  772MPD2     N11437   0.726   4.355  14.158
  772MPD2    H511438   0.643   4.384  14.107
  772MPD2    N111439   1.197   4.437  14.175
  772MPD2    H711440   1.201   4.375  14.256
  773MPD2     C11441   0.329   0.396  18.303
  773MPD2    C111442   0.314   0.331  18.177
  773MPD2    C211443   0.360   0.195  18.164
  773MPD2    C311444   0.437   0.143  18.266
  773MPD2    C411445   0.455   0.214  18.386
  773MPD2    C511446   0.402   0.337  18.406
  773MPD2     H11447   0.344   0.147  18.068
  773MPD2    H111448   0.513   0.179  18.471
  773MPD2    H211449   0.296   0.497  18.323
  773MPD2    H311450   0.419   0.397  18.494
  773MPD2     N11451   0.466   0.006  18.257
  773MPD2    H511452   0.422   4.728  18.187
  773MPD2    N111453   0.234   0.375  18.066
  773MPD2    H711454   0.237   0.315  17.984
  774MPD2     C11455   4.091   4.086  13.714
  774MPD2    C111456   4.116   4.162  13.822
  774MPD2    C211457   4.233   4.242  13.823
  774MPD2    C311458   4.322   4.235  13.724
  774MPD2    C411459   4.295   4.163  13.610
  774MPD2    C511460   4.179   4.085  13.610
  774MPD2     H11461   4.253   4.294  13.915
  774MPD2    H111462   4.364   4.162  13.527
  774MPD2    H211463   4.003   4.024  13.698
  774MPD2    H311464   4.150   4.040  13.516
  774MPD2     N11465   4.442   4.317  13.743
  774MPD2    H511466   4.433   4.374  13.826
  774MPD2    N111467   4.035   4.162  13.932
  774MPD2    H711468   4.004   4.069  13.959
  775MPD2     C11469   1.212   0.630  16.175
  775MPD2    C111470   1.163   0.758  16.187
  775MPD2    C211471   1.239   0.868  16.143
  775MPD2    C311472   1.363   0.849  16.084
  775MPD2    C411473   1.406   0.721  16.072
  775MPD2    C511474   1.334   0.613  16.113
  775MPD2     H11475   1.205   0.970  16.151
  775MPD2    H111476   1.504   0.681  16.046
  775MPD2    H211477   1.153   0.549  16.216
  775MPD2    H311478   1.371   0.512  16.102
  775MPD2     N11479   1.443   0.955  16.040
  775MPD2    H511480   1.523   0.936  15.981
  775MPD2    N111481   1.034   0.765  16.250
  775MPD2    H711482   0.991   0.687  16.298
  776MPD2     C11483   0.011   1.368  12.226
  776MPD2    C111484   4.697   1.422  12.148
  776MPD2    C211485   4.678   1.563  12.146
  776MPD2    C311486   4.757   1.643  12.224
  776MPD2    C411487   0.077   1.586  12.293
  776MPD2    C511488   0.098   1.453  12.293
  776MPD2     H11489   4.607   1.610  12.079
  776MPD2    H111490   0.128   1.636  12.375
  776MPD2    H211491   0.028   1.260  12.227
  776MPD2    H311492   0.184   1.418  12.350
  776MPD2     N11493   4.741   1.782  12.243
  776MPD2    H511494   0.022   1.828  12.309
  776MPD2    N111495   4.620   1.335  12.073
  776MPD2    H711496   4.634   1.235  12.083
  777MPD2     C11497   0.338   3.330  18.756
  777MPD2    C111498   0.212   3.365  18.795
  777MPD2    C211499   0.100   3.301  18.737
  777MPD2    C311500   0.118   3.217  18.633
  777MPD2    C411501   0.250   3.184  18.599
  777MPD2    C511502   0.352   3.243  18.660
  777MPD2     H11503   0.005   3.325  18.783
  777MPD2    H111504   0.278   3.123  18.513
  777MPD2    H211505   0.433   3.370  18.789
  777MPD2    H311506   0.457   3.230  18.637
  777MPD2     N11507   0.010   3.165  18.567
  777MPD2    H511508   4.701   3.179  18.612
  777MPD2    N111509   0.213   3.466  18.905
  777MPD2    H711510   0.303   3.499  18.940
  778MPD2     C11511   1.072   3.747  15.269
  778MPD2    C111512   1.072   3.656  15.166
  778MPD2    C211513   1.098   3.697  15.037
  778MPD2    C311514   1.137   3.828  15.016
  778MPD2    C411515   1.135   3.917  15.115
  778MPD2    C511516   1.101   3.877  15.243
  778MPD2     H11517   1.095   3.622  14.958
  778MPD2    H111518   1.154   4.023  15.097
  778MPD2    H211519   1.032   3.721  15.367
  778MPD2    H311520   1.083   3.950  15.320
  778MPD2     N11521   1.179   3.856  14.883
  778MPD2    H511522   1.176   3.781  14.814
  778MPD2    N111523   1.037   3.519  15.178
  778MPD2    H711524   1.028   3.474  15.088
  779MPD2     C11525   0.782   2.470  14.480
  779MPD2    C111526   0.918   2.490  14.466
  779MPD2    C211527   0.959   2.615  14.416
  779MPD2    C311528   0.868   2.712  14.371
  779MPD2    C411529   0.731   2.680  14.386
  779MPD2    C511530   0.692   2.566  14.447
  779MPD2     H11531   1.059   2.632  14.379
  779MPD2    H111532   0.655   2.746  14.347
  779MPD2    H211533   0.744   2.380  14.527
  779MPD2    H311534   0.586   2.544  14.454
  779MPD2     N11535   0.920   2.841  14.336
  779MPD2    H511536   1.018   2.855  14.357
  779MPD2    N111537   1.010   2.389  14.488
  779MPD2    H711538   1.103   2.402  14.449
  780MPD2     C11539   0.711   2.087  18.947
  780MPD2    C111540   0.596   2.065  18.871
  780MPD2    C211541   0.577   2.147  18.760
  780MPD2    C311542   0.672   2.239  18.722
  780MPD2    C411543   0.788   2.255  18.795
  780MPD2    C511544   0.803   2.183  18.910
  780MPD2     H11545   0.482   2.148  18.708
  780MPD2    H111546   0.860   2.330  18.765
  780MPD2    H211547   0.740   2.035  19.038
  780MPD2    H311548   0.890   2.198  18.972
  780MPD2     N11549   0.638   2.319  18.614
  780MPD2    H511550   0.560   2.281  18.561
  780MPD2    N111551   0.503   1.965  18.907
  780MPD2    H711552   0.531   1.903  18.982
  781MPD2     C11553   2.156   4.289  12.320
  781MPD2    C111554   2.240   4.351  12.409
  781MPD2    C211555   2.344   4.422  12.358
  781MPD2    C311556   2.369   4.426  12.220
  781MPD2    C411557   2.289   4.362  12.136
  781MPD2    C511558   2.179   4.300  12.187
  781MPD2     H11559   2.415   4.474  12.421
  781MPD2    H111560   2.311   4.357  12.030
  781MPD2    H211561   2.070   4.234  12.356
  781MPD2    H311562   2.108   4.263  12.114
  781MPD2     N11563   2.477   4.501  12.173
  781MPD2    H511564   2.472   4.522  12.073
  781MPD2    N111565   2.219   4.345  12.547
  781MPD2    H711566   2.290   4.370  12.615
  782MPD2     C11567   4.765   0.503  10.746
  782MPD2    C111568   0.120   0.493  10.747
  782MPD2    C211569   0.197   0.578  10.820
  782MPD2    C311570   0.150   0.669  10.906
  782MPD2    C411571   0.008   0.680  10.908
  782MPD2    C511572   4.709   0.596  10.833
  782MPD2     H11573   0.303   0.557  10.828
  782MPD2    H111574   4.742   0.754  10.972
  782MPD2    H211575   4.705   0.449  10.673
  782MPD2    H311576   4.602   0.616  10.831
  782MPD2     N11577   0.232   0.752  10.972
  782MPD2    H511578   0.333   0.759  10.957
  782MPD2    N111579   0.184   0.392  10.675
  782MPD2    H711580   0.125   0.328  10.622
  783MPD2     C11581   0.127   4.557  11.300
  783MPD2    C111582   0.157   4.691  11.305
  783MPD2    C211583   0.207   4.751  11.180
  783MPD2    C311584   0.216   4.683  11.056
  783MPD2    C411585   0.168   4.554  11.064
  783MPD2    C511586   0.136   4.492  11.183
  783MPD2     H11587   0.229   0.076  11.174
  783MPD2    H111588   0.168   4.489  10.977
  783MPD2    H211589   0.091   4.506  11.389
  783MPD2    H311590   0.109   4.387  11.187
  783MPD2     N11591   0.248   4.756  10.943
  783MPD2    H511592   0.283   0.069  10.958
  783MPD2    N111593   0.143   4.756  11.428
  783MPD2    H711594   0.086   4.705  11.496
  784MPD2     C11595   2.924   0.830  18.897
  784MPD2    C111596   2.914   0.890  19.021
  784MPD2    C211597   2.800   0.955  19.058
  784MPD2    C311598   2.693   0.961  18.967
  784MPD2    C411599   2.705   0.891  18.848
  784MPD2    C511600   2.816   0.827  18.810
  784MPD2     H11601   2.800   1.006  19.154
  784MPD2    H111602   2.626   0.892  18.773
  784MPD2    H211603   3.013   0.777  18.864
  784MPD2    H311604   2.825   0.765  18.722
  784MPD2     N11605   2.588   1.040  19.005
  784MPD2    H511606   2.600   1.093  19.091
  784MPD2    N111607   3.023   0.892  19.114
  784MPD2    H711608   3.007   0.943  19.200
  785MPD2     C11609   3.282   3.654  11.495
  785MPD2    C111610   3.239   3.721  11.383
  785MPD2    C211611   3.237   3.664  11.265
  785MPD2    C311612   3.282   3.533  11.246
  785MPD2    C411613   3.316   3.461  11.351
  785MPD2    C511614   3.322   3.525  11.478
  785MPD2     H11615   3.193   3.717  11.182
  785MPD2    H111616   3.329   3.353  11.348
  785MPD2    H211617   3.300   3.694  11.594
  785MPD2    H311618   3.334   3.460  11.564
  785MPD2     N11619   3.250   3.472  11.120
  785MPD2    H511620   3.198   3.526  11.051
  785MPD2    N111621   3.209   3.853  11.398
  785MPD2    H711622   3.173   3.898  11.482
  786MPD2     C11623   1.582   1.723  15.250
  786MPD2    C111624   1.702   1.754  15.185
  786MPD2    C211625   1.806   1.821  15.261
  786MPD2    C311626   1.780   1.856  15.393
  786MPD2    C411627   1.661   1.825  15.454
  786MPD2    C511628   1.568   1.754  15.381
  786MPD2     H11629   1.902   1.829  15.211
  786MPD2    H111630   1.643   1.860  15.555
  786MPD2    H211631   1.511   1.657  15.203
  786MPD2    H311632   1.475   1.726  15.430
  786MPD2     N11633   1.875   1.922  15.475
  786MPD2    H511634   1.868   1.915  15.576
  786MPD2    N111635   1.735   1.705  15.058
  786MPD2    H711636   1.827   1.711  15.015
  787MPD2     C11637   2.121   1.160  15.096
  787MPD2    C111638   2.053   1.142  14.976
  787MPD2    C211639   2.063   1.020  14.914
  787MPD2    C311640   2.143   0.927  14.961
  787MPD2    C411641   2.228   0.945  15.075
  787MPD2    C511642   2.216   1.065  15.137
  787MPD2     H11643   2.006   0.995  14.825
  787MPD2    H111644   2.288   0.868  15.122
  787MPD2    H211645   2.130   1.256  15.144
  787MPD2    H311646   2.290   1.090  15.211
  787MPD2     N11647   2.162   0.812  14.872
  787MPD2    H511648   2.094   0.803  14.797
  787MPD2    N111649   1.977   1.247  14.926
  787MPD2    H711650   1.977   1.330  14.985
  788MPD2     C11651   3.831   0.084  19.186
  788MPD2    C111652   3.918   0.082  19.078
  788MPD2    C211653   3.961   0.195  19.019
  788MPD2    C311654   3.908   0.318  19.064
  788MPD2    C411655   3.829   0.315  19.181
  788MPD2    C511656   3.792   0.201  19.240
  788MPD2     H11657   4.031   0.185  18.937
  788MPD2    H111658   3.790   0.410  19.214
  788MPD2    H211659   3.799   4.773  19.233
  788MPD2    H311660   3.719   0.199  19.320
  788MPD2     N11661   3.939   0.444  19.012
  788MPD2    H511662   3.905   0.525  19.062
  788MPD2    N111663   3.967   4.738  19.030
  788MPD2    H711664   4.046   4.730  18.966
  789MPD2     C11665   3.956   4.614  16.638
  789MPD2    C111666   3.891   4.498  16.684
  789MPD2    C211667   3.784   4.505  16.779
  789MPD2    C311668   3.762   4.625  16.842
  789MPD2    C411669   3.831   4.735  16.807
  789MPD2    C511670   3.927   4.728  16.707
  789MPD2     H11671   3.724   4.421  16.810
  789MPD2    H111672   3.812   0.048  16.858
  789MPD2    H211673   4.021   4.621  16.552
  789MPD2    H311674   3.983   0.035  16.676
  789MPD2     N11675   3.650   4.644  16.928
  789MPD2    H511676   3.642   4.739  16.963
  789MPD2    N111677   3.917   4.370  16.635
  789MPD2    H711678   3.859   4.290  16.661
  790MPD2     C11679   0.103   1.728  13.953
  790MPD2    C111680   0.106   1.597  13.991
  790MPD2    C211681   0.057   1.506  13.902
  790MPD2    C311682   4.777   1.542  13.787
  790MPD2    C411683   4.766   1.683  13.756
  790MPD2    C511684   0.041   1.772  13.837
  790MPD2     H11685   0.066   1.401  13.926
  790MPD2    H111686   4.720   1.717  13.664
  790MPD2    H211687   0.138   1.800  14.026
  790MPD2    H311688   0.034   1.878  13.814
  790MPD2     N11689   4.711   1.445  13.718
  790MPD2    H511690   4.739   1.350  13.740
  790MPD2    N111691   0.163   1.571  14.113
  790MPD2    H711692   0.175   1.647  14.180
  791MPD2     C11693   4.114   1.438  13.167
  791MPD2    C111694   4.147   1.320  13.232
  791MPD2    C211695   4.065   1.205  13.220
  791MPD2    C311696   3.944   1.214  13.151
  791MPD2    C411697   3.916   1.333  13.081
  791MPD2    C511698   3.999   1.442  13.089
  791MPD2     H11699   4.084   1.114  13.275
  791MPD2    H111700   3.826   1.341  13.020
  791MPD2    H211701   4.188   1.517  13.169
  791MPD2    H311702   3.975   1.531  13.031
  791MPD2     N11703   3.856   1.102  13.138
  791MPD2    H511704   3.896   1.017  13.175
  791MPD2    N111705   4.259   1.315  13.314
  791MPD2    H711706   4.298   1.403  13.344
  792MPD2     C11707   0.058   1.246  11.548
  792MPD2    C111708   4.731   1.308  11.608
  792MPD2    C211709   4.600   1.259  11.589
  792MPD2    C311710   4.579   1.151  11.510
  792MPD2    C411711   4.684   1.076  11.465
  792MPD2    C511712   0.032   1.132  11.469
  792MPD2     H11713   4.516   1.307  11.639
  792MPD2    H111714   4.666   0.985  11.409
  792MPD2    H211715   0.162   1.273  11.563
  792MPD2    H311716   0.113   1.083  11.417
  792MPD2     N11717   4.459   1.087  11.500
  792MPD2    H511718   4.454   0.996  11.454
  792MPD2    N111719   4.757   1.425  11.680
  792MPD2    H711720   0.076   1.434  11.695
  793MPD2     C11721   3.834   1.013  10.916
  793MPD2    C111722   3.965   1.040  10.945
  793MPD2    C211723   4.009   1.051  11.075
  793MPD2    C311724   3.918   1.040  11.181
  793MPD2    C411725   3.785   1.013  11.147
  793MPD2    C511726   3.749   0.989  11.020
  793MPD2     H11727   4.112   1.082  11.090
  793MPD2    H111728   3.708   1.001  11.223
  793MPD2    H211729   3.812   0.990  10.812
  793MPD2    H311730   3.645   0.959  11.010
  793MPD2     N11731   3.964   1.069  11.314
  793MPD2    H511732   4.061   1.096  11.320
  793MPD2    N111733   4.064   1.055  10.848
  793MPD2    H711734   4.156   1.084  10.881
  794MPD2     C11735   4.651   0.950  17.538
  794MPD2    C111736   4.594   0.824  17.523
  794MPD2    C211737   4.515   0.796  17.414
  794MPD2    C311738   4.476   0.900  17.328
  794MPD2    C411739   4.533   1.024  17.352
  794MPD2    C511740   4.608   1.046  17.456
  794MPD2     H11741   4.469   0.698  17.423
  794MPD2    H111742   4.508   1.105  17.284
  794MPD2    H211743   4.712   0.974  17.624
  794MPD2    H311744   4.644   1.145  17.478
  794MPD2     N11745   4.383   0.885  17.231
  794MPD2    H511746   4.351   0.967  17.181
  794MPD2    N111747   4.633   0.714  17.609
  794MPD2    H711748   4.599   0.622  17.584
  795MPD2     C11749   2.292   2.942  13.750
  795MPD2    C111750   2.236   2.839  13.682
  795MPD2    C211751   2.303   2.717  13.665
  795MPD2    C311752   2.437   2.703  13.727
  795MPD2    C411753   2.485   2.812  13.796
  795MPD2    C511754   2.407   2.925  13.806
  795MPD2     H11755   2.265   2.637  13.603
  795MPD2    H111756   2.580   2.820  13.847
  795MPD2    H211757   2.233   3.033  13.759
  795MPD2    H311758   2.440   3.016  13.856
  795MPD2     N11759   2.518   2.592  13.703
  795MPD2    H511760   2.464   2.506  13.697
  795MPD2    N111761   2.107   2.857  13.615
  795MPD2    H711762   2.040   2.782  13.606
  796MPD2     C11763   1.819   4.122  15.960
  796MPD2    C111764   1.853   4.158  16.092
  796MPD2    C211765   1.850   4.287  16.125
  796MPD2    C311766   1.812   4.389  16.040
  796MPD2    C411767   1.770   4.348  15.908
  796MPD2    C511768   1.774   4.220  15.876
  796MPD2     H11769   1.879   4.317  16.225
  796MPD2    H111770   1.752   4.424  15.833
  796MPD2    H211771   1.812   4.016  15.940
  796MPD2    H311772   1.750   4.203  15.772
  796MPD2     N11773   1.834   4.523  16.077
  796MPD2    H511774   1.885   4.542  16.163
  796MPD2    N111775   1.911   4.057  16.180
  796MPD2    H711776   1.894   3.961  16.151
  797MPD2     C11777   2.550   3.885  17.632
  797MPD2    C111778   2.586   4.020  17.653
  797MPD2    C211779   2.521   4.113  17.573
  797MPD2    C311780   2.443   4.074  17.465
  797MPD2    C411781   2.425   3.947  17.442
  797MPD2    C511782   2.464   3.850  17.539
  797MPD2     H11783   2.551   4.216  17.582
  797MPD2    H111784   2.358   3.912  17.365
  797MPD2    H211785   2.596   3.813  17.698
  797MPD2    H311786   2.450   3.744  17.528
  797MPD2     N11787   2.394   4.178  17.384
  797MPD2    H511788   2.348   4.154  17.296
  797MPD2    N111789   2.666   4.058  17.758
  797MPD2    H711790   2.674   4.158  17.774
  798MPD2     C11791   2.579   0.013  17.747
  798MPD2    C111792   2.622   4.697  17.660
  798MPD2    C211793   2.706   4.594  17.698
  798MPD2    C311794   2.741   4.581  17.830
  798MPD2    C411795   2.702   4.680  17.915
  798MPD2    C511796   2.620   4.778  17.875
  798MPD2     H11797   2.745   4.529  17.620
  798MPD2    H111798   2.735   4.671  18.018
  798MPD2    H211799   2.509   0.092  17.725
  798MPD2    H311800   2.586   0.070  17.948
  798MPD2     N11801   2.802   4.462  17.875
  798MPD2    H511802   2.808   4.381  17.815
  798MPD2    N111803   2.562   4.702  17.528
  798MPD2    H711804   2.492   4.775  17.532
  799MPD2     C11805   1.813   0.659  15.025
  799MPD2    C111806   1.713   0.597  14.956
  799MPD2    C211807   1.624   0.671  14.883
  799MPD2    C311808   1.644   0.810  14.863
  799MPD2    C411809   1.745   0.876  14.938
  799MPD2    C511810   1.831   0.789  14.999
  799MPD2     H11811   1.546   0.616  14.832
  799MPD2    H111812   1.774   0.980  14.942
  799MPD2    H211813   1.881   0.610  15.093
  799MPD2    H311814   1.907   0.838  15.060
  799MPD2     N11815   1.565   0.890  14.789
  799MPD2    H511816   1.581   0.990  14.790
  799MPD2    N111817   1.685   0.460  14.967
  799MPD2    H711818   1.589   0.440  14.941
  800MPD2     C11819   1.839   1.826  13.916
  800MPD2    C111820   1.942   1.814  14.007
  800MPD2    C211821   2.009   1.694  14.003
  800MPD2    C311822   1.990   1.595  13.911
  800MPD2    C411823   1.880   1.612  13.825
  800MPD2    C511824   1.794   1.718  13.844
  800MPD2     H11825   2.088   1.674  14.074
  800MPD2    H111826   1.847   1.545  13.747
  800MPD2    H211827   1.795   1.923  13.899
  800MPD2    H311828   1.715   1.722  13.771
  800MPD2     N11829   2.083   1.491  13.918
  800MPD2    H511830   2.144   1.499  13.999
  800MPD2    N111831   1.995   1.929  14.075
  800MPD2    H711832   1.959   2.018  14.042
  801MPD2     C11833   2.219   2.619  14.018
  801MPD2    C111834   2.129   2.518  14.036
  801MPD2    C211835   2.002   2.548  14.080
  801MPD2    C311836   1.961   2.678  14.096
  801MPD2    C411837   2.057   2.779  14.098
  801MPD2    C511838   2.184   2.746  14.057
  801MPD2     H11839   1.933   2.464  14.082
  801MPD2    H111840   2.028   2.878  14.129
  801MPD2    H211841   2.320   2.609  13.978
  801MPD2    H311842   2.255   2.822  14.025
  801MPD2     N11843   1.838   2.711  14.153
  801MPD2    H511844   1.834   2.802  14.197
  801MPD2    N111845   2.167   2.385  14.034
  801MPD2    H711846   2.085   2.330  14.058
  802MPD2     C11847   1.278   3.421  17.691
  802MPD2    C111848   1.291   3.335  17.801
  802MPD2    C211849   1.299   3.196  17.782
  802MPD2    C311850   1.290   3.147  17.657
  802MPD2    C411851   1.278   3.235  17.551
  802MPD2    C511852   1.273   3.370  17.570
  802MPD2     H11853   1.318   3.128  17.863
  802MPD2    H111854   1.268   3.194  17.451
  802MPD2    H211855   1.242   3.522  17.708
  802MPD2    H311856   1.265   3.439  17.487
  802MPD2     N11857   1.308   3.003  17.650
  802MPD2    H511858   1.340   2.948  17.729
  802MPD2    N111859   1.255   3.373  17.933
  802MPD2    H711860   1.274   3.302  18.002
  803MPD2     C11861   2.988   1.313  12.252
  803MPD2    C111862   3.046   1.380  12.356
  803MPD2    C211863   2.996   1.333  12.480
  803MPD2    C311864   2.891   1.242  12.496
  803MPD2    C411865   2.836   1.187  12.382
  803MPD2    C511866   2.891   1.222  12.267
  803MPD2     H11867   3.037   1.382  12.568
  803MPD2    H111868   2.757   1.112  12.383
  803MPD2    H211869   3.031   1.325  12.152
  803MPD2    H311870   2.852   1.175  12.178
  803MPD2     N11871   2.814   1.216  12.609
  803MPD2    H511872   2.734   1.156  12.591
  803MPD2    N111873   3.153   1.467  12.349
  803MPD2    H711874   3.203   1.502  12.430
  804MPD2     C11875   2.263   2.481  17.098
  804MPD2    C111876   2.268   2.466  17.232
  804MPD2    C211877   2.339   2.552  17.312
  804MPD2    C311878   2.421   2.647  17.252
  804MPD2    C411879   2.433   2.650  17.114
  804MPD2    C511880   2.344   2.572  17.036
  804MPD2     H11881   2.327   2.544  17.420
  804MPD2    H111882   2.485   2.723  17.053
  804MPD2    H211883   2.201   2.417  17.036
  804MPD2    H311884   2.327   2.592  16.931
  804MPD2     N11885   2.501   2.719  17.336
  804MPD2    H511886   2.459   2.726  17.428
  804MPD2    N111887   2.195   2.365  17.305
  804MPD2    H711888   2.193   2.366  17.406
  805MPD2     C11889   1.529   0.611  15.737
  805MPD2    C111890   1.591   0.731  15.712
  805MPD2    C211891   1.711   0.762  15.773
  805MPD2    C311892   1.774   0.667  15.854
  805MPD2    C411893   1.720   0.546  15.870
  805MPD2    C511894   1.599   0.520  15.811
  805MPD2     H11895   1.758   0.858  15.753
  805MPD2    H111896   1.763   0.462  15.924
  805MPD2    H211897   1.444   0.575  15.681
  805MPD2    H311898   1.557   0.421  15.824
  805MPD2     N11899   1.893   0.709  15.915
  805MPD2    H511900   1.923   0.803  15.890
  805MPD2    N111901   1.547   0.814  15.612
  805MPD2    H711902   1.614   0.888  15.592
  806MPD2     C11903   2.200   0.395  19.363
  806MPD2    C111904   2.322   0.432  19.314
  806MPD2    C211905   2.354   0.404  19.180
  806MPD2    C311906   2.264   0.330  19.102
  806MPD2    C411907   2.140   0.298  19.146
  806MPD2    C511908   2.107   0.331  19.277
  806MPD2     H11909   2.449   0.430  19.134
  806MPD2    H111910   2.064   0.245  19.090
  806MPD2    H211911   2.174   0.416  19.466
  806MPD2    H311912   2.017   0.287  19.318
  806MPD2     N11913   2.304   0.317  18.967
  806MPD2    H511914   2.389   0.364  18.938
  806MPD2    N111915   2.420   0.483  19.402
  806MPD2    H711916   2.384   0.501  19.495
  807MPD2     C11917   2.465   0.290  20.054
  807MPD2    C111918   2.456   0.245  19.926
  807MPD2    C211919   2.369   0.137  19.900
  807MPD2    C311920   2.290   0.081  20.001
  807MPD2    C411921   2.299   0.138  20.123
  807MPD2    C511922   2.395   0.229  20.150
  807MPD2     H11923   2.371   0.089  19.803
  807MPD2    H111924   2.241   0.096  20.204
  807MPD2    H211925   2.532   0.371  20.079
  807MPD2    H311926   2.401   0.268  20.251
  807MPD2     N11927   2.194   4.769  19.967
  807MPD2    H511928   2.200   4.748  19.868
  807MPD2    N111929   2.528   0.306  19.824
  807MPD2    H711930   2.523   0.272  19.729
  808MPD2     C11931   2.366   1.775   9.686
  808MPD2    C111932   2.362   1.821   9.817
  808MPD2    C211933   2.426   1.938   9.848
  808MPD2    C311934   2.495   2.017   9.760
  808MPD2    C411935   2.483   1.978   9.628
  808MPD2    C511936   2.418   1.863   9.594
  808MPD2     H11937   2.432   1.972   9.951
  808MPD2    H111938   2.536   2.024   9.545
  808MPD2    H211939   2.316   1.687   9.647
  808MPD2    H311940   2.409   1.826   9.492
  808MPD2     N11941   2.554   2.142   9.788
  808MPD2    H511942   2.607   2.174   9.707
  808MPD2    N111943   2.291   1.757   9.920
  808MPD2    H711944   2.303   1.792  10.015
  809MPD2     C11945   3.079   2.934   9.458
  809MPD2    C111946   3.136   2.829   9.525
  809MPD2    C211947   3.046   2.729   9.574
  809MPD2    C311948   2.909   2.743   9.573
  809MPD2    C411949   2.861   2.856   9.509
  809MPD2    C511950   2.944   2.949   9.450
  809MPD2     H11951   3.094   2.648   9.629
  809MPD2    H111952   2.755   2.877   9.508
  809MPD2    H211953   3.137   3.006   9.402
  809MPD2    H311954   2.925   3.037   9.389
  809MPD2     N11955   2.813   2.677   9.646
  809MPD2    H511956   2.718   2.714   9.655
  809MPD2    N111957   3.276   2.815   9.530
  809MPD2    H711958   3.321   2.735   9.574
  810MPD2     C11959   2.210   1.386  10.555
  810MPD2    C111960   2.112   1.335  10.633
  810MPD2    C211961   2.102   1.381  10.762
  810MPD2    C311962   2.191   1.476  10.810
  810MPD2    C411963   2.291   1.527  10.730
  810MPD2    C511964   2.302   1.476  10.604
  810MPD2     H11965   2.029   1.338  10.830
  810MPD2    H111966   2.367   1.603  10.746
  810MPD2    H211967   2.218   1.337  10.459
  810MPD2    H311968   2.387   1.520  10.554
  810MPD2     N11969   2.175   1.543  10.930
  810MPD2    H511970   2.229   1.628  10.940
  810MPD2    N111971   2.020   1.249  10.569
  810MPD2    H711972   2.028   1.229  10.469
  811MPD2     C11973   1.313   1.281  10.110
  811MPD2    C111974   1.419   1.331  10.176
  811MPD2    C211975   1.442   1.466  10.181
  811MPD2    C311976   1.349   1.546  10.112
  811MPD2    C411977   1.244   1.494  10.041
  811MPD2    C511978   1.228   1.357  10.040
  811MPD2     H11979   1.526   1.503  10.239
  811MPD2    H111980   1.169   1.548   9.984
  811MPD2    H211981   1.300   1.173  10.107
  811MPD2    H311982   1.150   1.316   9.977
  811MPD2     N11983   1.386   1.679  10.108
  811MPD2    H511984   1.482   1.696  10.135
  811MPD2    N111985   1.494   1.234  10.250
  811MPD2    H711986   1.468   1.137  10.238
  812MPD2     C11987   0.473   1.251  12.490
  812MPD2    C111988   0.489   1.344  12.590
  812MPD2    C211989   0.526   1.294  12.720
  812MPD2    C311990   0.546   1.161  12.735
  812MPD2    C411991   0.536   1.071  12.625
  812MPD2    C511992   0.502   1.117  12.504
  812MPD2     H11993   0.515   1.364  12.802
  812MPD2    H111994   0.532   0.963  12.632
  812MPD2    H211995   0.432   1.287  12.396
  812MPD2    H311996   0.499   1.053  12.417
  812MPD2     N11997   0.583   1.114  12.866
  812MPD2    H511998   0.576   1.174  12.948
  812MPD2    N111999   0.495   1.481  12.563
  812MPD2    H712000   0.453   1.504  12.473
  813MPD2     C12001   4.566   3.385  13.134
  813MPD2    C112002   4.660   3.366  13.232
  813MPD2    C212003   4.619   3.333  13.362
  813MPD2    C312004   4.484   3.341  13.388
  813MPD2    C412005   4.391   3.353  13.291
  813MPD2    C512006   4.430   3.366  13.163
  813MPD2     H12007   4.681   3.335  13.451
  813MPD2    H112008   4.283   3.348  13.300
  813MPD2    H212009   4.591   3.421  13.035
  813MPD2    H312010   4.356   3.371  13.084
  813MPD2     N12011   4.453   3.324  13.521
  813MPD2    H512012   4.538   3.331  13.577
  813MPD2    N112013   0.018   3.385  13.201
  813MPD2    H712014   0.050   3.445  13.126
  814MPD2     C12015   0.304   4.454  12.850
  814MPD2    C112016   0.277   4.511  12.729
  814MPD2    C212017   0.294   4.650  12.721
  814MPD2    C312018   0.359   4.725  12.822
  814MPD2    C412019   0.373   4.659  12.946
  814MPD2    C512020   0.355   4.526  12.957
  814MPD2     H12021   0.268   4.694  12.626
  814MPD2    H112022   0.412   4.720  13.027
  814MPD2    H212023   0.294   4.350  12.881
  814MPD2    H312024   0.368   4.482  13.055
  814MPD2     N12025   0.390   0.081  12.824
  814MPD2    H512026   0.423   0.119  12.912
  814MPD2    N112027   0.222   4.444  12.616
  814MPD2    H712028   0.230   4.486  12.524
  815MPD2     C12029   1.021   3.146  12.079
  815MPD2    C112030   0.981   3.015  12.101
  815MPD2    C212031   0.857   3.002  12.161
  815MPD2    C312032   0.776   3.107  12.193
  815MPD2    C412033   0.827   3.236  12.170
  815MPD2    C512034   0.950   3.253  12.112
  815MPD2     H12035   0.828   2.905  12.200
  815MPD2    H112036   0.772   3.321  12.209
  815MPD2    H212037   1.114   3.157  12.025
  815MPD2    H312038   0.989   3.351  12.086
  815MPD2     N12039   0.649   3.080  12.247
  815MPD2    H512040   0.626   2.981  12.254
  815MPD2    N112041   1.059   2.904  12.060
  815MPD2    H712042   1.144   2.934  12.013
  816MPD2     C12043   0.623   1.654  17.272
  816MPD2    C112044   0.697   1.770  17.277
  816MPD2    C212045   0.834   1.763  17.276
  816MPD2    C312046   0.907   1.647  17.248
  816MPD2    C412047   0.831   1.536  17.224
  816MPD2    C512048   0.689   1.536  17.244
  816MPD2     H12049   0.890   1.855  17.287
  816MPD2    H112050   0.885   1.442  17.221
  816MPD2    H212051   0.515   1.657  17.280
  816MPD2    H312052   0.631   1.448  17.223
  816MPD2     N12053   1.044   1.652  17.218
  816MPD2    H512054   1.088   1.743  17.223
  816MPD2    N112055   0.631   1.894  17.280
  816MPD2    H712056   0.530   1.896  17.271
  817MPD2     C12057   0.648   3.826  10.539
  817MPD2    C112058   0.666   3.820  10.400
  817MPD2    C212059   0.661   3.935  10.326
  817MPD2    C312060   0.638   4.060  10.397
  817MPD2    C412061   0.617   4.059  10.532
  817MPD2    C512062   0.619   3.937  10.603
  817MPD2     H12063   0.662   3.944  10.218
  817MPD2    H112064   0.605   4.147  10.594
  817MPD2    H212065   0.664   3.737  10.599
  817MPD2    H312066   0.593   3.930  10.708
  817MPD2     N12067   0.620   4.181  10.315
  817MPD2    H512068   0.661   4.183  10.222
  817MPD2    N112069   0.686   3.697  10.333
  817MPD2    H712070   0.693   3.695  10.232
  818MPD2     C12071   4.361   3.786  10.227
  818MPD2    C112072   4.249   3.755  10.302
  818MPD2    C212073   4.190   3.629  10.296
  818MPD2    C312074   4.230   3.539  10.198
  818MPD2    C412075   4.334   3.581  10.117
  818MPD2    C512076   4.401   3.695  10.137
  818MPD2     H12077   4.101   3.613  10.356
  818MPD2    H112078   4.372   3.502  10.055
  818MPD2    H212079   4.422   3.873  10.249
  818MPD2    H312080   4.484   3.719  10.071
  818MPD2     N12081   4.184   3.405  10.192
  818MPD2    H512082   4.213   3.348  10.114
  818MPD2    N112083   4.188   3.845  10.395
  818MPD2    H712084   4.105   3.815  10.446
  819MPD2     C12085   2.340   0.573  15.836
  819MPD2    C112086   2.326   0.442  15.866
  819MPD2    C212087   2.417   0.381  15.948
  819MPD2    C312088   2.525   0.454  16.000
  819MPD2    C412089   2.535   0.594  15.971
  819MPD2    C512090   2.438   0.654  15.893
  819MPD2     H12091   2.418   0.273  15.954
  819MPD2    H112092   2.624   0.649  16.000
  819MPD2    H212093   2.280   0.626  15.762
  819MPD2    H312094   2.463   0.752  15.852
  819MPD2     N12095   2.618   0.383  16.078
  819MPD2    H512096   2.609   0.282  16.078
  819MPD2    N112097   2.217   0.378  15.810
  819MPD2    H712098   2.170   0.433  15.740
  820MPD2     C12099   1.415   0.436  15.233
  820MPD2    C112100   1.511   0.513  15.289
  820MPD2    C212101   1.593   0.469  15.387
  820MPD2    C312102   1.577   0.336  15.431
  820MPD2    C412103   1.474   0.262  15.376
  820MPD2    C512104   1.386   0.316  15.285
  820MPD2     H12105   1.674   0.530  15.426
  820MPD2    H112106   1.458   0.168  15.426
  820MPD2    H212107   1.336   0.463  15.165
  820MPD2    H312108   1.310   0.257  15.236
  820MPD2     N12109   1.660   0.269  15.526
  820MPD2    H512110   1.631   0.174  15.546
  820MPD2    N112111   1.523   0.639  15.232
  820MPD2    H712112   1.439   0.658  15.178
  821MPD2     C12113   2.515   1.712  13.437
  821MPD2    C112114   2.599   1.646  13.517
  821MPD2    C212115   2.727   1.701  13.541
  821MPD2    C312116   2.759   1.826  13.502
  821MPD2    C412117   2.669   1.901  13.430
  821MPD2    C512118   2.547   1.837  13.393
  821MPD2     H12119   2.801   1.649  13.601
  821MPD2    H112120   2.696   2.001  13.398
  821MPD2    H212121   2.419   1.670  13.408
  821MPD2    H312122   2.488   1.896  13.324
  821MPD2     N12123   2.879   1.882  13.547
  821MPD2    H512124   2.908   1.958  13.486
  821MPD2    N112125   2.561   1.529  13.591
  821MPD2    H712126   2.618   1.500  13.669
  822MPD2     C12127   3.227   1.767  16.062
  822MPD2    C112128   3.162   1.721  16.180
  822MPD2    C212129   3.043   1.783  16.218
  822MPD2    C312130   2.995   1.902  16.152
  822MPD2    C412131   3.058   1.939  16.037
  822MPD2    C512132   3.172   1.879  16.000
  822MPD2     H12133   3.003   1.747  16.312
  822MPD2    H112134   3.022   2.021  15.975
  822MPD2    H212135   3.328   1.729  16.047
  822MPD2    H312136   3.220   1.903  15.906
  822MPD2     N12137   2.886   1.970  16.209
  822MPD2    H512138   2.854   1.925  16.294
  822MPD2    N112139   3.203   1.629  16.271
  822MPD2    H712140   3.156   1.622  16.361
  823MPD2     C12141   2.478   2.160  16.924
  823MPD2    C112142   2.554   2.086  16.835
  823MPD2    C212143   2.612   1.966  16.881
  823MPD2    C312144   2.601   1.928  17.014
  823MPD2    C412145   2.516   2.002  17.100
  823MPD2    C512146   2.456   2.118  17.051
  823MPD2     H12147   2.671   1.904  16.815
  823MPD2    H112148   2.506   1.979  17.205
  823MPD2    H212149   2.428   2.253  16.900
  823MPD2    H312150   2.397   2.181  17.116
  823MPD2     N12151   2.650   1.805  17.066
  823MPD2    H512152   2.632   1.792  17.165
  823MPD2    N112153   2.581   2.136  16.706
  823MPD2    H712154   2.541   2.227  16.684
  824MPD2     C12155   3.746   1.000  16.508
  824MPD2    C112156   3.707   1.074  16.401
  824MPD2    C212157   3.788   1.075  16.292
  824MPD2    C312158   3.895   0.983  16.277
  824MPD2    C412159   3.927   0.909  16.388
  824MPD2    C512160   3.855   0.926  16.509
  824MPD2     H12161   3.773   1.147  16.212
  824MPD2    H112162   4.002   0.830  16.398
  824MPD2    H212163   3.696   1.013  16.604
  824MPD2    H312164   3.878   0.875  16.602
  824MPD2     N12165   3.961   0.971  16.155
  824MPD2    H512166   3.931   1.027  16.076
  824MPD2    N112167   3.599   1.161  16.410
  824MPD2    H712168   3.586   1.228  16.336
  825MPD2     C12169   4.512   1.171  15.483
  825MPD2    C112170   4.386   1.183  15.539
  825MPD2    C212171   4.302   1.292  15.505
  825MPD2    C312172   4.344   1.391  15.418
  825MPD2    C412173   4.473   1.375  15.365
  825MPD2    C512174   4.558   1.271  15.394
  825MPD2     H12175   4.200   1.297  15.542
  825MPD2    H112176   4.515   1.454  15.303
  825MPD2    H212177   4.571   1.086  15.515
  825MPD2    H312178   4.652   1.264  15.340
  825MPD2     N12179   4.269   1.499  15.373
  825MPD2    H512180   4.320   1.570  15.321
  825MPD2    N112181   4.339   1.083  15.629
  825MPD2    H712182   4.407   1.008  15.636
  826MPD2     C12183   3.752   0.702  14.249
  826MPD2    C112184   3.776   0.797  14.149
  826MPD2    C212185   3.705   0.918  14.160
  826MPD2    C312186   3.620   0.933  14.269
  826MPD2    C412187   3.589   0.837  14.363
  826MPD2    C512188   3.660   0.720  14.353
  826MPD2     H12189   3.702   0.988  14.078
  826MPD2    H112190   3.533   0.871  14.449
  826MPD2    H212191   3.799   0.604  14.245
  826MPD2    H312192   3.634   0.638  14.419
  826MPD2     N12193   3.558   1.059  14.303
  826MPD2    H512194   3.513   1.071  14.393
  826MPD2    N112195   3.871   0.760  14.049
  826MPD2    H712196   3.922   0.673  14.060
  827MPD2     C12197   4.682   2.792  10.260
  827MPD2    C112198   4.644   2.674  10.326
  827MPD2    C212199   4.563   2.587  10.256
  827MPD2    C312200   4.504   2.629  10.137
  827MPD2    C412201   4.529   2.755  10.091
  827MPD2    C512202   4.616   2.837  10.150
  827MPD2     H12203   4.550   2.486  10.293
  827MPD2    H112204   4.483   2.793  10.001
  827MPD2    H212205   4.764   2.857  10.289
  827MPD2    H312206   4.643   2.931  10.103
  827MPD2     N12207   4.409   2.535  10.077
  827MPD2    H512208   4.402   2.446  10.125
  827MPD2    N112209   4.710   2.641  10.445
  827MPD2    H712210   0.007   2.696  10.481
  828MPD2     C12211   3.214   2.323  12.635
  828MPD2    C112212   3.110   2.326  12.546
  828MPD2    C212213   3.123   2.392  12.422
  828MPD2    C312214   3.255   2.416  12.374
  828MPD2    C412215   3.359   2.389  12.456
  828MPD2    C512216   3.339   2.345  12.577
  828MPD2     H12217   3.039   2.407  12.355
  828MPD2    H112218   3.462   2.399  12.425
  828MPD2    H212219   3.212   2.292  12.738
  828MPD2    H312220   3.415   2.337  12.654
  828MPD2     N12221   3.278   2.447  12.238
  828MPD2    H512222   3.375   2.437  12.210
  828MPD2    N112223   2.985   2.273  12.575
  828MPD2    H712224   2.927   2.250  12.495
  829MPD2     C12225   2.557   2.115  11.947
  829MPD2    C112226   2.469   2.124  12.050
  829MPD2    C212227   2.503   2.085  12.179
  829MPD2    C312228   2.638   2.057  12.208
  829MPD2    C412229   2.735   2.074  12.109
  829MPD2    C512230   2.687   2.099  11.982
  829MPD2     H12231   2.424   2.052  12.246
  829MPD2    H112232   2.839   2.052  12.130
  829MPD2    H212233   2.526   2.113  11.843
  829MPD2    H312234   2.754   2.080  11.899
  829MPD2     N12235   2.679   2.034  12.337
  829MPD2    H512236   2.778   2.032  12.357
  829MPD2    N112237   2.337   2.170  12.032
  829MPD2    H712238   2.290   2.158  11.943
  830MPD2     C12239   3.315   0.136  16.324
  830MPD2    C112240   3.219   0.133  16.225
  830MPD2    C212241   3.240   0.213  16.110
  830MPD2    C312242   3.358   0.279  16.091
  830MPD2    C412243   3.455   0.272  16.183
  830MPD2    C512244   3.439   0.205  16.300
  830MPD2     H12245   3.160   0.212  16.036
  830MPD2    H112246   3.553   0.316  16.174
  830MPD2    H212247   3.299   0.109  16.428
  830MPD2    H312248   3.526   0.188  16.361
  830MPD2     N12249   3.388   0.348  15.970
  830MPD2    H512250   3.481   0.388  15.955
  830MPD2    N112251   3.093   0.087  16.257
  830MPD2    H712252   3.085   0.064  16.355
  831MPD2     C12253   3.139   2.127  16.584
  831MPD2    C112254   3.173   2.016  16.519
  831MPD2    C212255   3.115   1.892  16.531
  831MPD2    C312256   2.999   1.894  16.603
  831MPD2    C412257   2.956   2.002  16.670
  831MPD2    C512258   3.028   2.117  16.664
  831MPD2     H12259   3.142   1.803  16.476
  831MPD2    H112260   2.863   1.996  16.725
  831MPD2    H212261   3.178   2.224  16.556
  831MPD2    H312262   2.988   2.203  16.717
  831MPD2     N12263   2.902   1.784  16.595
  831MPD2    H512264   2.816   1.805  16.644
  831MPD2    N112265   3.279   2.036  16.425
  831MPD2    H712266   3.306   2.130  16.396
  832MPD2     C12267   1.491   2.922  17.200
  832MPD2    C112268   1.453   3.052  17.226
  832MPD2    C212269   1.342   3.107  17.174
  832MPD2    C312270   1.245   3.024  17.116
  832MPD2    C412271   1.271   2.895  17.093
  832MPD2    C512272   1.398   2.846  17.135
  832MPD2     H12273   1.310   3.207  17.201
  832MPD2    H112274   1.205   2.828  17.040
  832MPD2    H212275   1.585   2.873  17.224
  832MPD2    H312276   1.424   2.750  17.092
  832MPD2     N12277   1.116   3.067  17.083
  832MPD2    H512278   1.055   2.993  17.050
  832MPD2    N112279   1.543   3.132  17.298
  832MPD2    H712280   1.620   3.086  17.345
  833MPD2     C12281   3.612   0.002  12.766
  833MPD2    C112282   3.657   0.133  12.759
  833MPD2    C212283   3.771   0.157  12.695
  833MPD2    C312284   3.836   0.054  12.624
  833MPD2    C412285   3.786   4.707  12.630
  833MPD2    C512286   3.680   4.683  12.712
  833MPD2     H12287   3.807   0.259  12.684
  833MPD2    H112288   3.833   4.621  12.583
  833MPD2    H212289   3.522   4.759  12.821
  833MPD2    H312290   3.635   4.586  12.728
  833MPD2     N12291   3.939   0.087  12.528
  833MPD2    H512292   3.952   0.016  12.456
  833MPD2    N112293   3.569   0.228  12.814
  833MPD2    H712294   3.481   0.201  12.855
  834MPD2     C12295   3.401   0.061  11.879
  834MPD2    C112296   3.514   0.065  11.800
  834MPD2    C212297   3.635   0.119  11.846
  834MPD2    C312298   3.637   0.161  11.979
  834MPD2    C412299   3.522   0.148  12.062
  834MPD2    C512300   3.412   0.092  12.014
  834MPD2     H12301   3.730   0.116  11.794
  834MPD2    H112302   3.535   0.188  12.162
  834MPD2    H212303   3.305   0.023  11.846
  834MPD2    H312304   3.326   0.094  12.081
  834MPD2     N12305   3.763   0.196  12.024
  834MPD2    H512306   3.827   0.232  11.953
  834MPD2    N112307   3.498   0.001  11.671
  834MPD2    H712308   3.430   4.707  11.684
  835MPD2     C12309   3.762   2.505  11.413
  835MPD2    C112310   3.708   2.603  11.503
  835MPD2    C212311   3.755   2.607  11.630
  835MPD2    C312312   3.860   2.529  11.671
  835MPD2    C412313   3.910   2.436  11.583
  835MPD2    C512314   3.869   2.432  11.453
  835MPD2     H12315   3.717   2.684  11.698
  835MPD2    H112316   3.990   2.369  11.614
  835MPD2    H212317   3.721   2.490  11.314
  835MPD2    H312318   3.909   2.361  11.380
  835MPD2     N12319   3.907   2.539  11.810
  835MPD2    H512320   3.971   2.466  11.839
  835MPD2    N112321   3.604   2.699  11.473
  835MPD2    H712322   3.583   2.766  11.546
  836MPD2     C12323   3.368   2.830  12.164
  836MPD2    C112324   3.439   2.772  12.271
  836MPD2    C212325   3.373   2.736  12.391
  836MPD2    C312326   3.237   2.766  12.405
  836MPD2    C412327   3.173   2.821  12.307
  836MPD2    C512328   3.240   2.862  12.192
  836MPD2     H12329   3.427   2.697  12.477
  836MPD2    H112330   3.068   2.848  12.301
  836MPD2    H212331   3.396   2.839  12.060
  836MPD2    H312332   3.185   2.920  12.118
  836MPD2     N12333   3.160   2.718  12.515
  836MPD2    H512334   3.060   2.717  12.501
  836MPD2    N112335   3.571   2.741  12.238
  836MPD2    H712336   3.599   2.750  12.141
  837MPD2     C12337   1.897   2.230  10.219
  837MPD2    C112338   1.843   2.275  10.102
  837MPD2    C212339   1.858   2.407  10.069
  837MPD2    C312340   1.905   2.500  10.161
  837MPD2    C412341   1.970   2.451  10.278
  837MPD2    C512342   1.962   2.316  10.297
  837MPD2     H12343   1.816   2.450   9.980
  837MPD2    H112344   2.015   2.507  10.359
  837MPD2    H212345   1.891   2.125  10.247
  837MPD2    H312346   2.004   2.284  10.392
  837MPD2     N12347   1.885   2.634  10.129
  837MPD2    H512348   1.852   2.645  10.034
  837MPD2    N112349   1.756   2.194  10.023
  837MPD2    H712350   1.728   2.239   9.936
  838MPD2     C12351   0.396   0.592  12.059
  838MPD2    C112352   0.406   0.563  12.195
  838MPD2    C212353   0.303   0.504  12.264
  838MPD2    C312354   0.191   0.462  12.197
  838MPD2    C412355   0.188   0.472  12.063
  838MPD2    C512356   0.279   0.547  11.996
  838MPD2     H12357   0.314   0.500  12.372
  838MPD2    H112358   0.092   0.447  12.019
  838MPD2    H212359   0.467   0.640  11.993
  838MPD2    H312360   0.273   0.558  11.888
  838MPD2     N12361   0.083   0.408  12.276
  838MPD2    H512362   0.097   0.403  12.376
  838MPD2    N112363   0.522   0.594  12.260
  838MPD2    H712364   0.521   0.606  12.361
  839MPD2     C12365   0.106   4.719  12.108
  839MPD2    C112366   0.185   4.703  11.999
  839MPD2    C212367   0.293   0.008  11.978
  839MPD2    C312368   0.314   0.117  12.062
  839MPD2    C412369   0.244   0.119  12.177
  839MPD2    C512370   0.138   0.035  12.197
  839MPD2     H12371   0.360   4.774  11.895
  839MPD2    H112372   0.263   0.200  12.247
  839MPD2    H212373   0.012   4.667  12.125
  839MPD2    H312374   0.087   0.029  12.293
  839MPD2     N12375   0.421   0.209  12.048
  839MPD2    H512376   0.432   0.265  12.132
  839MPD2    N112377   0.177   4.592  11.907
  839MPD2    H712378   0.248   4.572  11.837
  840MPD2     C12379   0.470   2.900  10.593
  840MPD2    C112380   0.457   2.798  10.687
  840MPD2    C212381   0.559   2.789  10.778
  840MPD2    C312382   0.660   2.880  10.788
  840MPD2    C412383   0.675   2.963  10.688
  840MPD2    C512384   0.587   2.973  10.588
  840MPD2     H12385   0.554   2.705  10.847
  840MPD2    H112386   0.760   3.031  10.685
  840MPD2    H212387   0.396   2.906  10.514
  840MPD2    H312388   0.606   3.042  10.507
  840MPD2     N12389   0.759   2.872  10.888
  840MPD2    H512390   0.838   2.936  10.888
  840MPD2    N112391   0.333   2.733  10.698
  840MPD2    H712392   0.257   2.757  10.636
  841MPD2     C12393   4.438   1.965  15.236
  841MPD2    C112394   4.469   1.956  15.103
  841MPD2    C212395   4.535   2.061  15.045
  841MPD2    C312396   4.581   2.167  15.124
  841MPD2    C412397   4.544   2.173  15.253
  841MPD2    C512398   4.473   2.072  15.313
  841MPD2     H12399   4.575   2.043  14.947
  841MPD2    H112400   4.572   2.259  15.312
  841MPD2    H212401   4.383   1.885  15.284
  841MPD2    H312402   4.446   2.088  15.416
  841MPD2     N12403   4.673   2.259  15.058
  841MPD2    H512404   4.682   2.251  14.957
  841MPD2    N112405   4.440   1.852  15.015
  841MPD2    H712406   4.457   1.871  14.917
  842MPD2     C12407   0.699   3.525  17.059
  842MPD2    C112408   0.594   3.440  17.030
  842MPD2    C212409   0.541   3.353  17.125
  842MPD2    C312410   0.605   3.351  17.247
  842MPD2    C412411   0.695   3.452  17.284
  842MPD2    C512412   0.752   3.527  17.187
  842MPD2     H12413   0.472   3.275  17.094
  842MPD2    H112414   0.732   3.456  17.386
  842MPD2    H212415   0.745   3.593  16.988
  842MPD2    H312416   0.827   3.602  17.208
  842MPD2     N12417   0.552   3.285  17.355
  842MPD2    H512418   0.569   3.326  17.446
  842MPD2    N112419   0.538   3.452  16.902
  842MPD2    H712420   0.555   3.540  16.854
  843MPD2     C12421   2.401   4.357  18.054
  843MPD2    C112422   2.438   4.230  18.114
  843MPD2    C212423   2.550   4.218  18.196
  843MPD2    C312424   2.619   4.334  18.227
  843MPD2    C412425   2.572   4.454  18.173
  843MPD2    C512426   2.465   4.466  18.088
  843MPD2     H12427   2.576   4.121  18.236
  843MPD2    H112428   2.624   4.544  18.206
  843MPD2    H212429   2.323   4.356  17.979
  843MPD2    H312430   2.445   4.561  18.040
  843MPD2     N12431   2.736   4.336  18.305
  843MPD2    H512432   2.778   4.426  18.325
  843MPD2    N112433   2.359   4.121  18.063
  843MPD2    H712434   2.275   4.151  18.016
  844MPD2     C12435   1.084   2.934  16.611
  844MPD2    C112436   1.206   2.864  16.623
  844MPD2    C212437   1.314   2.923  16.685
  844MPD2    C312438   1.304   3.056  16.731
  844MPD2    C412439   1.176   3.118  16.735
  844MPD2    C512440   1.068   3.055  16.669
  844MPD2     H12441   1.410   2.871  16.690
  844MPD2    H112442   1.161   3.220  16.770
  844MPD2    H212443   0.996   2.889  16.567
  844MPD2    H312444   0.970   3.100  16.661
  844MPD2     N12445   1.428   3.115  16.774
  844MPD2    H512446   1.508   3.059  16.746
  844MPD2    N112447   1.227   2.735  16.568
  844MPD2    H712448   1.323   2.702  16.566
  845MPD2     C12449   1.635   3.958  17.230
  845MPD2    C112450   1.550   3.867  17.282
  845MPD2    C212451   1.554   3.738  17.234
  845MPD2    C312452   1.642   3.711  17.130
  845MPD2    C412453   1.717   3.806  17.074
  845MPD2    C512454   1.719   3.931  17.127
  845MPD2     H12455   1.490   3.661  17.275
  845MPD2    H112456   1.783   3.794  16.989
  845MPD2    H212457   1.641   4.056  17.277
  845MPD2    H312458   1.781   4.016  17.100
  845MPD2     N12459   1.654   3.576  17.077
  845MPD2    H512460   1.575   3.516  17.100
  845MPD2    N112461   1.464   3.908  17.389
  845MPD2    H712462   1.466   4.006  17.418
  846MPD2     C12463   2.912   4.267  13.958
  846MPD2    C112464   2.839   4.379  13.987
  846MPD2    C212465   2.803   4.390  14.121
  846MPD2    C312466   2.843   4.303  14.221
  846MPD2    C412467   2.917   4.189  14.186
  846MPD2    C512468   2.957   4.183  14.052
  846MPD2     H12469   2.738   4.472  14.149
  846MPD2    H112470   2.954   4.124  14.264
  846MPD2    H212471   2.945   4.249  13.856
  846MPD2    H312472   3.025   4.105  14.020
  846MPD2     N12473   2.788   4.316  14.352
  846MPD2    H512474   2.721   4.391  14.368
  846MPD2    N112475   2.802   4.477  13.892
  846MPD2    H712476   2.766   4.565  13.928
  847MPD2     C12477   2.802   0.340  14.652
  847MPD2    C112478   2.828   0.327  14.792
  847MPD2    C212479   2.903   0.221  14.837
  847MPD2    C312480   2.966   0.143  14.745
  847MPD2    C412481   2.938   0.145  14.611
  847MPD2    C512482   2.843   0.233  14.570
  847MPD2     H12483   2.919   0.207  14.944
  847MPD2    H112484   2.988   0.084  14.537
  847MPD2    H212485   2.731   0.410  14.612
  847MPD2    H312486   2.825   0.225  14.463
  847MPD2     N12487   3.082   0.067  14.776
  847MPD2    H512488   3.149   0.043  14.704
  847MPD2    N112489   2.803   0.435  14.883
  847MPD2    H712490   2.844   0.435  14.976
  848MPD2     C12491   0.795   3.462  16.456
  848MPD2    C112492   0.858   3.500  16.566
  848MPD2    C212493   0.941   3.613  16.562
  848MPD2    C312494   0.955   3.677  16.443
  848MPD2    C412495   0.878   3.646  16.330
  848MPD2    C512496   0.799   3.531  16.340
  848MPD2     H12497   0.985   3.657  16.650
  848MPD2    H112498   0.884   3.696  16.234
  848MPD2    H212499   0.742   3.368  16.445
  848MPD2    H312500   0.754   3.487  16.252
  848MPD2     N12501   1.038   3.789  16.429
  848MPD2    H512502   1.051   3.824  16.334
  848MPD2    N112503   0.855   3.430  16.688
  848MPD2    H712504   0.919   3.463  16.760
  849MPD2     C12505   4.328   3.229  14.653
  849MPD2    C112506   4.443   3.300  14.679
  849MPD2    C212507   4.536   3.260  14.778
  849MPD2    C312508   4.509   3.143  14.843
  849MPD2    C412509   4.385   3.074  14.833
  849MPD2    C512510   4.302   3.126  14.741
  849MPD2     H12511   4.637   3.301  14.783
  849MPD2    H112512   4.361   2.977  14.875
  849MPD2    H212513   4.260   3.269  14.579
  849MPD2    H312514   4.204   3.082  14.728
  849MPD2     N12515   4.614   3.073  14.914
  849MPD2    H512516   4.587   2.978  14.936
  849MPD2    N112517   4.477   3.404  14.596
  849MPD2    H712518   4.430   3.409  14.506
  850MPD2     C12519   3.100   1.158  14.863
  850MPD2    C112520   3.063   1.245  14.965
  850MPD2    C212521   3.162   1.303  15.043
  850MPD2    C312522   3.297   1.270  15.016
  850MPD2    C412523   3.324   1.169  14.917
  850MPD2    C512524   3.224   1.124  14.837
  850MPD2     H12525   3.131   1.380  15.113
  850MPD2    H112526   3.430   1.151  14.902
  850MPD2    H212527   3.023   1.122  14.796
  850MPD2    H312528   3.230   1.062  14.748
  850MPD2     N12529   3.409   1.321  15.092
  850MPD2    H512530   3.504   1.312  15.058
  850MPD2    N112531   2.922   1.270  14.984
  850MPD2    H712532   2.855   1.234  14.917
  851MPD2     C12533   3.437   1.238  15.682
  851MPD2    C112534   3.352   1.174  15.592
  851MPD2    C212535   3.358   1.035  15.595
  851MPD2    C312536   3.457   0.966  15.673
  851MPD2    C412537   3.541   1.030  15.749
  851MPD2    C512538   3.533   1.165  15.754
  851MPD2     H12539   3.296   0.969  15.536
  851MPD2    H112540   3.620   0.988  15.811
  851MPD2    H212541   3.438   1.347  15.680
  851MPD2    H312542   3.606   1.223  15.809
  851MPD2     N12543   3.458   0.827  15.657
  851MPD2    H512544   3.388   0.790  15.594
  851MPD2    N112545   3.247   1.240  15.527
  851MPD2    H712546   3.232   1.338  15.551
  852MPD2     C12547   3.234   3.415  10.368
  852MPD2    C112548   3.270   3.480  10.485
  852MPD2    C212549   3.327   3.603  10.475
  852MPD2    C312550   3.365   3.661  10.354
  852MPD2    C412551   3.326   3.596  10.239
  852MPD2    C512552   3.272   3.473  10.247
  852MPD2     H12553   3.348   3.665  10.562
  852MPD2    H112554   3.335   3.644  10.142
  852MPD2    H212555   3.180   3.322  10.357
  852MPD2    H312556   3.241   3.434  10.151
  852MPD2     N12557   3.424   3.787  10.339
  852MPD2    H512558   3.452   3.832  10.426
  852MPD2    N112559   3.244   3.423  10.609
  852MPD2    H712560   3.296   3.460  10.689
  853MPD2     C12561   4.318   3.381  12.807
  853MPD2    C112562   4.382   3.499  12.785
  853MPD2    C212563   4.472   3.510  12.679
  853MPD2    C312564   4.490   3.407  12.593
  853MPD2    C412565   4.422   3.288  12.618
  853MPD2    C512566   4.326   3.279  12.714
  853MPD2     H12567   4.534   3.597  12.664
  853MPD2    H112568   4.437   3.202  12.554
  853MPD2    H212569   4.250   3.364  12.890
  853MPD2    H312570   4.263   3.193  12.731
  853MPD2     N12571   4.566   3.410  12.475
  853MPD2    H512572   4.537   3.338  12.410
  853MPD2    N112573   4.356   3.605  12.881
  853MPD2    H712574   4.310   3.578  12.967
  854MPD2     C12575   1.253   3.744  13.271
  854MPD2    C112576   1.323   3.840  13.212
  854MPD2    C212577   1.463   3.850  13.233
  854MPD2    C312578   1.525   3.755  13.321
  854MPD2    C412579   1.447   3.664  13.384
  854MPD2    C512580   1.313   3.651  13.354
  854MPD2     H12581   1.514   3.934  13.187
  854MPD2    H112582   1.482   3.587  13.451
  854MPD2    H212583   1.147   3.745  13.248
  854MPD2    H312584   1.254   3.584  13.416
  854MPD2     N12585   1.663   3.759  13.366
  854MPD2    H512586   1.681   3.683  13.430
  854MPD2    N112587   1.248   3.924  13.126
  854MPD2    H712588   1.147   3.932  13.130
  855MPD2     C12589   1.377   3.573  13.788
  855MPD2    C112590   1.492   3.540  13.859
  855MPD2    C212591   1.606   3.620  13.833
  855MPD2    C312592   1.601   3.732  13.753
  855MPD2    C412593   1.474   3.778  13.701
  855MPD2    C512594   1.371   3.694  13.718
  855MPD2     H12595   1.696   3.597  13.888
  855MPD2    H112596   1.470   3.868  13.642
  855MPD2    H212597   1.293   3.505  13.799
  855MPD2    H312598   1.276   3.718  13.671
  855MPD2     N12599   1.718   3.801  13.717
  855MPD2    H512600   1.698   3.890  13.673
  855MPD2    N112601   1.518   3.410  13.915
  855MPD2    H712602   1.611   3.401  13.953
  856MPD2     C12603   4.055   4.179  14.699
  856MPD2    C112604   4.083   4.278  14.610
  856MPD2    C212605   3.979   4.324  14.536
  856MPD2    C312606   3.851   4.285  14.539
  856MPD2    C412607   3.824   4.178  14.623
  856MPD2    C512608   3.925   4.131  14.705
  856MPD2     H12609   4.004   4.410  14.474
  856MPD2    H112610   3.723   4.149  14.650
  856MPD2    H212611   4.131   4.135  14.763
  856MPD2    H312612   3.909   4.047  14.771
  856MPD2     N12613   3.745   4.350  14.475
  856MPD2    H512614   3.655   4.304  14.475
  856MPD2    N112615   4.206   4.333  14.578
  856MPD2    H712616   4.198   4.422  14.530
  857MPD2     C12617   0.362   2.051  13.306
  857MPD2    C112618   0.491   2.056  13.254
  857MPD2    C212619   0.550   2.180  13.228
  857MPD2    C312620   0.480   2.292  13.258
  857MPD2    C412621   0.356   2.290  13.318
  857MPD2    C512622   0.299   2.170  13.337
  857MPD2     H12623   0.639   2.185  13.167
  857MPD2    H112624   0.300   2.377  13.351
  857MPD2    H212625   0.310   1.957  13.317
  857MPD2    H312626   0.203   2.173  13.386
  857MPD2     N12627   0.546   2.419  13.224
  857MPD2    H512628   0.627   2.406  13.164
  857MPD2    N112629   0.557   1.931  13.230
  857MPD2    H712630   0.505   1.849  13.258
  858MPD2     C12631   1.453   0.862  17.171
  858MPD2    C112632   1.590   0.836  17.172
  858MPD2    C212633   1.669   0.924  17.242
  858MPD2    C312634   1.618   1.037  17.308
  858MPD2    C412635   1.480   1.054  17.303
  858MPD2    C512636   1.397   0.973  17.234
  858MPD2     H12637   1.776   0.909  17.234
  858MPD2    H112638   1.438   1.135  17.361
  858MPD2    H212639   1.380   0.800  17.120
  858MPD2    H312640   1.291   0.989  17.215
  858MPD2     N12641   1.690   1.120  17.403
  858MPD2    H512642   1.638   1.191  17.453
  858MPD2    N112643   1.639   0.730  17.086
  858MPD2    H712644   1.567   0.673  17.042
  859MPD2     C12645   0.381   2.710  15.872
  859MPD2    C112646   0.284   2.708  15.768
  859MPD2    C212647   0.252   2.588  15.717
  859MPD2    C312648   0.299   2.468  15.778
  859MPD2    C412649   0.395   2.476  15.880
  859MPD2    C512650   0.440   2.594  15.918
  859MPD2     H12651   0.186   2.591  15.631
  859MPD2    H112652   0.442   2.389  15.926
  859MPD2    H212653   0.414   2.806  15.912
  859MPD2    H312654   0.522   2.601  15.989
  859MPD2     N12655   0.245   2.339  15.740
  859MPD2    H512656   0.270   2.261  15.800
  859MPD2    N112657   0.250   2.831  15.721
  859MPD2    H712658   0.298   2.913  15.757
  860MPD2     C12659   2.688   3.281  12.029
  860MPD2    C112660   2.709   3.357  12.141
  860MPD2    C212661   2.613   3.367  12.235
  860MPD2    C312662   2.490   3.310  12.225
  860MPD2    C412663   2.467   3.230  12.110
  860MPD2    C512664   2.567   3.220  12.017
  860MPD2     H12665   2.630   3.430  12.322
  860MPD2    H112666   2.374   3.177  12.090
  860MPD2    H212667   2.769   3.268  11.959
  860MPD2    H312668   2.544   3.143  11.944
  860MPD2     N12669   2.410   3.326  12.337
  860MPD2    H512670   2.445   3.388  12.409
  860MPD2    N112671   2.832   3.419  12.178
  860MPD2    H712672   2.842   3.472  12.264
  861MPD2     C12673   1.154   1.563  11.383
  861MPD2    C112674   1.099   1.643  11.475
  861MPD2    C212675   0.984   1.710  11.449
  861MPD2    C312676   0.927   1.695  11.321
  861MPD2    C412677   0.989   1.624  11.221
  861MPD2    C512678   1.096   1.549  11.250
  861MPD2     H12679   0.931   1.773  11.519
  861MPD2    H112680   0.935   1.612  11.128
  861MPD2    H212681   1.239   1.496  11.397
  861MPD2    H312682   1.154   1.502  11.172
  861MPD2     N12683   0.805   1.759  11.290
  861MPD2    H512684   0.785   1.752  11.191
  861MPD2    N112685   1.152   1.652  11.605
  861MPD2    H712686   1.114   1.730  11.657
  862MPD2     C12687   0.730   1.857  10.670
  862MPD2    C112688   0.649   1.799  10.761
  862MPD2    C212689   0.614   1.664  10.749
  862MPD2    C312690   0.664   1.585  10.642
  862MPD2    C412691   0.745   1.647  10.550
  862MPD2    C512692   0.773   1.782  10.563
  862MPD2     H12693   0.540   1.619  10.813
  862MPD2    H112694   0.796   1.599  10.468
  862MPD2    H212695   0.756   1.963  10.675
  862MPD2    H312696   0.834   1.842  10.496
  862MPD2     N12697   0.625   1.455  10.613
  862MPD2    H512698   0.670   1.423  10.528
  862MPD2    N112699   0.607   1.868  10.880
  862MPD2    H712700   0.551   1.811  10.943
  863MPD2     C12701   4.509   4.393  17.127
  863MPD2    C112702   4.521   4.523  17.172
  863MPD2    C212703   4.624   4.559  17.258
  863MPD2    C312704   4.690   4.458  17.324
  863MPD2    C412705   4.665   4.328  17.289
  863MPD2    C512706   4.574   4.295  17.193
  863MPD2     H12707   4.633   4.666  17.273
  863MPD2    H112708   4.705   4.243  17.343
  863MPD2    H212709   4.435   4.359  17.056
  863MPD2    H312710   4.564   4.191  17.167
  863MPD2     N12711   0.008   4.477  17.421
  863MPD2    H512712   0.030   4.401  17.484
  863MPD2    N112713   4.429   4.618  17.120
  863MPD2    H712714   4.361   4.577  17.058
  864MPD2     C12715   0.087   1.408  17.321
  864MPD2    C112716   0.146   1.305  17.254
  864MPD2    C212717   0.243   1.323  17.158
  864MPD2    C312718   0.294   1.451  17.137
  864MPD2    C412719   0.230   1.558  17.200
  864MPD2    C512720   0.132   1.537  17.293
  864MPD2     H12721   0.296   1.247  17.103
  864MPD2    H112722   0.260   1.660  17.174
  864MPD2    H212723   0.004   1.394  17.388
  864MPD2    H312724   0.080   1.618  17.344
  864MPD2     N12725   0.400   1.473  17.043
  864MPD2    H512726   0.408   1.569  17.009
  864MPD2    N112727   0.102   1.174  17.288
  864MPD2    H712728   0.058   1.165  17.380
  865MPD2     C12729   0.302   1.352  16.302
  865MPD2    C112730   0.428   1.313  16.353
  865MPD2    C212731   0.493   1.405  16.442
  865MPD2    C312732   0.437   1.520  16.484
  865MPD2    C412733   0.310   1.551  16.433
  865MPD2    C512734   0.250   1.466  16.343
  865MPD2     H12735   0.585   1.379  16.493
  865MPD2    H112736   0.264   1.646  16.461
  865MPD2    H212737   0.246   1.273  16.252
  865MPD2    H312738   0.154   1.501  16.305
  865MPD2     N12739   0.502   1.595  16.583
  865MPD2    H512740   0.460   1.659  16.650
  865MPD2    N112741   0.469   1.179  16.330
  865MPD2    H712742   0.410   1.127  16.265
  866MPD2     C12743   1.766   1.887  11.912
  866MPD2    C112744   1.762   1.845  11.781
  866MPD2    C212745   1.650   1.885  11.708
  866MPD2    C312746   1.545   1.947  11.769
  866MPD2    C412747   1.539   1.960  11.903
  866MPD2    C512748   1.652   1.929  11.973
  866MPD2     H12749   1.659   1.869  11.601
  866MPD2    H112750   1.451   1.999  11.952
  866MPD2    H212751   1.850   1.857  11.974
  866MPD2    H312752   1.657   1.939  12.081
  866MPD2     N12753   1.429   1.983  11.698
  866MPD2    H512754   1.355   2.023  11.755
  866MPD2    N112755   1.884   1.815  11.716
  866MPD2    H712756   1.966   1.840  11.770
  867MPD2     C12757   3.712   1.216  16.853
  867MPD2    C112758   3.820   1.223  16.938
  867MPD2    C212759   3.847   1.334  17.007
  867MPD2    C312760   3.757   1.439  17.004
  867MPD2    C412761   3.651   1.438  16.918
  867MPD2    C512762   3.627   1.324  16.843
  867MPD2     H12763   3.928   1.327  17.080
  867MPD2    H112764   3.586   1.525  16.921
  867MPD2    H212765   3.702   1.123  16.798
  867MPD2    H312766   3.561   1.334  16.757
  867MPD2     N12767   3.777   1.564  17.072
  867MPD2    H512768   3.726   1.645  17.038
  867MPD2    N112769   3.902   1.106  16.948
  867MPD2    H712770   3.869   1.034  16.884
  868MPD2     C12771   0.950   4.691  13.487
  868MPD2    C112772   1.033   0.022  13.509
  868MPD2    C212773   0.963   0.135  13.557
  868MPD2    C312774   0.828   0.131  13.595
  868MPD2    C412775   0.764   0.011  13.598
  868MPD2    C512776   0.825   4.687  13.531
  868MPD2     H12777   1.019   0.227  13.563
  868MPD2    H112778   0.665   4.781  13.641
  868MPD2    H212779   0.997   4.599  13.454
  868MPD2    H312780   0.778   4.589  13.538
  868MPD2     N12781   0.781   0.241  13.665
  868MPD2    H512782   0.850   0.316  13.667
  868MPD2    N112783   1.155   0.034  13.442
  868MPD2    H712784   1.185   4.731  13.393
  869MPD2     C12785   1.404   3.009  19.084
  869MPD2    C112786   1.506   2.989  19.171
  869MPD2    C212787   1.626   3.057  19.134
  869MPD2    C312788   1.631   3.149  19.022
  869MPD2    C412789   1.514   3.171  18.955
  869MPD2    C512790   1.402   3.105  18.983
  869MPD2     H12791   1.704   3.076  19.208
  869MPD2    H112792   1.511   3.237  18.869
  869MPD2    H212793   1.313   2.950  19.096
  869MPD2    H312794   1.316   3.116  18.919
  869MPD2     N12795   1.749   3.218  18.981
  869MPD2    H512796   1.740   3.266  18.892
  869MPD2    N112797   1.496   2.881  19.257
  869MPD2    H712798   1.401   2.847  19.273
  870MPD2     C12799   1.925   1.399  19.289
  870MPD2    C112800   1.985   1.506  19.354
  870MPD2    C212801   1.987   1.632  19.299
  870MPD2    C312802   1.950   1.653  19.168
  870MPD2    C412803   1.888   1.547  19.097
  870MPD2    C512804   1.874   1.424  19.166
  870MPD2     H12805   2.012   1.718  19.359
  870MPD2    H112806   1.846   1.543  18.997
  870MPD2    H212807   1.911   1.297  19.324
  870MPD2    H312808   1.813   1.357  19.106
  870MPD2     N12809   1.937   1.783  19.110
  870MPD2    H512810   1.955   1.857  19.177
  870MPD2    N112811   2.038   1.470  19.486
  870MPD2    H712812   2.040   1.374  19.518
  871MPD2     C12813   2.997   1.267  16.596
  871MPD2    C112814   2.995   1.228  16.723
  871MPD2    C212815   3.063   1.107  16.756
  871MPD2    C312816   3.130   1.040  16.654
  871MPD2    C412817   3.125   1.083  16.525
  871MPD2    C512818   3.052   1.193  16.499
  871MPD2     H12819   3.063   1.062  16.854
  871MPD2    H112820   3.155   1.027  16.437
  871MPD2    H212821   2.952   1.365  16.585
  871MPD2    H312822   3.036   1.224  16.397
  871MPD2     N12823   3.205   0.926  16.683
  871MPD2    H512824   3.223   0.914  16.782
  871MPD2    N112825   2.935   1.316  16.821
  871MPD2    H712826   2.921   1.416  16.807
  872MPD2     C12827   3.776   3.697  14.469
  872MPD2    C112828   3.736   3.824  14.432
  872MPD2    C212829   3.604   3.849  14.433
  872MPD2    C312830   3.511   3.759  14.483
  872MPD2    C412831   3.552   3.634  14.520
  872MPD2    C512832   3.680   3.607  14.517
  872MPD2     H12833   3.579   3.942  14.384
  872MPD2    H112834   3.479   3.563  14.558
  872MPD2    H212835   3.877   3.658  14.460
  872MPD2    H312836   3.705   3.512  14.562
  872MPD2     N12837   3.370   3.783  14.496
  872MPD2    H512838   3.311   3.718  14.546
  872MPD2    N112839   3.830   3.917  14.368
  872MPD2    H712840   3.794   4.008  14.339
  873MPD2     C12841   1.234   3.397  18.674
  873MPD2    C112842   1.174   3.407  18.798
  873MPD2    C212843   1.105   3.300  18.857
  873MPD2    C312844   1.108   3.170  18.793
  873MPD2    C412845   1.185   3.159  18.677
  873MPD2    C512846   1.241   3.269  18.614
  873MPD2     H12847   1.046   3.333  18.942
  873MPD2    H112848   1.198   3.061  18.633
  873MPD2    H212849   1.288   3.471  18.616
  873MPD2    H312850   1.299   3.252  18.524
  873MPD2     N12851   1.037   3.054  18.841
  873MPD2    H512852   1.042   2.976  18.776
  873MPD2    N112853   1.181   3.532  18.860
  873MPD2    H712854   1.200   3.618  18.809
  874MPD2     C12855   0.503   3.889  16.188
  874MPD2    C112856   0.539   3.860  16.310
  874MPD2    C212857   0.642   3.925  16.369
  874MPD2    C312858   0.715   4.018  16.296
  874MPD2    C412859   0.683   4.046  16.157
  874MPD2    C512860   0.573   3.975  16.110
  874MPD2     H12861   0.678   3.894  16.466
  874MPD2    H112862   0.738   4.115  16.095
  874MPD2    H212863   0.414   3.844  16.144
  874MPD2    H312864   0.538   3.992  16.009
  874MPD2     N12865   0.816   4.082  16.365
  874MPD2    H512866   0.807   4.075  16.466
  874MPD2    N112867   0.463   3.751  16.376
  874MPD2    H712868   0.376   3.719  16.336
  875MPD2     C12869   1.703   2.156  14.648
  875MPD2    C112870   1.583   2.144  14.718
  875MPD2    C212871   1.579   2.134  14.853
  875MPD2    C312872   1.697   2.160  14.923
  875MPD2    C412873   1.811   2.186  14.856
  875MPD2    C512874   1.819   2.173  14.720
  875MPD2     H12875   1.486   2.114  14.906
  875MPD2    H112876   1.903   2.198  14.911
  875MPD2    H212877   1.721   2.169  14.542
  875MPD2    H312878   1.911   2.194  14.666
  875MPD2     N12879   1.705   2.172  15.066
  875MPD2    H512880   1.796   2.204  15.097
  875MPD2    N112881   1.459   2.136  14.643
  875MPD2    H712882   1.377   2.124  14.701
  876MPD2     C12883   0.174   3.228  16.251
  876MPD2    C112884   0.311   3.197  16.253
  876MPD2    C212885   0.353   3.067  16.279
  876MPD2    C312886   0.265   2.980  16.335
  876MPD2    C412887   0.134   3.017  16.348
  876MPD2    C512888   0.088   3.136  16.297
  876MPD2     H12889   0.459   3.044  16.274
  876MPD2    H112890   0.050   2.964  16.392
  876MPD2    H212891   0.139   3.325  16.217
  876MPD2    H312892   4.765   3.164  16.311
  876MPD2     N12893   0.315   2.855  16.378
  876MPD2    H512894   0.413   2.837  16.357
  876MPD2    N112895   0.388   3.283  16.186
  876MPD2    H712896   0.338   3.356  16.135
  877MPD2     C12897   0.264   3.749  15.695
  877MPD2    C112898   0.394   3.708  15.676
  877MPD2    C212899   0.435   3.707  15.540
  877MPD2    C312900   0.350   3.734  15.435
  877MPD2    C412901   0.217   3.742  15.461
  877MPD2    C512902   0.172   3.746  15.594
  877MPD2     H12903   0.538   3.677  15.526
  877MPD2    H112904   0.150   3.763  15.379
  877MPD2    H212905   0.224   3.747  15.796
  877MPD2    H312906   0.075   3.785  15.622
  877MPD2     N12907   0.399   3.750  15.306
  877MPD2    H512908   0.327   3.723  15.240
  877MPD2    N112909   0.484   3.672  15.771
  877MPD2    H712910   0.574   3.645  15.732
  878MPD2     C12911   4.762   3.215  13.701
  878MPD2    C112912   0.072   3.317  13.728
  878MPD2    C212913   0.064   3.390  13.848
  878MPD2    C312914   4.748   3.352  13.941
  878MPD2    C412915   4.647   3.261  13.912
  878MPD2    C512916   4.667   3.190  13.797
  878MPD2     H12917   0.137   3.468  13.866
  878MPD2    H112918   4.570   3.227  13.981
  878MPD2    H212919   4.776   3.161  13.608
  878MPD2    H312920   4.600   3.107  13.774
  878MPD2     N12921   4.760   3.412  14.069
  878MPD2    H512922   0.060   3.471  14.084
  878MPD2    N112923   0.162   3.346  13.625
  878MPD2    H712924   0.155   3.295  13.538
  879MPD2     C12925   0.567   4.644  17.395
  879MPD2    C112926   0.606   4.516  17.424
  879MPD2    C212927   0.567   4.413  17.344
  879MPD2    C312928   0.482   4.437  17.236
  879MPD2    C412929   0.433   4.566  17.213
  879MPD2    C512930   0.479   4.665  17.295
  879MPD2     H12931   0.613   4.315  17.348
  879MPD2    H112932   0.364   4.581  17.131
  879MPD2    H212933   0.597   4.732  17.451
  879MPD2    H312934   0.444   4.767  17.282
  879MPD2     N12935   0.451   4.334  17.139
  879MPD2    H512936   0.395   4.368  17.062
  879MPD2    N112937   0.701   4.505  17.527
  879MPD2    H712938   0.742   4.589  17.566
  880MPD2     C12939   1.673   1.287  18.573
  880MPD2    C112940   1.778   1.372  18.564
  880MPD2    C212941   1.884   1.355  18.646
  880MPD2    C312942   1.888   1.251  18.743
  880MPD2    C412943   1.775   1.166  18.746
  880MPD2    C512944   1.674   1.181  18.662
  880MPD2     H12945   1.974   1.416  18.645
  880MPD2    H112946   1.770   1.085  18.819
  880MPD2    H212947   1.581   1.300  18.517
  880MPD2    H312948   1.584   1.120  18.664
  880MPD2     N12949   1.997   1.234  18.828
  880MPD2    H512950   2.074   1.295  18.802
  880MPD2    N112951   1.751   1.483  18.484
  880MPD2    H712952   1.659   1.485  18.442
  881MPD2     C12953   1.895   2.368  17.847
  881MPD2    C112954   1.917   2.230  17.828
  881MPD2    C212955   1.884   2.144  17.931
  881MPD2    C312956   1.843   2.192  18.053
  881MPD2    C412957   1.825   2.327  18.067
  881MPD2    C512958   1.860   2.413  17.970
  881MPD2     H12959   1.908   2.039  17.930
  881MPD2    H112960   1.817   2.367  18.168
  881MPD2    H212961   1.924   2.439  17.771
  881MPD2    H312962   1.854   2.519  17.992
  881MPD2     N12963   1.809   2.101  18.166
  881MPD2    H512964   1.824   2.141  18.258
  881MPD2    N112965   1.965   2.191  17.703
  881MPD2    H712966   1.955   2.264  17.634
  882MPD2     C12967   0.257   3.816  14.464
  882MPD2    C112968   0.225   3.822  14.602
  882MPD2    C212969   0.092   3.845  14.632
  882MPD2    C312970   0.003   3.868  14.533
  882MPD2    C412971   0.047   3.874  14.401
  882MPD2    C512972   0.172   3.841  14.363
  882MPD2     H12973   0.056   3.848  14.734
  882MPD2    H112974   4.765   3.905  14.318
  882MPD2    H212975   0.359   3.793  14.438
  882MPD2    H312976   0.216   3.838  14.264
  882MPD2     N12977   4.647   3.901  14.560
  882MPD2    H512978   4.590   3.929  14.481
  882MPD2    N112979   0.325   3.785  14.701
  882MPD2    H712980   0.422   3.773  14.672
  883MPD2     C12981   2.347   3.465  16.574
  883MPD2    C112982   2.383   3.543  16.466
  883MPD2    C212983   2.473   3.648  16.494
  883MPD2    C312984   2.533   3.666  16.620
  883MPD2    C412985   2.481   3.596  16.727
  883MPD2    C512986   2.394   3.492  16.698
  883MPD2     H12987   2.503   3.713  16.412
  883MPD2    H112988   2.514   3.606  16.830
  883MPD2    H212989   2.280   3.383  16.552
  883MPD2    H312990   2.361   3.439  16.786
  883MPD2     N12991   2.640   3.761  16.630
  883MPD2    H512992   2.695   3.764  16.544
  883MPD2    N112993   2.330   3.532  16.335
  883MPD2    H712994   2.354   3.608  16.272
  884MPD2     C12995   4.250   4.356  15.757
  884MPD2    C112996   4.200   4.396  15.634
  884MPD2    C212997   4.076   4.454  15.629
  884MPD2    C312998   4.002   4.487  15.746
  884MPD2    C412999   4.060   4.452  15.865
  884MPD2    C513000   4.181   4.388  15.871
  884MPD2     H13001   4.031   4.490  15.537
  884MPD2    H113002   4.014   4.475  15.960
  884MPD2    H213003   4.346   4.306  15.763
  884MPD2    H313004   4.228   4.361  15.964
  884MPD2     N13005   3.878   4.553  15.725
  884MPD2    H513006   3.848   4.571  15.630
  884MPD2    N113007   4.263   4.356  15.514
  884MPD2    H713008   4.199   4.339  15.437
  885MPD2     C13009   2.700   4.686  18.545
  885MPD2    C113010   2.801   4.780  18.545
  885MPD2    C213011   2.797   0.102  18.449
  885MPD2    C313012   2.696   0.105  18.352
  885MPD2    C413013   2.592   0.015  18.354
  885MPD2    C513014   2.599   4.691  18.450
  885MPD2     H13015   2.861   0.189  18.446
  885MPD2    H113016   2.514   0.002  18.280
  885MPD2    H213017   2.701   4.608  18.621
  885MPD2    H313018   2.531   4.607  18.443
  885MPD2     N13019   2.719   0.198  18.243
  885MPD2    H513020   2.813   0.234  18.230
  885MPD2    N113021   2.888   4.771  18.649
  885MPD2    H713022   2.878   4.685  18.703
  886MPD2     C13023   3.884   3.248  15.246
  886MPD2    C113024   3.953   3.232  15.367
  886MPD2    C213025   3.901   3.315  15.472
  886MPD2    C313026   3.793   3.401  15.452
  886MPD2    C413027   3.712   3.398  15.339
  886MPD2    C513028   3.765   3.320  15.237
  886MPD2     H13029   3.957   3.326  15.564
  886MPD2    H113030   3.633   3.471  15.323
  886MPD2    H213031   3.910   3.189  15.159
  886MPD2    H313032   3.714   3.311  15.141
  886MPD2     N13033   3.764   3.508  15.541
  886MPD2    H513034   3.691   3.572  15.512
  886MPD2    N113035   4.084   3.180  15.375
  886MPD2    H713036   4.136   3.207  15.458
  887MPD2     C13037   4.660   3.166  15.834
  887MPD2    C113038   4.550   3.235  15.781
  887MPD2    C213039   4.523   3.363  15.827
  887MPD2    C313040   4.603   3.422  15.921
  887MPD2    C413041   4.707   3.354  15.974
  887MPD2    C513042   4.732   3.224  15.930
  887MPD2     H13043   4.436   3.414  15.786
  887MPD2    H113044   4.774   3.401  16.046
  887MPD2    H213045   4.690   3.066  15.803
  887MPD2    H313046   0.032   3.168  15.975
  887MPD2     N13047   4.571   3.552  15.963
  887MPD2    H513048   4.503   3.604  15.908
  887MPD2    N113049   4.462   3.176  15.680
  887MPD2    H713050   4.387   3.236  15.647
  888MPD2     C13051   1.329   3.367  14.958
  888MPD2    C113052   1.379   3.365  15.088
  888MPD2    C213053   1.437   3.481  15.134
  888MPD2    C313054   1.452   3.597  15.055
  888MPD2    C413055   1.401   3.599  14.928
  888MPD2    C513056   1.330   3.489  14.892
  888MPD2     H13057   1.470   3.475  15.237
  888MPD2    H113058   1.408   3.684  14.861
  888MPD2    H213059   1.265   3.286  14.925
  888MPD2    H313060   1.282   3.490  14.794
  888MPD2     N13061   1.515   3.710  15.111
  888MPD2    H513062   1.561   3.697  15.201
  888MPD2    N113063   1.374   3.251  15.175
  888MPD2    H713064   1.412   3.262  15.268
  889MPD2     C13065   0.599   3.310  13.183
  889MPD2    C113066   0.643   3.239  13.297
  889MPD2    C213067   0.689   3.312  13.404
  889MPD2    C313068   0.665   3.449  13.414
  889MPD2    C413069   0.608   3.512  13.306
  889MPD2    C513070   0.589   3.445  13.190
  889MPD2     H13071   0.721   3.249  13.486
  889MPD2    H113072   0.576   3.616  13.314
  889MPD2    H213073   0.583   3.269  13.084
  889MPD2    H313074   0.544   3.498  13.106
  889MPD2     N13075   0.663   3.507  13.547
  889MPD2    H513076   0.670   3.446  13.627
  889MPD2    N113077   0.673   3.100  13.295
  889MPD2    H713078   0.733   3.073  13.373
  890MPD2     C13079   0.496   4.405  14.896
  890MPD2    C113080   0.613   4.462  14.943
  890MPD2    C213081   0.651   4.437  15.069
  890MPD2    C313082   0.580   4.355  15.156
  890MPD2    C413083   0.472   4.294  15.099
  890MPD2    C513084   0.433   4.315  14.971
  890MPD2     H13085   0.732   4.487  15.122
  890MPD2    H113086   0.412   4.223  15.154
  890MPD2    H213087   0.460   4.423  14.796
  890MPD2    H313088   0.353   4.262  14.922
  890MPD2     N13089   0.642   4.331  15.280
  890MPD2    H513090   0.733   4.375  15.294
  890MPD2    N113091   0.667   4.555  14.855
  890MPD2    H713092   0.622   4.587  14.770
  891MPD2     C13093   2.947   2.774  16.867
  891MPD2    C113094   2.981   2.870  16.779
  891MPD2    C213095   3.114   2.906  16.755
  891MPD2    C313096   3.213   2.852  16.835
  891MPD2    C413097   3.176   2.751  16.920
  891MPD2    C513098   3.045   2.715  16.938
  891MPD2     H13099   3.152   2.986  16.693
  891MPD2    H113100   3.246   2.714  16.995
  891MPD2    H213101   2.845   2.757  16.899
  891MPD2    H313102   3.036   2.636  17.012
  891MPD2     N13103   3.341   2.908  16.823
  891MPD2    H513104   3.351   2.999  16.779
  891MPD2    N113105   2.876   2.918  16.694
  891MPD2    H713106   2.789   2.867  16.705
  892MPD2     C13107   4.218   4.019  15.440
  892MPD2    C113108   4.123   4.041  15.343
  892MPD2    C213109   4.152   4.009  15.213
  892MPD2    C313110   4.271   3.953  15.170
  892MPD2    C413111   4.364   3.933  15.272
  892MPD2    C513112   4.341   3.972  15.401
  892MPD2     H13113   4.070   4.019  15.143
  892MPD2    H113114   4.463   3.897  15.249
  892MPD2    H213115   4.212   4.041  15.546
  892MPD2    H313116   4.421   3.958  15.472
  892MPD2     N13117   4.294   3.911  15.038
  892MPD2    H513118   4.381   3.861  15.018
  892MPD2    N113119   3.994   4.092  15.368
  892MPD2    H713120   3.935   4.121  15.291
  893MPD2     C13121   1.092   2.603  18.134
  893MPD2    C113122   1.168   2.558  18.242
  893MPD2    C213123   1.127   2.441  18.305
  893MPD2    C313124   1.016   2.368  18.266
  893MPD2    C413125   0.956   2.404  18.153
  893MPD2    C513126   0.993   2.522  18.092
  893MPD2     H13127   1.176   2.425  18.400
  893MPD2    H113128   0.867   2.355  18.115
  893MPD2    H213129   1.132   2.676  18.063
  893MPD2    H313130   0.932   2.568  18.015
  893MPD2     N13131   0.976   2.247  18.330
  893MPD2    H513132   0.911   2.185  18.282
  893MPD2    N113133   1.271   2.646  18.287
  893MPD2    H713134   1.278   2.746  18.275
  894MPD2     C13135   4.350   0.510  19.007
  894MPD2    C113136   4.321   0.534  19.134
  894MPD2    C213137   4.347   0.651  19.197
  894MPD2    C313138   4.389   0.753  19.115
  894MPD2    C413139   4.421   0.729  18.982
  894MPD2    C513140   4.407   0.605  18.929
  894MPD2     H13141   4.325   0.671  19.301
  894MPD2    H113142   4.456   0.818  18.930
  894MPD2    H213143   4.340   0.419  18.949
  894MPD2    H313144   4.432   0.602  18.824
  894MPD2     N13145   4.413   0.880  19.174
  894MPD2    H513146   4.460   0.878  19.263
  894MPD2    N113147   4.263   0.425  19.207
  894MPD2    H713148   4.241   0.438  19.305
  895MPD2     C13149   3.419   3.478  14.151
  895MPD2    C113150   3.406   3.348  14.105
  895MPD2    C213151   3.511   3.257  14.121
  895MPD2    C313152   3.638   3.305  14.143
  895MPD2    C413153   3.648   3.429  14.193
  895MPD2    C513154   3.537   3.514  14.198
  895MPD2     H13155   3.477   3.159  14.091
  895MPD2    H113156   3.745   3.461  14.227
  895MPD2    H213157   3.347   3.557  14.132
  895MPD2    H313158   3.562   3.616  14.223
  895MPD2     N13159   3.757   3.230  14.142
  895MPD2    H513160   3.836   3.285  14.174
  895MPD2    N113161   3.287   3.300  14.034
  895MPD2    H713162   3.300   3.208  13.994
  896MPD2     C13163   1.003   1.108  19.636
  896MPD2    C113164   1.012   1.002  19.547
  896MPD2    C213165   0.892   0.950  19.493
  896MPD2    C313166   0.769   1.011  19.515
  896MPD2    C413167   0.763   1.118  19.605
  896MPD2    C513168   0.878   1.160  19.664
  896MPD2     H13169   0.898   0.868  19.423
  896MPD2    H113170   0.670   1.163  19.637
  896MPD2    H213171   1.091   1.158  19.675
  896MPD2    H313172   0.868   1.239  19.737
  896MPD2     N13173   0.654   0.950  19.458
  896MPD2    H513174   0.668   0.873  19.395
  896MPD2    N113175   1.142   0.955  19.519
  896MPD2    H713176   1.216   1.010  19.561
  897MPD2     C13177   2.367   2.427  10.788
  897MPD2    C113178   2.323   2.537  10.851
  897MPD2    C213179   2.218   2.514  10.946
  897MPD2    C313180   2.162   2.389  10.965
  897MPD2    C413181   2.211   2.282  10.895
  897MPD2    C513182   2.311   2.304  10.808
  897MPD2     H13183   2.149   2.585  10.989
  897MPD2    H113184   2.162   2.185  10.898
  897MPD2    H213185   2.445   2.450  10.716
  897MPD2    H313186   2.365   2.222  10.762
  897MPD2     N13187   2.044   2.392  11.046
  897MPD2    H513188   2.024   2.481  11.090
  897MPD2    N113189   2.363   2.673  10.828
  897MPD2    H713190   2.410   2.679  10.738
  898MPD2     C13191   3.646   3.108  17.554
  898MPD2    C113192   3.772   3.159  17.521
  898MPD2    C213193   3.791   3.296  17.511
  898MPD2    C313194   3.687   3.386  17.521
  898MPD2    C413195   3.563   3.333  17.559
  898MPD2    C513196   3.541   3.196  17.568
  898MPD2     H13197   3.894   3.324  17.493
  898MPD2    H113198   3.471   3.391  17.551
  898MPD2    H213199   3.626   3.004  17.574
  898MPD2    H313200   3.444   3.150  17.583
  898MPD2     N13201   3.714   3.522  17.514
  898MPD2    H513202   3.794   3.549  17.458
  898MPD2    N113203   3.892   3.080  17.548
  898MPD2    H713204   3.973   3.139  17.566
  899MPD2     C13205   0.096   4.041  17.826
  899MPD2    C113206   0.132   4.148  17.898
  899MPD2    C213207   0.162   4.135  18.035
  899MPD2    C313208   0.147   4.011  18.095
  899MPD2    C413209   0.128   3.902  18.013
  899MPD2    C513210   0.095   3.920  17.883
  899MPD2     H13211   0.194   4.215  18.101
  899MPD2    H113212   0.116   3.806  18.061
  899MPD2    H213213   0.076   4.047  17.720
  899MPD2    H313214   0.058   3.834  17.828
  899MPD2     N13215   0.168   3.990  18.232
  899MPD2    H513216   0.176   3.892  18.257
  899MPD2    N113217   0.130   4.269  17.832
  899MPD2    H713218   0.094   4.259  17.737
  900MPD2     C13219   4.278   1.262  12.914
  900MPD2    C113220   4.201   1.150  12.925
  900MPD2    C213221   4.078   1.141  12.857
  900MPD2    C313222   4.031   1.245  12.780
  900MPD2    C413223   4.105   1.357  12.769
  900MPD2    C513224   4.231   1.368  12.841
  900MPD2     H13225   4.015   1.056  12.878
  900MPD2    H113226   4.069   1.443  12.714
  900MPD2    H213227   4.371   1.269  12.969
  900MPD2    H313228   4.288   1.460  12.838
  900MPD2     N13229   3.913   1.224  12.703
  900MPD2    H513230   3.851   1.149  12.731
  900MPD2    N113231   4.248   1.045  13.005
  900MPD2    H713232   4.342   1.061  13.039
  901MPD2     C13233   4.247   0.019  13.197
  901MPD2    C113234   4.386   0.048  13.216
  901MPD2    C213235   4.422   0.181  13.227
  901MPD2    C313236   4.327   0.281  13.223
  901MPD2    C413237   4.195   0.253  13.196
  901MPD2    C513238   4.158   0.124  13.188
  901MPD2     H13239   4.525   0.206  13.252
  901MPD2    H113240   4.122   0.333  13.193
  901MPD2    H213241   4.220   4.695  13.195
  901MPD2    H313242   4.053   0.102  13.170
  901MPD2     N13243   4.373   0.419  13.239
  901MPD2    H513244   4.471   0.432  13.217
  901MPD2    N113245   4.475   4.720  13.220
  901MPD2    H713246   4.436   4.627  13.212
  902MPD2     C13247   3.236   3.639  13.357
  902MPD2    C113248   3.269   3.772  13.352
  902MPD2    C213249   3.391   3.803  13.295
  902MPD2    C313250   3.457   3.709  13.219
  902MPD2    C413251   3.408   3.579  13.221
  902MPD2    C513252   3.293   3.542  13.286
  902MPD2     H13253   3.420   3.907  13.294
  902MPD2    H113254   3.444   3.495  13.164
  902MPD2    H213255   3.147   3.608  13.411
  902MPD2    H313256   3.265   3.438  13.297
  902MPD2     N13257   3.571   3.731  13.132
  902MPD2    H513258   3.604   3.657  13.071
  902MPD2    N113259   3.179   3.865  13.413
  902MPD2    H713260   3.112   3.818  13.474
  903MPD2     C13261   3.682   4.059  12.329
  903MPD2    C113262   3.632   4.000  12.438
  903MPD2    C213263   3.519   3.913  12.428
  903MPD2    C313264   3.458   3.886  12.304
  903MPD2    C413265   3.508   3.957  12.196
  903MPD2    C513266   3.620   4.032  12.211
  903MPD2     H13267   3.467   3.869  12.512
  903MPD2    H113268   3.468   3.945  12.096
  903MPD2    H213269   3.772   4.120  12.330
  903MPD2    H313270   3.659   4.083  12.122
  903MPD2     N13271   3.349   3.800  12.302
  903MPD2    H513272   3.322   3.780  12.398
  903MPD2    N113273   3.686   4.018  12.563
  903MPD2    H713274   3.768   4.077  12.572
  904MPD2     C13275   3.161   2.814  14.091
  904MPD2    C113276   3.151   2.715  14.190
  904MPD2    C213277   3.259   2.705  14.268
  904MPD2    C313278   3.363   2.793  14.265
  904MPD2    C413279   3.366   2.900  14.183
  904MPD2    C513280   3.264   2.908  14.093
  904MPD2     H13281   3.267   2.626  14.342
  904MPD2    H113282   3.445   2.973  14.196
  904MPD2    H213283   3.087   2.827  14.012
  904MPD2    H313284   3.260   2.994  14.026
  904MPD2     N13285   3.474   2.758  14.347
  904MPD2    H513286   3.465   2.672  14.401
  904MPD2    N113287   3.048   2.616  14.196
  904MPD2    H713288   3.056   2.541  14.264
  905MPD2     C13289   3.018   2.809  13.571
  905MPD2    C113290   3.031   2.881  13.690
  905MPD2    C213291   3.162   2.939  13.718
  905MPD2    C313292   3.266   2.900  13.634
  905MPD2    C413293   3.247   2.824  13.516
  905MPD2    C513294   3.124   2.776  13.491
  905MPD2     H13295   3.173   3.013  13.797
  905MPD2    H113296   3.343   2.805  13.469
  905MPD2    H213297   2.931   2.761  13.529
  905MPD2    H313298   3.108   2.710  13.407
  905MPD2     N13299   3.396   2.935  13.667
  905MPD2    H513300   3.468   2.890  13.612
  905MPD2    N113301   2.918   2.898  13.764
  905MPD2    H713302   2.832   2.858  13.726
  906MPD2     C13303   0.813   2.943  11.741
  906MPD2    C113304   0.768   2.833  11.663
  906MPD2    C213305   0.679   2.741  11.716
  906MPD2    C313306   0.620   2.758  11.841
  906MPD2    C413307   0.656   2.876  11.904
  906MPD2    C513308   0.746   2.971  11.857
  906MPD2     H13309   0.641   2.665  11.649
  906MPD2    H113310   0.611   2.893  12.001
  906MPD2    H213311   0.878   3.025  11.715
  906MPD2    H313312   0.774   3.063  11.905
  906MPD2     N13313   0.520   2.682  11.885
  906MPD2    H513314   0.469   2.721  11.964
  906MPD2    N113315   0.818   2.816  11.531
  906MPD2    H713316   0.767   2.752  11.471
  907MPD2     C13317   3.947   2.060  15.781
  907MPD2    C113318   4.045   1.973  15.733
  907MPD2    C213319   4.126   1.908  15.824
  907MPD2    C313320   4.141   1.952  15.951
  907MPD2    C413321   4.055   2.051  15.993
  907MPD2    C513322   3.956   2.099  15.908
  907MPD2     H13323   4.196   1.829  15.802
  907MPD2    H113324   4.057   2.106  16.086
  907MPD2    H213325   3.879   2.107  15.711
  907MPD2    H313326   3.897   2.181  15.948
  907MPD2     N13327   4.246   1.895  16.026
  907MPD2    H513328   4.307   1.830  15.978
  907MPD2    N113329   4.050   1.933  15.605
  907MPD2    H713330   4.114   1.859  15.577
  908MPD2     C13331   2.210   2.941  10.006
  908MPD2    C113332   2.230   2.827  10.073
  908MPD2    C213333   2.263   2.835  10.211
  908MPD2    C313334   2.270   2.956  10.278
  908MPD2    C413335   2.234   3.071  10.202
  908MPD2    C513336   2.216   3.067  10.067
  908MPD2     H13337   2.264   2.746  10.273
  908MPD2    H113338   2.243   3.170  10.245
  908MPD2    H213339   2.186   2.932   9.900
  908MPD2    H313340   2.220   3.155  10.005
  908MPD2     N13341   2.306   2.959  10.418
  908MPD2    H513342   2.353   2.877  10.456
  908MPD2    N113343   2.222   2.703  10.000
  908MPD2    H713344   2.218   2.697   9.899
  909MPD2     C13345   2.502   0.745  11.727
  909MPD2    C113346   2.482   0.880  11.724
  909MPD2    C213347   2.434   0.946  11.838
  909MPD2    C313348   2.419   0.877  11.955
  909MPD2    C413349   2.444   0.738  11.962
  909MPD2    C513350   2.475   0.677  11.841
  909MPD2     H13351   2.392   1.046  11.844
  909MPD2    H113352   2.429   0.682  12.054
  909MPD2    H213353   2.528   0.686  11.640
  909MPD2    H313354   2.476   0.568  11.839
  909MPD2     N13355   2.381   0.950  12.071
  909MPD2    H513356   2.359   1.049  12.064
  909MPD2    N113357   2.514   0.965  11.614
  909MPD2    H713358   2.487   1.062  11.624
  910MPD2     C13359   3.598   2.754  16.571
  910MPD2    C113360   3.636   2.647  16.492
  910MPD2    C213361   3.590   2.635  16.367
  910MPD2    C313362   3.514   2.735  16.308
  910MPD2    C413363   3.493   2.848  16.383
  910MPD2    C513364   3.524   2.852  16.515
  910MPD2     H13365   3.615   2.542  16.318
  910MPD2    H113366   3.445   2.934  16.336
  910MPD2    H213367   3.629   2.778  16.672
  910MPD2    H313368   3.501   2.939  16.575
  910MPD2     N13369   3.474   2.731  16.175
  910MPD2    H513370   3.398   2.793  16.151
  910MPD2    N113371   3.718   2.548  16.554
  910MPD2    H713372   3.733   2.466  16.496
  911MPD2     C13373   1.583   2.869  16.243
  911MPD2    C113374   1.597   2.922  16.369
  911MPD2    C213375   1.521   3.030  16.408
  911MPD2    C313376   1.430   3.082  16.320
  911MPD2    C413377   1.427   3.039  16.185
  911MPD2    C513378   1.507   2.937  16.148
  911MPD2     H13379   1.536   3.084  16.500
  911MPD2    H113380   1.358   3.077  16.110
  911MPD2    H213381   1.644   2.791  16.198
  911MPD2    H313382   1.498   2.906  16.045
  911MPD2     N13383   1.339   3.182  16.355
  911MPD2    H513384   1.255   3.198  16.301
  911MPD2    N113385   1.683   2.849  16.453
  911MPD2    H713386   1.737   2.782  16.399
  912MPD2     C13387   1.155   3.070  15.915
  912MPD2    C113388   1.112   3.069  16.043
  912MPD2    C213389   1.130   2.954  16.118
  912MPD2    C313390   1.183   2.841  16.057
  912MPD2    C413391   1.198   2.838  15.920
  912MPD2    C513392   1.195   2.958  15.850
  912MPD2     H13393   1.120   2.957  16.226
  912MPD2    H113394   1.241   2.748  15.877
  912MPD2    H213395   1.125   3.158  15.860
  912MPD2    H313396   1.213   2.959  15.743
  912MPD2     N13397   1.200   2.726  16.144
  912MPD2    H513398   1.184   2.742  16.243
  912MPD2    N113399   1.069   3.187  16.106
  912MPD2    H713400   1.079   3.268  16.046
  913MPD2     C13401   2.040   3.971  11.238
  913MPD2    C113402   2.082   4.091  11.287
  913MPD2    C213403   2.058   4.193  11.200
  913MPD2    C313404   1.992   4.181  11.079
  913MPD2    C413405   1.947   4.057  11.038
  913MPD2    C513406   1.975   3.954  11.120
  913MPD2     H13407   2.091   4.289  11.237
  913MPD2    H113408   1.890   4.027  10.951
  913MPD2    H213409   2.050   3.884  11.302
  913MPD2    H313410   1.951   3.854  11.085
  913MPD2     N13411   1.959   4.286  10.991
  913MPD2    H513412   1.871   4.280  10.941
  913MPD2    N113413   2.136   4.094  11.419
  913MPD2    H713414   2.142   4.015  11.482
  914MPD2     C13415   4.604   4.498  12.384
  914MPD2    C113416   4.575   4.609  12.458
  914MPD2    C213417   4.585   4.608  12.597
  914MPD2    C313418   4.620   4.489  12.667
  914MPD2    C413419   4.643   4.379  12.583
  914MPD2    C513420   4.632   4.380  12.447
  914MPD2     H13421   4.581   4.705  12.647
  914MPD2    H113422   4.682   4.284  12.618
  914MPD2    H213423   4.597   4.499  12.276
  914MPD2    H313424   4.641   4.284  12.397
  914MPD2     N13425   4.628   4.493  12.809
  914MPD2    H513426   4.627   4.583  12.855
  914MPD2    N113427   4.532   4.721  12.388
  914MPD2    H713428   4.569   4.721  12.294
  915MPD2     C13429   2.914   4.269  15.695
  915MPD2    C113430   2.796   4.337  15.669
  915MPD2    C213431   2.732   4.401  15.772
  915MPD2    C313432   2.778   4.401  15.900
  915MPD2    C413433   2.890   4.331  15.927
  915MPD2    C513434   2.958   4.264  15.826
  915MPD2     H13435   2.640   4.452  15.747
  915MPD2    H113436   2.942   4.330  16.022
  915MPD2    H213437   2.974   4.218  15.621
  915MPD2    H313438   3.052   4.213  15.843
  915MPD2     N13439   2.703   4.464  16.010
  915MPD2    H513440   2.631   4.529  15.977
  915MPD2    N113441   2.749   4.329  15.537
  915MPD2    H713442   2.781   4.259  15.471
  916MPD2     C13443   0.803   2.641  16.103
  916MPD2    C113444   0.734   2.530  16.118
  916MPD2    C213445   0.779   2.418  16.047
  916MPD2    C313446   0.875   2.424  15.955
  916MPD2    C413447   0.943   2.545  15.936
  916MPD2    C513448   0.901   2.653  16.005
  916MPD2     H13449   0.746   2.316  16.059
  916MPD2    H113450   1.016   2.566  15.858
  916MPD2    H213451   0.767   2.734  16.147
  916MPD2    H313452   0.958   2.745  15.994
  916MPD2     N13453   0.913   2.308  15.891
  916MPD2    H513454   0.880   2.218  15.926
  916MPD2    N113455   0.626   2.533  16.206
  916MPD2    H713456   0.587   2.626  16.217
  917MPD2     C13457   0.938   0.311  11.623
  917MPD2    C113458   1.014   0.351  11.731
  917MPD2    C213459   1.092   0.467  11.710
  917MPD2    C313460   1.093   0.535  11.596
  917MPD2    C413461   1.008   0.492  11.492
  917MPD2    C513462   0.933   0.387  11.508
  917MPD2     H13463   1.157   0.489  11.794
  917MPD2    H113464   1.000   0.536  11.393
  917MPD2    H213465   0.865   0.231  11.624
  917MPD2    H313466   0.879   0.353  11.421
  917MPD2     N13467   1.165   0.652  11.574
  917MPD2    H513468   1.158   0.691  11.481
  917MPD2    N113469   0.991   0.288  11.858
  917MPD2    H713470   0.941   0.199  11.855
  918MPD2     C13471   0.893   0.810  12.660
  918MPD2    C113472   1.017   0.745  12.656
  918MPD2    C213473   1.032   0.624  12.595
  918MPD2    C313474   0.920   0.566  12.532
  918MPD2    C413475   0.800   0.639  12.527
  918MPD2    C513476   0.788   0.758  12.592
  918MPD2     H13477   1.124   0.566  12.589
  918MPD2    H113478   0.713   0.598  12.478
  918MPD2    H213479   0.879   0.907  12.705
  918MPD2    H313480   0.694   0.812  12.596
  918MPD2     N13481   0.945   0.449  12.461
  918MPD2    H513482   1.041   0.419  12.443
  918MPD2    N113483   1.133   0.805  12.719
  918MPD2    H713484   1.220   0.753  12.721
  919MPD2     C13485   1.722   4.177  12.287
  919MPD2    C113486   1.662   4.072  12.220
  919MPD2    C213487   1.681   4.052  12.081
  919MPD2    C313488   1.757   4.154  12.012
  919MPD2    C413489   1.824   4.244  12.086
  919MPD2    C513490   1.814   4.255  12.222
  919MPD2     H13491   1.636   3.971  12.025
  919MPD2    H113492   1.891   4.316  12.041
  919MPD2    H213493   1.706   4.198  12.393
  919MPD2    H313494   1.849   4.339  12.281
  919MPD2     N13495   1.776   4.148  11.874
  919MPD2    H513496   1.840   4.216  11.832
  919MPD2    N113497   1.579   3.978  12.296
  919MPD2    H713498   1.543   3.895  12.250
  920MPD2     C13499   1.629   4.683  11.086
  920MPD2    C113500   1.535   4.587  11.080
  920MPD2    C213501   1.551   4.467  11.150
  920MPD2    C313502   1.662   4.453  11.229
  920MPD2    C413503   1.757   4.555  11.230
  920MPD2    C513504   1.740   4.662  11.148
  920MPD2     H13505   1.472   4.393  11.149
  920MPD2    H113506   1.851   4.543  11.283
  920MPD2    H213507   1.620   0.001  11.042
  920MPD2    H313508   1.818   4.737  11.144
  920MPD2     N13509   1.679   4.336  11.302
  920MPD2    H513510   1.617   4.259  11.278
  920MPD2    N113511   1.413   4.605  11.012
  920MPD2    H713512   1.337   4.539  11.025
  921MPD2     C13513   2.367   3.191  16.927
  921MPD2    C113514   2.350   3.118  16.812
  921MPD2    C213515   2.250   3.026  16.813
  921MPD2    C313516   2.170   2.999  16.922
  921MPD2    C413517   2.181   3.085  17.030
  921MPD2    C513518   2.285   3.174  17.034
  921MPD2     H13519   2.228   2.984  16.715
  921MPD2    H113520   2.115   3.084  17.116
  921MPD2    H213521   2.443   3.267  16.939
  921MPD2    H313522   2.290   3.235  17.123
  921MPD2     N13523   2.075   2.900  16.927
  921MPD2    H513524   1.990   2.929  16.975
  921MPD2    N113525   2.430   3.149  16.696
  921MPD2    H713526   2.522   3.183  16.724
  922MPD2     C13527   3.292   1.146  17.590
  922MPD2    C113528   3.176   1.166  17.661
  922MPD2    C213529   3.106   1.057  17.706
  922MPD2    C313530   3.135   0.925  17.674
  922MPD2    C413531   3.248   0.905  17.597
  922MPD2    C513532   3.323   1.012  17.558
  922MPD2     H13533   3.012   1.074  17.757
  922MPD2    H113534   3.287   0.811  17.561
  922MPD2    H213535   3.348   1.227  17.545
  922MPD2    H313536   3.411   0.987  17.500
  922MPD2     N13537   3.050   0.823  17.726
  922MPD2    H513538   2.963   0.851  17.769
  922MPD2    N113539   3.129   1.290  17.700
  922MPD2    H713540   3.040   1.276  17.748
  923MPD2     C13541   4.758   3.390   9.103
  923MPD2    C113542   4.718   3.417   9.231
  923MPD2    C213543   0.018   3.382   9.341
  923MPD2    C313544   0.140   3.326   9.318
  923MPD2    C413545   0.171   3.285   9.190
  923MPD2    C513546   0.091   3.314   9.086
  923MPD2     H13547   4.765   3.380   9.444
  923MPD2    H113548   0.258   3.221   9.180
  923MPD2    H213549   4.701   3.425   9.018
  923MPD2    H313550   0.110   3.288   8.983
  923MPD2     N13551   0.214   3.277   9.433
  923MPD2    H513552   0.269   3.197   9.403
  923MPD2    N113553   4.591   3.485   9.230
  923MPD2    H713554   4.541   3.506   9.144
  924MPD2     C13555   4.227   1.243  16.138
  924MPD2    C113556   4.311   1.280  16.240
  924MPD2    C213557   4.409   1.373  16.217
  924MPD2    C313558   4.421   1.432  16.091
  924MPD2    C413559   4.337   1.395  15.991
  924MPD2    C513560   4.241   1.308  16.017
  924MPD2     H13561   4.471   1.409  16.298
  924MPD2    H113562   4.346   1.438  15.892
  924MPD2    H213563   4.146   1.177  16.168
  924MPD2    H313564   4.173   1.284  15.937
  924MPD2     N13565   4.498   1.551  16.071
  924MPD2    H513566   4.490   1.597  15.981
  924MPD2    N113567   4.276   1.229  16.366
  924MPD2    H713568   4.185   1.185  16.373
  925MPD2     C13569   3.289   3.899  15.188
  925MPD2    C113570   3.162   3.943  15.141
  925MPD2    C213571   3.070   3.999  15.229
  925MPD2    C313572   3.103   3.996  15.363
  925MPD2    C413573   3.229   3.962  15.405
  925MPD2    C513574   3.321   3.916  15.315
  925MPD2     H13575   2.970   4.026  15.198
  925MPD2    H113576   3.249   3.961  15.512
  925MPD2    H213577   3.368   3.855  15.128
  925MPD2    H313578   3.425   3.894  15.337
  925MPD2     N13579   3.006   3.990  15.471
  925MPD2    H513580   3.044   3.947  15.555
  925MPD2    N113581   3.120   3.924  15.010
  925MPD2    H713582   3.054   3.995  14.978
  926MPD2     C13583   2.147   2.202  13.428
  926MPD2    C113584   2.052   2.300  13.453
  926MPD2    C213585   2.069   2.428  13.416
  926MPD2    C313586   2.185   2.469  13.339
  926MPD2    C413587   2.284   2.369  13.324
  926MPD2    C513588   2.262   2.241  13.362
  926MPD2     H13589   1.989   2.499  13.433
  926MPD2    H113590   2.377   2.400  13.277
  926MPD2    H213591   2.133   2.096  13.447
  926MPD2    H313592   2.330   2.171  13.315
  926MPD2     N13593   2.210   2.601  13.296
  926MPD2    H513594   2.306   2.627  13.276
  926MPD2    N113595   1.919   2.269  13.509
  926MPD2    H713596   1.862   2.353  13.511
  927MPD2     C13597   1.330   4.468  18.116
  927MPD2    C113598   1.441   4.544  18.139
  927MPD2    C213599   1.541   4.545  18.050
  927MPD2    C313600   1.535   4.465  17.936
  927MPD2    C413601   1.420   4.395  17.905
  927MPD2    C513602   1.329   4.393  18.000
  927MPD2     H13603   1.629   4.608  18.063
  927MPD2    H113604   1.399   4.328  17.823
  927MPD2    H213605   1.236   4.473  18.170
  927MPD2    H313606   1.243   4.329  17.988
  927MPD2     N13607   1.652   4.470  17.852
  927MPD2    H513608   1.725   4.538  17.871
  927MPD2    N113609   1.433   4.631  18.255
  927MPD2    H713610   1.352   4.631  18.316
  928MPD2     C13611   3.981   2.713  18.781
  928MPD2    C113612   3.985   2.857  18.759
  928MPD2    C213613   4.077   2.893  18.666
  928MPD2    C313614   4.162   2.805  18.603
  928MPD2    C413615   4.147   2.668  18.623
  928MPD2    C513616   4.055   2.621  18.717
  928MPD2     H13617   4.096   2.998  18.646
  928MPD2    H113618   4.209   2.607  18.558
  928MPD2    H213619   3.916   2.666  18.854
  928MPD2    H313620   4.052   2.513  18.726
  928MPD2     N13621   4.264   2.857  18.526
  928MPD2    H513622   4.315   2.783  18.477
  928MPD2    N113623   3.899   2.938  18.827
  928MPD2    H713624   3.844   2.892  18.899
  929MPD2     C13625   4.512   3.176  10.099
  929MPD2    C113626   4.412   3.122  10.176
  929MPD2    C213627   4.312   3.057  10.107
  929MPD2    C313628   4.294   3.068   9.972
  929MPD2    C413629   4.405   3.115   9.893
  929MPD2    C513630   4.511   3.166   9.963
  929MPD2     H13631   4.234   3.003  10.157
  929MPD2    H113632   4.402   3.110   9.785
  929MPD2    H213633   4.598   3.223  10.145
  929MPD2    H313634   4.592   3.221   9.916
  929MPD2     N13635   4.183   3.014   9.901
  929MPD2    H513636   4.204   2.989   9.805
  929MPD2    N113637   4.428   3.131  10.316
  929MPD2    H713638   4.513   3.176  10.348
  930MPD2     C13639   1.280   0.307  14.352
  930MPD2    C113640   1.386   0.332  14.263
  930MPD2    C213641   1.413   0.250  14.157
  930MPD2    C313642   1.335   0.135  14.137
  930MPD2    C413643   1.235   0.108  14.227
  930MPD2    C513644   1.207   0.195  14.333
  930MPD2     H13645   1.500   0.261  14.093
  930MPD2    H113646   1.157   0.036  14.207
  930MPD2    H213647   1.261   0.377  14.432
  930MPD2    H313648   1.119   0.179  14.395
  930MPD2     N13649   1.355   0.043  14.026
  930MPD2    H513650   1.306   4.739  14.052
  930MPD2    N113651   1.460   0.456  14.273
  930MPD2    H713652   1.448   0.508  14.359
  931MPD2     C13653   2.063   4.633  18.743
  931MPD2    C113654   1.941   4.602  18.793
  931MPD2    C213655   1.932   4.544  18.915
  931MPD2    C313656   2.049   4.483  18.979
  931MPD2    C413657   2.167   4.508  18.916
  931MPD2    C513658   2.175   4.582  18.804
  931MPD2     H13659   1.836   4.514  18.954
  931MPD2    H113660   2.259   4.478  18.965
  931MPD2    H213661   2.084   4.684  18.650
  931MPD2    H313662   2.276   4.595  18.767
  931MPD2     N13663   2.053   4.410  19.097
  931MPD2    H513664   2.142   4.363  19.112
  931MPD2    N113665   1.827   4.651  18.715
  931MPD2    H713666   1.848   4.672  18.618
  932MPD2     C13667   3.266   4.237  11.747
  932MPD2    C113668   3.357   4.181  11.660
  932MPD2    C213669   3.416   4.060  11.693
  932MPD2    C313670   3.369   3.987  11.804
  932MPD2    C413671   3.273   4.045  11.883
  932MPD2    C513672   3.222   4.166  11.851
  932MPD2     H13673   3.482   4.013  11.621
  932MPD2    H113674   3.240   4.002  11.977
  932MPD2    H213675   3.237   4.342  11.740
  932MPD2    H313676   3.156   4.208  11.926
  932MPD2     N13677   3.426   3.860  11.843
  932MPD2    H513678   3.394   3.819  11.930
  932MPD2    N113679   3.415   4.241  11.547
  932MPD2    H713680   3.495   4.199  11.500
  933MPD2     C13681   4.052   3.698  19.052
  933MPD2    C113682   3.970   3.651  18.954
  933MPD2    C213683   3.970   3.720  18.834
  933MPD2    C313684   4.062   3.821  18.810
  933MPD2    C413685   4.142   3.868  18.910
  933MPD2    C513686   4.137   3.802  19.031
  933MPD2     H13687   3.910   3.688  18.749
  933MPD2    H113688   4.211   3.951  18.912
  933MPD2    H213689   4.054   3.641  19.144
  933MPD2    H313690   4.213   3.826  19.104
  933MPD2     N13691   4.077   3.876  18.674
  933MPD2    H513692   4.038   3.822  18.598
  933MPD2    N113693   3.890   3.540  18.980
  933MPD2    H713694   3.908   3.495  19.069
  934MPD2     C13695   0.785   1.283  20.092
  934MPD2    C113696   0.842   1.155  20.088
  934MPD2    C213697   0.783   1.066  20.013
  934MPD2    C313698   0.660   1.079  19.959
  934MPD2    C413699   0.598   1.204  19.969
  934MPD2    C513700   0.657   1.309  20.036
  934MPD2     H13701   0.820   0.965  20.022
  934MPD2    H113702   0.507   1.229  19.916
  934MPD2    H213703   0.815   1.368  20.153
  934MPD2    H313704   0.614   1.409  20.040
  934MPD2     N13705   0.593   0.982  19.884
  934MPD2    H513706   0.510   1.006  19.831
  934MPD2    N113707   0.964   1.116  20.151
  934MPD2    H713708   0.988   1.018  20.145
  935MPD2     C13709   0.884   0.053  19.582
  935MPD2    C113710   0.753   0.065  19.536
  935MPD2    C213711   0.674   0.168  19.574
  935MPD2    C313712   0.731   0.268  19.657
  935MPD2    C413713   0.856   0.254  19.707
  935MPD2    C513714   0.933   0.150  19.668
  935MPD2     H13715   0.575   0.177  19.532
  935MPD2    H113716   0.895   0.322  19.783
  935MPD2    H213717   0.944   4.744  19.572
  935MPD2    H313718   1.029   0.130  19.714
  935MPD2     N13719   0.664   0.386  19.703
  935MPD2    H513720   0.721   0.460  19.741
  935MPD2    N113721   0.689   4.740  19.473
  935MPD2    H713722   0.588   4.749  19.466
  936MPD2     C13723   3.988   1.939  12.731
  936MPD2    C113724   4.095   1.987  12.803
  936MPD2    C213725   4.154   2.104  12.758
  936MPD2    C313726   4.103   2.179  12.647
  936MPD2    C413727   3.997   2.127  12.578
  936MPD2    C513728   3.945   2.009  12.619
  936MPD2     H13729   4.219   2.157  12.826
  936MPD2    H113730   3.962   2.196  12.503
  936MPD2    H213731   3.932   1.849  12.754
  936MPD2    H313732   3.856   1.970  12.570
  936MPD2     N13733   4.151   2.305  12.626
  936MPD2    H513734   4.094   2.370  12.573
  936MPD2    N113735   4.135   1.937  12.926
  936MPD2    H713736   4.234   1.955  12.941
  937MPD2     C13737   1.655   3.293  12.332
  937MPD2    C113738   1.713   3.416  12.339
  937MPD2    C213739   1.826   3.446  12.267
  937MPD2    C313740   1.886   3.346  12.192
  937MPD2    C413741   1.836   3.216  12.192
  937MPD2    C513742   1.716   3.196  12.258
  937MPD2     H13743   1.867   3.546  12.260
  937MPD2    H113744   1.893   3.136  12.145
  937MPD2    H213745   1.569   3.261  12.389
  937MPD2    H313746   1.658   3.104  12.256
  937MPD2     N13747   1.993   3.383  12.112
  937MPD2    H513748   2.031   3.477  12.115
  937MPD2    N113749   1.653   3.523  12.409
  937MPD2    H713750   1.688   3.617  12.394
  938MPD2     C13751   4.522   4.423  18.722
  938MPD2    C113752   4.518   4.543  18.793
  938MPD2    C213753   4.449   4.547  18.918
  938MPD2    C313754   4.396   4.426  18.968
  938MPD2    C413755   4.408   4.309  18.895
  938MPD2    C513756   4.469   4.305  18.771
  938MPD2     H13757   4.455   4.632  18.984
  938MPD2    H113758   4.370   4.219  18.941
  938MPD2    H213759   4.572   4.420  18.626
  938MPD2    H313760   4.477   4.211  18.716
  938MPD2     N13761   4.332   4.418  19.090
  938MPD2    H513762   4.321   4.321  19.118
  938MPD2    N113763   4.574   4.661  18.737
  938MPD2    H713764   4.584   4.734  18.807
  939MPD2     C13765   1.103   0.544  19.060
  939MPD2    C113766   1.134   0.670  19.020
  939MPD2    C213767   1.164   0.685  18.886
  939MPD2    C313768   1.156   0.576  18.796
  939MPD2    C413769   1.129   0.446  18.842
  939MPD2    C513770   1.094   0.433  18.978
  939MPD2     H13771   1.183   0.785  18.850
  939MPD2    H113772   1.130   0.364  18.771
  939MPD2    H213773   1.075   0.531  19.164
  939MPD2    H313774   1.056   0.344  19.027
  939MPD2     N13775   1.165   0.595  18.654
  939MPD2    H513776   1.182   0.688  18.619
  939MPD2    N113777   1.125   0.781  19.094
  939MPD2    H713778   1.079   0.783  19.185
  940MPD2     C13779   4.731   2.539  13.609
  940MPD2    C113780   4.671   2.417  13.584
  940MPD2    C213781   4.701   2.350  13.469
  940MPD2    C313782   0.003   2.407  13.375
  940MPD2    C413783   0.066   2.525  13.401
  940MPD2    C513784   0.038   2.590  13.519
  940MPD2     H13785   4.644   2.260  13.452
  940MPD2    H113786   0.131   2.565  13.323
  940MPD2    H213787   4.721   2.592  13.703
  940MPD2    H313788   0.075   2.690  13.539
  940MPD2     N13789   0.010   2.357  13.247
  940MPD2    H513790   0.065   2.415  13.185
  940MPD2    N113791   4.582   2.362  13.681
  940MPD2    H713792   4.552   2.266  13.667
  941MPD2     C13793   3.750   1.492   9.920
  941MPD2    C113794   3.838   1.472  10.029
  941MPD2    C213795   3.852   1.341  10.076
  941MPD2    C313796   3.787   1.231  10.020
  941MPD2    C413797   3.701   1.258   9.914
  941MPD2    C513798   3.687   1.388   9.868
  941MPD2     H13799   3.923   1.327  10.157
  941MPD2    H113800   3.642   1.170   9.889
  941MPD2    H213801   3.734   1.589   9.875
  941MPD2    H313802   3.619   1.418   9.790
  941MPD2     N13803   3.792   1.097  10.069
  941MPD2    H513804   3.732   1.027  10.026
  941MPD2    N113805   3.915   1.575  10.079
  941MPD2    H713806   3.980   1.553  10.154
  942MPD2     C13807   3.410   3.128   9.156
  942MPD2    C113808   3.466   3.008   9.110
  942MPD2    C213809   3.607   3.001   9.090
  942MPD2    C313810   3.684   3.111   9.125
  942MPD2    C413811   3.631   3.225   9.166
  942MPD2    C513812   3.492   3.233   9.174
  942MPD2     H13813   3.649   2.906   9.059
  942MPD2    H113814   3.689   3.311   9.198
  942MPD2    H213815   3.307   3.139   9.187
  942MPD2    H313816   3.450   3.327   9.210
  942MPD2     N13817   3.825   3.114   9.117
  942MPD2    H513818   3.872   3.202   9.136
  942MPD2    N113819   3.387   2.889   9.119
  942MPD2    H713820   3.434   2.799   9.108
  943MPD2     C13821   2.170   0.799  10.113
  943MPD2    C113822   2.296   0.847  10.156
  943MPD2    C213823   2.347   0.961  10.087
  943MPD2    C313824   2.274   1.035  10.000
  943MPD2    C413825   2.153   0.978   9.961
  943MPD2    C513826   2.098   0.869  10.019
  943MPD2     H13827   2.451   0.983  10.105
  943MPD2    H113828   2.091   1.024   9.884
  943MPD2    H213829   2.130   0.713  10.166
  943MPD2    H313830   2.003   0.828   9.986
  943MPD2     N13831   2.312   1.161   9.942
  943MPD2    H513832   2.233   1.202   9.893
  943MPD2    N113833   2.358   0.770  10.256
  943MPD2    H713834   2.310   0.694  10.302
  944MPD2     C13835   2.287   0.225  11.984
  944MPD2    C113836   2.273   0.276  11.857
  944MPD2    C213837   2.233   0.413  11.850
  944MPD2    C313838   2.195   0.489  11.962
  944MPD2    C413839   2.215   0.434  12.084
  944MPD2    C513840   2.262   0.305  12.094
  944MPD2     H13841   2.218   0.466  11.757
  944MPD2    H113842   2.204   0.484  12.180
  944MPD2    H213843   2.310   0.121  11.999
  944MPD2    H313844   2.275   0.254  12.189
  944MPD2     N13845   2.140   0.621  11.951
  944MPD2    H513846   2.117   0.650  11.857
  944MPD2    N113847   2.314   0.195  11.750
  944MPD2    H713848   2.325   0.099  11.781
    1TCq1    O113849   0.212   0.781  14.628
    1TCq1    C113850   0.288   0.896  14.616
    1TCq1    O213851   0.244   1.007  14.588
    1TCq1    C213852   0.422   0.867  14.664
    1TCq1    C313853   0.459   0.735  14.683
    1TCq1    C413854   0.574   0.716  14.756
    1TCq1    C513855   0.657   0.813  14.802
    1TCq1    C613856   0.610   0.944  14.786
    1TCq1    C713857   0.495   0.971  14.717
    1TCq1    C813858   0.699   1.046  14.847
    1TCq1    O413859   0.806   1.009  14.890
    1TCq1    C913860   0.610   0.583  14.795
    1TCq1    O513861   0.710   0.575  14.870
    1TCq1    O613862   0.516   0.501  14.800
    1TCq1    H113863   0.266   0.711  14.671
    1TCq1    H213864   0.400   0.652  14.648
    1TCq1    H313865   0.748   0.801  14.859
    1TCq1    H413866   0.446   1.068  14.726
    2MPD2     C13867   0.839   1.522  14.983
    2MPD2    C113868   0.729   1.535  14.906
    2MPD2    C213869   0.672   1.420  14.861
    2MPD2    C313870   0.725   1.292  14.893
    2MPD2    C413871   0.836   1.284  14.972
    2MPD2    C513872   0.893   1.398  15.013
    2MPD2     H13873   0.578   1.425  14.805
    2MPD2    H113874   0.855   1.186  15.016
    2MPD2    H213875   0.891   1.602  15.035
    2MPD2    H313876   0.968   1.389  15.091
    2MPD2     N13877   0.653   1.173  14.849
    2MPD2    H513878   0.564   1.188  14.803
    2MPD2    N113879   0.688   1.664  14.877
    2MPD2    H713880   0.758   1.732  14.904
    3TMC2    C113881   0.583   1.841  14.767
    3TMC2    C213882   0.646   1.938  14.841
    3TMC2    C313883   0.661   2.059  14.778
    3TMC2    C413884   0.530   1.863  14.645
    3TMC2    C513885   0.544   1.986  14.589
    3TMC2    C613886   0.609   2.088  14.650
    3TMC2     C13887   0.578   1.697  14.803
    3TMC2     O13888   0.486   1.629  14.762
    3TMC2     H13889   0.671   1.935  14.946
    3TMC2    H113890   0.485   1.785  14.585
    3TMC2    H213891   0.589   2.186  14.608
    3TMC2    C713892   0.446   2.008  14.487
    3TMC2    C813893   0.660   2.172  14.868
    3TMC2    O113894   0.347   1.932  14.481
    3TMC2    O213895   0.598   2.179  14.971
    3TMC2    O513896   0.712   2.276  14.796
    3TMC2    H513897   0.773   2.245  14.725
    4TMC2    C113898   0.460   2.873  14.031
    4TMC2    C213899   0.570   2.929  13.978
    4TMC2    C313900   0.670   2.843  13.947
    4TMC2    C413901   0.437   2.739  14.055
    4TMC2    C513902   0.537   2.656  14.015
    4TMC2    C613903   0.659   2.705  13.969
    4TMC2     C13904   0.354   2.970  14.055
    4TMC2     O13905   0.377   3.090  14.080
    4TMC2     H13906   0.576   3.036  13.963
    4TMC2    H113907   0.342   2.703  14.093
    4TMC2    H213908   0.737   2.636  13.938
    4TMC2    C713909   0.532   2.518  14.060
    4TMC2    C813910   0.812   2.890  13.931
    4TMC2    O113911   0.644   2.472  14.072
    4TMC2    O213912   0.912   2.829  13.966
    4TMC2    O513913   0.804   2.992  13.841
    4TMC2    H513914   0.712   3.018  13.819
    5MPD2     C13915   4.619   2.988  14.124
    5MPD2    C113916   4.647   2.925  14.000
    5MPD2    C213917   0.003   2.901  13.970
    5MPD2    C313918   0.107   2.952  14.050
    5MPD2    C413919   0.073   3.030  14.163
    5MPD2    C513920   4.725   3.047  14.200
    5MPD2     H13921   0.028   2.834  13.889
    5MPD2    H113922   0.158   3.055  14.225
    5MPD2    H213923   4.524   3.014  14.169
    5MPD2    H313924   4.713   3.104  14.292
    5MPD2     N13925   0.238   2.921  14.014
    5MPD2    H513926   0.248   2.829  13.972
    5MPD2    N113927   4.539   2.880  13.927
    5MPD2    H713928   4.449   2.876  13.975
    6MPD1     C13929   3.454   4.151  13.688
    6MPD1    C113930   3.548   4.151  13.594
    6MPD1    C213931   3.589   4.025  13.541
    6MPD1    C313932   3.541   3.904  13.598
    6MPD1    C413933   3.439   3.908  13.687
    6MPD1    C513934   3.397   4.030  13.734
    6MPD1     H13935   3.663   4.018  13.463
    6MPD1    H113936   3.400   3.818  13.732
    6MPD1    H213937   3.414   4.247  13.720
    6MPD1    H313938   3.311   4.033  13.799
    6MPD1     N13939   3.594   3.780  13.570
    6MPD1    H513940   3.535   3.699  13.587
    6MPD1    N113941   3.614   4.266  13.557
    6MPD1    H613942   3.559   4.351  13.573
    6MPD1    H713943   3.655   4.262  13.464
    7MPD2     C13944   3.778   3.165  13.629
    7MPD2    C113945   3.875   3.167  13.727
    7MPD2    C213946   3.948   3.055  13.760
    7MPD2    C313947   3.935   2.942  13.681
    7MPD2    C413948   3.845   2.939  13.575
    7MPD2    C513949   3.762   3.051  13.548
    7MPD2     H13950   4.017   3.055  13.844
    7MPD2    H113951   3.835   2.852  13.510
    7MPD2    H213952   3.705   3.243  13.610
    7MPD2    H313953   3.691   3.055  13.467
    7MPD2     N13954   4.005   2.825  13.697
    7MPD2    H513955   3.977   2.752  13.633
    7MPD2    N113956   3.889   3.280  13.814
    7MPD2    H713957   3.940   3.258  13.899
    8TMC3    C113958   4.206   2.716  13.733
    8TMC3    C213959   4.327   2.742  13.796
    8TMC3    C313960   4.440   2.770  13.727
    8TMC3    C413961   4.213   2.715  13.597
    8TMC3    C513962   4.326   2.748  13.526
    8TMC3    C613963   4.442   2.775  13.590
    8TMC3     C13964   4.103   2.805  13.787
    8TMC3     O13965   4.139   2.879  13.877
    8TMC3     H13966   4.328   2.733  13.904
    8TMC3    H113967   4.122   2.706  13.539
    8TMC3    H213968   4.529   2.814  13.539
    8TMC3    C713969   4.298   2.846  13.428
    8TMC3    C813970   4.552   2.830  13.792
    8TMC3    O113971   4.375   2.945  13.422
    8TMC3    O213972   4.651   2.863  13.727
    9TMC3    C113973   3.760   3.623  13.518
    9TMC3    C213974   3.848   3.583  13.420
    9TMC3    C313975   3.924   3.478  13.438
    9TMC3    C413976   3.750   3.558  13.640
    9TMC3    C513977   3.840   3.461  13.661
    9TMC3    C613978   3.934   3.425  13.566
    9TMC3     C13979   3.713   3.760  13.502
    9TMC3     O13980   3.794   3.838  13.449
    9TMC3     H13981   3.842   3.639  13.327
    9TMC3    H113982   3.671   3.589  13.707
    9TMC3    H213983   4.002   3.342  13.585
    9TMC3    C713984   3.827   3.400  13.795
    9TMC3    C813985   3.948   3.403  13.320
    9TMC3    O113986   3.791   3.474  13.888
    9TMC3    O213987   3.878   3.426  13.223
   10MPD2     C13988   4.009   2.899  13.209
   10MPD2    C113989   4.104   2.935  13.302
   10MPD2    C213990   4.119   3.070  13.335
   10MPD2    C313991   4.038   3.169  13.279
   10MPD2    C413992   3.940   3.130  13.194
   10MPD2    C513993   3.928   2.998  13.153
   10MPD2     H13994   4.189   3.096  13.413
   10MPD2    H113995   3.870   3.204  13.156
   10MPD2    H213996   4.007   2.793  13.185
   10MPD2    H313997   3.850   2.973  13.082
   10MPD2     N13998   4.025   3.291  13.348
   10MPD2    H513999   4.083   3.305  13.430
   10MPD2    N114000   4.184   2.831  13.358
   10MPD2    H714001   4.136   2.741  13.360
   11MPD2     C14002   0.255   2.165  14.322
   11MPD2    C114003   0.390   2.187  14.321
   11MPD2    C214004   0.439   2.285  14.237
   11MPD2    C314005   0.361   2.363  14.149
   11MPD2    C414006   0.227   2.335  14.154
   11MPD2    C514007   0.180   2.238  14.236
   11MPD2     H14008   0.546   2.300  14.248
   11MPD2    H114009   0.162   2.395  14.091
   11MPD2    H214010   0.203   2.101  14.392
   11MPD2    H314011   0.074   2.218  14.225
   11MPD2     N14012   0.406   2.470  14.068
   11MPD2    H514013   0.326   2.525  14.037
   11MPD2    N114014   0.482   2.115  14.404
   11MPD2    H714015   0.580   2.139  14.404
    1MPD1     C14016   2.286   3.087  17.482
    1MPD1    C114017   2.351   3.207  17.507
    1MPD1    C214018   2.461   3.243  17.424
    1MPD1    C314019   2.501   3.166  17.317
    1MPD1    C414020   2.434   3.050  17.289
    1MPD1    C514021   2.325   3.017  17.370
    1MPD1     H14022   2.518   3.331  17.451
    1MPD1    H114023   2.463   2.996  17.200
    1MPD1    H214024   2.196   3.050  17.529
    1MPD1    H314025   2.264   2.928  17.355
    1MPD1     N14026   2.609   3.206  17.231
    1MPD1    H514027   2.625   3.156  17.144
    1MPD1    N114028   2.306   3.305  17.605
    1MPD1    H614029   2.251   3.278  17.686
    1MPD1    H714030   2.391   3.348  17.640
    2MPD1     C14031   3.235   4.049  16.982
    2MPD1    C114032   3.291   3.957  16.905
    2MPD1    C214033   3.236   3.828  16.915
    2MPD1    C314034   3.136   3.792  17.007
    2MPD1    C414035   3.086   3.891  17.081
    2MPD1    C514036   3.144   4.015  17.078
    2MPD1     H14037   3.263   3.743  16.853
    2MPD1    H114038   3.008   3.880  17.156
    2MPD1    H214039   3.271   4.151  16.979
    2MPD1    H314040   3.097   4.098  17.128
    2MPD1     N14041   3.086   3.659  17.005
    2MPD1    H514042   3.102   3.598  16.925
    2MPD1    N114043   3.378   3.990  16.801
    2MPD1    H614044   3.419   4.082  16.816
    2MPD1    H714045   3.447   3.918  16.780
    3TMC3    C114046   2.954   3.483  17.066
    3TMC3    C214047   2.916   3.463  16.936
    3TMC3    C314048   2.816   3.367  16.917
    3TMC3    C414049   2.897   3.408  17.172
    3TMC3    C514050   2.794   3.317  17.142
    3TMC3    C614051   2.755   3.297  17.015
    3TMC3     C14052   3.013   3.605  17.105
    3TMC3     O14053   2.995   3.649  17.221
    3TMC3     H14054   2.943   3.529  16.854
    3TMC3    H114055   2.917   3.441  17.273
    3TMC3    H214056   2.664   3.242  16.996
    3TMC3    C714057   2.706   3.299  17.258
    3TMC3    C814058   2.764   3.354  16.785
    3TMC3    O114059   2.728   3.360  17.362
    3TMC3    O214060   2.650   3.309  16.778
    4MPD1     C14061   2.739   3.475  16.292
    4MPD1    C114062   2.850   3.536  16.341
    4MPD1    C214063   2.892   3.503  16.466
    4MPD1    C314064   2.811   3.427  16.550
    4MPD1    C414065   2.688   3.379  16.504
    4MPD1    C514066   2.659   3.395  16.371
    4MPD1     H14067   2.989   3.528  16.509
    4MPD1    H114068   2.619   3.319  16.562
    4MPD1    H214069   2.704   3.496  16.191
    4MPD1    H314070   2.566   3.352  16.336
    4MPD1     N14071   2.844   3.411  16.685
    4MPD1    H514072   2.936   3.449  16.705
    4MPD1    N114073   2.932   3.614  16.260
    4MPD1    H614074   2.968   3.692  16.315
    4MPD1    H714075   2.891   3.659  16.179
    1TCq1    O114076   4.365   3.005  12.298
    1TCq1    C114077   4.410   3.128  12.256
    1TCq1    O214078   4.488   3.200  12.315
    1TCq1    C214079   4.338   3.173  12.145
    1TCq1    C314080   4.319   3.097  12.035
    1TCq1    C414081   4.299   3.163  11.916
    1TCq1    C514082   4.271   3.298  11.906
    1TCq1    C614083   4.282   3.369  12.020
    1TCq1    C714084   4.326   3.308  12.133
    1TCq1    C814085   4.183   3.475  12.040
    1TCq1    O414086   4.168   3.516  12.157
    1TCq1    C914087   4.264   3.077  11.807
    1TCq1    O514088   4.203   3.134  11.712
    1TCq1    O614089   4.240   2.961  11.848
    1TCq1    H114090   4.279   2.991  12.253
    1TCq1    H214091   4.365   2.999  12.031
    1TCq1    H314092   4.264   3.350  11.811
    1TCq1    H414093   4.341   3.374  12.218
    2MPD1     C14094   3.865   3.833  11.886
    2MPD1    C114095   3.879   3.749  11.779
    2MPD1    C214096   3.958   3.640  11.801
    2MPD1    C314097   4.016   3.613  11.924
    2MPD1    C414098   3.980   3.694  12.035
    2MPD1    C514099   3.903   3.807  12.014
    2MPD1     H14100   3.986   3.589  11.709
    2MPD1    H114101   4.017   3.692  12.137
    2MPD1    H214102   3.813   3.928  11.875
    2MPD1    H314103   3.883   3.864  12.103
    2MPD1     N14104   4.112   3.514  11.928
    2MPD1    H514105   4.131   3.467  11.840
    2MPD1    N114106   3.845   3.785  11.649
    2MPD1    H614107   3.759   3.840  11.646
    2MPD1    H714108   3.847   3.705  11.586
    1TCq1    O114109   2.565   0.856  20.179
    1TCq1    C114110   2.535   0.734  20.134
    1TCq1    O214111   2.559   0.628  20.192
    1TCq1    C214112   2.469   0.737  20.004
    1TCq1    C314113   2.508   0.831  19.921
    1TCq1    C414114   2.475   0.817  19.791
    1TCq1    C514115   2.399   0.713  19.750
    1TCq1    C614116   2.348   0.625  19.846
    1TCq1    C714117   2.386   0.632  19.974
    1TCq1    C814118   2.269   0.518  19.801
    1TCq1    O414119   2.268   0.497  19.678
    1TCq1    C914120   2.565   0.872  19.692
    1TCq1    O514121   2.677   0.927  19.726
    1TCq1    O614122   2.532   0.851  19.571
    1TCq1    H114123   2.507   0.915  20.125
    1TCq1    H214124   2.597   0.888  19.946
    1TCq1    H314125   2.375   0.695  19.645
    1TCq1    H414126   2.363   0.554  20.045
    2MPD1     C14127   1.888   0.176  19.868
    2MPD1    C114128   1.941   0.203  19.991
    2MPD1    C214129   2.039   0.296  19.998
    2MPD1    C314130   2.093   0.364  19.886
    2MPD1    C414131   2.036   0.331  19.760
    2MPD1    C514132   1.938   0.237  19.756
    2MPD1     H14133   2.083   0.320  20.094
    2MPD1    H114134   2.074   0.378  19.671
    2MPD1    H214135   1.799   0.115  19.858
    2MPD1    H314136   1.888   0.201  19.666
    2MPD1     N14137   2.199   0.451  19.902
    2MPD1    H514138   2.206   0.491  19.994
    2MPD1    N114139   1.881   0.148  20.107
    2MPD1    H614140   1.817   0.073  20.084
    2MPD1    H714141   1.942   0.119  20.183
    1MPD1     C14142   0.375   3.236  12.860
    1MPD1    C114143   0.508   3.204  12.825
    1MPD1    C214144   0.573   3.298  12.742
    1MPD1    C314145   0.525   3.427  12.721
    1MPD1    C414146   0.410   3.462  12.781
    1MPD1    C514147   0.335   3.367  12.844
    1MPD1     H14148   0.669   3.269  12.701
    1MPD1    H114149   0.351   3.543  12.738
    1MPD1    H214150   0.307   3.159  12.896
    1MPD1    H314151   0.232   3.387  12.874
    1MPD1     N14152   0.592   3.503  12.621
    1MPD1    H514153   0.674   3.465  12.575
    1MPD1    N114154   0.553   3.076  12.848
    1MPD1    H614155   0.501   3.038  12.928
    1MPD1    H714156   0.649   3.082  12.880
    2MPD1     C14157   0.623   3.555  12.004
    2MPD1    C114158   0.526   3.513  11.914
    2MPD1    C214159   0.567   3.434  11.806
    2MPD1    C314160   0.699   3.398  11.788
    2MPD1    C414161   0.797   3.434  11.889
    2MPD1    C514162   0.756   3.514  11.994
    2MPD1     H14163   0.495   3.391  11.737
    2MPD1    H114164   0.902   3.408  11.878
    2MPD1    H214165   0.605   3.622  12.087
    2MPD1    H314166   0.828   3.552  12.066
    2MPD1     N14167   0.747   3.322  11.684
    2MPD1    H514168   0.847   3.321  11.670
    2MPD1    N114169   0.393   3.557  11.930
    2MPD1    H614170   0.330   3.485  11.897
    2MPD1    H714171   0.366   3.572  12.027
    3MPD1     C14172   0.240   3.008  10.880
    3MPD1    C114173   0.258   2.928  10.992
    3MPD1    C214174   0.371   2.944  11.065
    3MPD1    C314175   0.465   3.039  11.046
    3MPD1    C414176   0.442   3.128  10.940
    3MPD1    C514177   0.342   3.094  10.849
    3MPD1     H14178   0.384   2.892  11.160
    3MPD1    H114179   0.499   3.217  10.920
    3MPD1    H214180   0.155   2.986  10.816
    3MPD1    H314181   0.322   3.168  10.772
    3MPD1     N14182   0.553   3.067  11.145
    3MPD1    H514183   0.547   3.020  11.235
    3MPD1    N114184   0.135   2.874  11.051
    3MPD1    H614185   0.065   2.849  10.981
    3MPD1    H714186   0.157   2.794  11.109
    4MPD2     C14187   0.680   3.854  11.927
    4MPD2    C114188   0.778   3.903  12.008
    4MPD2    C214189   0.902   3.925  11.952
    4MPD2    C314190   0.939   3.886  11.824
    4MPD2    C414191   0.841   3.836  11.743
    4MPD2    C514192   0.714   3.821  11.798
    4MPD2     H14193   0.985   3.951  12.017
    4MPD2    H114194   0.860   3.798  11.643
    4MPD2    H214195   0.580   3.832  11.964
    4MPD2    H314196   0.630   3.794  11.735
    4MPD2     N14197   1.071   3.886  11.777
    4MPD2    H514198   1.078   3.840  11.687
    4MPD2    N114199   0.763   3.922  12.144
    4MPD2    H714200   0.852   3.943  12.187
    5TMC3    C114201   0.685   3.884  12.359
    5TMC3    C214202   0.605   3.804  12.433
    5TMC3    C314203   0.654   3.701  12.502
    5TMC3    C414204   0.820   3.878  12.378
    5TMC3    C514205   0.871   3.768  12.454
    5TMC3    C614206   0.787   3.676  12.508
    5TMC3     C14207   0.654   3.891  12.218
    5TMC3     O14208   0.545   3.841  12.184
    5TMC3     H14209   0.500   3.832  12.425
    5TMC3    H114210   0.890   3.952  12.343
    5TMC3    H214211   0.822   3.603  12.580
    5TMC3    C714212   0.997   3.728  12.396
    5TMC3    C814213   0.555   3.634  12.590
    5TMC3    O114214   1.042   3.798  12.307
    5TMC3    O214215   0.460   3.708  12.622
    6TMC3    C114216   0.743   3.210  11.482
    6TMC3    C214217   0.669   3.157  11.373
    6TMC3    C314218   0.731   3.172  11.251
    6TMC3    C414219   0.873   3.246  11.471
    6TMC3    C514220   0.929   3.240  11.346
    6TMC3    C614221   0.854   3.228  11.236
    6TMC3     C14222   0.669   3.270  11.592
    6TMC3     O14223   0.549   3.250  11.578
    6TMC3     H14224   0.561   3.151  11.375
    6TMC3    H114225   0.941   3.257  11.555
    6TMC3    H214226   0.911   3.233  11.144
    6TMC3    C714227   1.076   3.273  11.336
    6TMC3    C814228   0.654   3.160  11.131
    6TMC3    O114229   1.120   3.363  11.271
    6TMC3    O214230   0.700   3.216  11.033
    7MPD2     C14231   1.316   3.366  12.207
    7MPD2    C114232   1.311   3.501  12.188
    7MPD2    C214233   1.234   3.582  12.266
    7MPD2    C314234   1.138   3.520  12.351
    7MPD2    C414235   1.140   3.386  12.372
    7MPD2    C514236   1.233   3.317  12.301
    7MPD2     H14237   1.233   3.689  12.251
    7MPD2    H114238   1.075   3.341  12.445
    7MPD2    H214239   1.375   3.293  12.152
    7MPD2    H314240   1.229   3.212  12.325
    7MPD2     N14241   1.033   3.592  12.427
    7MPD2    H514242   0.977   3.535  12.490
    7MPD2    N114243   1.400   3.553  12.080
    7MPD2    H714244   1.447   3.480  12.028
    8TMC3    C114245   1.441   3.732  11.949
    8TMC3    C214246   1.458   3.649  11.841
    8TMC3    C314247   1.394   3.683  11.720
    8TMC3    C414248   1.364   3.852  11.929
    8TMC3    C514249   1.296   3.870  11.815
    8TMC3    C614250   1.308   3.784  11.711
    8TMC3     C14251   1.435   3.682  12.081
    8TMC3     O14252   1.433   3.773  12.165
    8TMC3     H14253   1.518   3.561  11.862
    8TMC3    H114254   1.352   3.915  12.016
    8TMC3    H214255   1.254   3.800  11.618
    8TMC3    C714256   1.179   3.942  11.843
    8TMC3    C814257   1.380   3.584  11.610
    8TMC3    O114258   1.183   4.037  11.918
    8TMC3    O214259   1.281   3.605  11.538
    9MPD2     C14260   1.509   3.233  11.580
    9MPD2    C114261   1.430   3.348  11.560
    9MPD2    C214262   1.308   3.323  11.490
    9MPD2    C314263   1.267   3.195  11.455
    9MPD2    C414264   1.338   3.089  11.498
    9MPD2    C514265   1.463   3.108  11.553
    9MPD2     H14266   1.245   3.411  11.486
    9MPD2    H114267   1.306   2.987  11.483
    9MPD2    H214268   1.607   3.236  11.627
    9MPD2    H314269   1.529   3.022  11.554
    9MPD2     N14270   1.141   3.180  11.412
    9MPD2    H514271   1.099   3.091  11.437
    9MPD2    N114272   1.459   3.474  11.617
    9MPD2    H714273   1.545   3.477  11.671
    1MPD1     C14274   0.959   2.478  17.042
    1MPD1    C114275   0.944   2.524  16.909
    1MPD1    C214276   0.861   2.448  16.822
    1MPD1    C314277   0.796   2.335  16.867
    1MPD1    C414278   0.819   2.289  16.997
    1MPD1    C514279   0.894   2.361  17.082
    1MPD1     H14280   0.840   2.481  16.721
    1MPD1    H114281   0.780   2.193  17.028
    1MPD1    H214282   1.008   2.535  17.119
    1MPD1    H314283   0.907   2.342  17.188
    1MPD1     N14284   0.715   2.252  16.780
    1MPD1    H514285   0.667   2.175  16.826
    1MPD1    N114286   1.001   2.639  16.859
    1MPD1    H614287   1.101   2.645  16.880
    1MPD1    H714288   1.004   2.653  16.759
    2TMC2    C114289   0.555   2.017  16.411
    2TMC2    C214290   0.467   1.950  16.492
    2TMC2    C314291   0.442   2.004  16.610
    2TMC2    C414292   0.642   2.111  16.461
    2TMC2    C514293   0.622   2.157  16.589
    2TMC2    C614294   0.522   2.104  16.668
    2TMC2     C14295   0.572   1.959  16.281
    2TMC2     O14296   0.548   1.834  16.265
    2TMC2     H14297   0.408   1.868  16.452
    2TMC2    H114298   0.723   2.156  16.404
    2TMC2    H214299   0.495   2.139  16.766
    2TMC2    C714300   0.707   2.255  16.641
    2TMC2    C814301   0.363   1.927  16.700
    2TMC2    O114302   0.754   2.342  16.568
    2TMC2    O214303   0.373   1.805  16.712
    2TMC2    O514304   0.297   2.010  16.786
    2TMC2    H514305   0.298   2.099  16.745
    3MPD1     C14306   0.705   1.961  15.790
    3MPD1    C114307   0.663   2.084  15.826
    3MPD1    C214308   0.631   2.108  15.960
    3MPD1    C314309   0.648   2.008  16.054
    3MPD1    C414310   0.694   1.884  16.017
    3MPD1    C514311   0.725   1.866  15.886
    3MPD1     H14312   0.577   2.196  15.991
    3MPD1    H114313   0.711   1.810  16.094
    3MPD1    H214314   0.713   1.942  15.683
    3MPD1    H314315   0.765   1.770  15.855
    3MPD1     N14316   0.615   2.045  16.180
    3MPD1    H514317   0.607   2.145  16.195
    3MPD1    N114318   0.625   2.176  15.733
    3MPD1    H614319   0.622   2.272  15.767
    3MPD1    H714320   0.672   2.174  15.643
    1TCq1    O114321   2.983   1.042  13.202
    1TCq1    C114322   2.990   0.975  13.315
    1TCq1    O214323   2.914   0.883  13.341
    1TCq1    C214324   3.084   1.044  13.401
    1TCq1    C314325   3.054   1.053  13.535
    1TCq1    C414326   3.133   1.123  13.618
    1TCq1    C514327   3.252   1.162  13.578
    1TCq1    C614328   3.290   1.140  13.450
    1TCq1    C714329   3.205   1.086  13.351
    1TCq1    C814330   3.421   1.176  13.401
    1TCq1    O414331   3.423   1.219  13.288
    1TCq1    C914332   3.097   1.138  13.757
    1TCq1    O514333   3.147   1.237  13.816
    1TCq1    O614334   3.027   1.044  13.804
    1TCq1    H114335   3.047   1.117  13.197
    1TCq1    H214336   2.966   1.006  13.577
    1TCq1    H314337   3.316   1.219  13.645
    1TCq1    H414338   3.235   1.073  13.248
    2MPD2     C14339   3.694   1.297  13.397
    2MPD2    C114340   3.649   1.218  13.499
    2MPD2    C214341   3.731   1.188  13.603
    2MPD2    C314342   3.864   1.232  13.610
    2MPD2    C414343   3.907   1.314  13.505
    2MPD2    C514344   3.815   1.355  13.409
    2MPD2     H14345   3.692   1.123  13.681
    2MPD2    H114346   4.004   1.362  13.497
    2MPD2    H214347   3.637   1.333  13.312
    2MPD2    H314348   3.853   1.424  13.335
    2MPD2     N14349   3.947   1.195  13.722
    2MPD2    H514350   3.910   1.136  13.795
    2MPD2    N114351   3.516   1.168  13.499
    2MPD2    H714352   3.500   1.098  13.571
    3TCq1    O114353   4.503   0.913  13.895
    3TCq1    C114354   4.484   1.037  13.854
    3TCq1    O214355   4.530   1.090  13.750
    3TCq1    C214356   4.348   1.070  13.893
    3TCq1    C314357   4.294   1.031  14.008
    3TCq1    C414358   4.167   1.077  14.042
    3TCq1    C514359   4.089   1.135  13.953
    3TCq1    C614360   4.151   1.164  13.828
    3TCq1    C714361   4.285   1.140  13.800
    3TCq1    C814362   4.082   1.231  13.727
    3TCq1    O414363   4.153   1.302  13.652
    3TCq1    C914364   4.119   1.048  14.176
    3TCq1    O514365   4.005   1.093  14.207
    3TCq1    O614366   4.202   0.993  14.251
    3TCq1    H114367   4.508   0.898  13.992
    3TCq1    H214368   4.366   1.004  14.084
    3TCq1    H314369   3.986   1.163  13.976
    3TCq1    H414370   4.318   1.149  13.697
    1MPD2     C14371   3.165   2.472  15.268
    1MPD2    C114372   3.081   2.374  15.229
    1MPD2    C214373   3.133   2.265  15.160
    1MPD2    C314374   3.269   2.247  15.135
    1MPD2    C414375   3.352   2.343  15.183
    1MPD2    C514376   3.300   2.455  15.246
    1MPD2     H14377   3.064   2.183  15.145
    1MPD2    H114378   3.458   2.328  15.165
    1MPD2    H214379   3.121   2.546  15.334
    1MPD2    H314380   3.366   2.538  15.269
    1MPD2     N14381   3.320   2.129  15.078
    1MPD2    H514382   3.412   2.106  15.114
    1MPD2    N114383   2.945   2.404  15.253
    1MPD2    H714384   2.925   2.502  15.273
    2TMC3    C114385   2.716   2.363  15.259
    2TMC3    C214386   2.626   2.264  15.272
    2TMC3    C314387   2.513   2.254  15.194
    2TMC3    C414388   2.685   2.480  15.182
    2TMC3    C514389   2.564   2.474  15.115
    2TMC3    C614390   2.483   2.364  15.121
    2TMC3     C14391   2.849   2.309  15.255
    2TMC3     O14392   2.860   2.188  15.260
    2TMC3     H14393   2.655   2.177  15.329
    2TMC3    H114394   2.757   2.560  15.178
    2TMC3    H214395   2.400   2.358  15.050
    2TMC3    C714396   2.529   2.561  15.005
    2TMC3    C814397   2.510   2.137  15.109
    2TMC3    O114398   2.420   2.539  14.946
    2TMC3    O214399   2.433   2.137  15.010
    3TCq1    O114400   2.974   3.552  14.500
    3TCq1    C114401   3.073   3.529  14.590
    3TCq1    O214402   3.179   3.586  14.586
    3TCq1    C214403   3.043   3.414  14.670
    3TCq1    C314404   3.106   3.402  14.793
    3TCq1    C414405   3.084   3.294  14.867
    3TCq1    C514406   3.001   3.193  14.827
    3TCq1    C614407   2.947   3.209  14.699
    3TCq1    C714408   2.960   3.319  14.624
    3TCq1    C814409   2.833   3.128  14.660
    3TCq1    O414410   2.760   3.168  14.574
    3TCq1    C914411   3.166   3.273  14.984
    3TCq1    O514412   3.276   3.336  14.979
    3TCq1    O614413   3.134   3.174  15.055
    3TCq1    H114414   2.887   3.512  14.518
    3TCq1    H214415   3.167   3.481  14.837
    3TCq1    H314416   3.004   3.098  14.880
    3TCq1    H414417   2.923   3.323  14.522
    4MPD2     C14418   2.633   2.917  14.646
    4MPD2    C114419   2.713   2.927  14.751
    4MPD2    C214420   2.712   2.839  14.854
    4MPD2    C314421   2.612   2.736  14.863
    4MPD2    C414422   2.518   2.731  14.759
    4MPD2    C514423   2.530   2.822  14.654
    4MPD2     H14424   2.798   2.848  14.919
    4MPD2    H114425   2.437   2.660  14.762
    4MPD2    H214426   2.644   2.981  14.560
    4MPD2    H314427   2.465   2.804  14.569
    4MPD2     N14428   2.626   2.654  14.974
    4MPD2    H514429   2.694   2.683  15.043
    4MPD2    N114430   2.818   3.021  14.748
    4MPD2    H714431   2.895   2.997  14.809
    5MPD2     C14432   2.591   1.896  14.943
    5MPD2    C114433   2.646   1.923  15.067
    5MPD2    C214434   2.759   1.849  15.104
    5MPD2    C314435   2.814   1.753  15.025
    5MPD2    C414436   2.745   1.716  14.913
    5MPD2    C514437   2.634   1.787  14.871
    5MPD2     H14438   2.818   1.883  15.189
    5MPD2    H114439   2.780   1.641  14.843
    5MPD2    H214440   2.502   1.944  14.902
    5MPD2    H314441   2.578   1.753  14.784
    5MPD2     N14442   2.945   1.703  15.048
    5MPD2    H514443   2.993   1.646  14.979
    5MPD2    N114444   2.611   2.042  15.132
    5MPD2    H714445   2.665   2.075  15.212
    6TCq2    C114446   3.033   1.736  15.151
    6TCq2    O214447   3.017   1.782  15.263
    6TCq2    C214448   3.172   1.731  15.106
    6TCq2    C314449   3.248   1.728  15.213
    6TCq2    C414450   3.373   1.790  15.202
    6TCq2    C514451   3.391   1.882  15.110
    6TCq2    C614452   3.296   1.904  15.016
    6TCq2    C714453   3.195   1.813  14.998
    6TCq2    C814454   3.246   2.039  15.007
    6TCq2    O414455   3.138   2.053  14.956
    6TCq2    C914456   3.459   1.776  15.321
    6TCq2    O514457   3.552   1.860  15.331
    6TCq2    O614458   3.409   1.722  15.423
    6TCq2    H214459   3.221   1.684  15.308
    6TCq2    H314460   3.470   1.953  15.134
    6TCq2    H414461   3.121   1.823  14.920
  945SOL     OW14462   3.453   3.668  20.979
  945SOL    HW114463   3.366   3.641  21.010
  945SOL    HW214464   3.481   3.733  21.043
  946SOL     OW14465   0.433   3.357   4.904
  946SOL    HW114466   0.521   3.348   4.869
  946SOL    HW214467   0.399   3.437   4.865
  947SOL     OW14468   4.088   3.883  19.700
  947SOL    HW114469   4.127   3.970  19.706
  947SOL    HW214470   3.994   3.899  19.695
  948SOL     OW14471   1.795   1.465  25.463
  948SOL    HW114472   1.763   1.432  25.547
  948SOL    HW214473   1.720   1.510  25.425
  949SOL     OW14474   0.679   1.976   1.197
  949SOL    HW114475   0.705   2.038   1.128
  949SOL    HW214476   0.664   2.031   1.274
  950SOL     OW14477   1.545   4.735  27.691
  950SOL    HW114478   1.497   4.691  27.621
  950SOL    HW214479   1.510   0.043  27.692
  951SOL     OW14480   2.914   3.145   5.304
  951SOL    HW114481   2.864   3.107   5.231
  951SOL    HW214482   2.928   3.236   5.278
  952SOL     OW14483   1.446   3.261   4.360
  952SOL    HW114484   1.497   3.292   4.286
  952SOL    HW214485   1.355   3.262   4.329
  953SOL     OW14486   1.172   0.894  26.296
  953SOL    HW114487   1.194   0.866  26.385
  953SOL    HW214488   1.227   0.971  26.281
  954SOL     OW14489   4.448   1.007   3.526
  954SOL    HW114490   4.424   0.934   3.470
  954SOL    HW214491   4.411   0.985   3.612
  955SOL     OW14492   1.402   3.832  10.425
  955SOL    HW114493   1.324   3.797  10.469
  955SOL    HW214494   1.369   3.880  10.350
  956SOL     OW14495   4.309   1.271   5.324
  956SOL    HW114496   4.266   1.225   5.396
  956SOL    HW214497   4.247   1.264   5.251
  957SOL     OW14498   0.657   1.877   1.606
  957SOL    HW114499   0.729   1.879   1.669
  957SOL    HW214500   0.630   1.786   1.602
  958SOL     OW14501   3.841   2.571  17.651
  958SOL    HW114502   3.925   2.529  17.630
  958SOL    HW214503   3.860   2.629  17.724
  959SOL     OW14504   0.095   1.982   0.155
  959SOL    HW114505   0.128   1.899   0.121
  959SOL    HW214506   0.008   1.961   0.189
  960SOL     OW14507   1.238   4.460  25.280
  960SOL    HW114508   1.210   4.461  25.189
  960SOL    HW214509   1.286   4.542  25.292
  961SOL     OW14510   4.730   2.306  26.105
  961SOL    HW114511   4.636   2.321  26.107
  961SOL    HW214512   4.741   2.222  26.060
  962SOL     OW14513   2.486   2.889   9.795
  962SOL    HW114514   2.492   2.867   9.702
  962SOL    HW214515   2.418   2.956   9.800
  963SOL     OW14516   0.614   4.651   9.318
  963SOL    HW114517   0.543   4.587   9.321
  963SOL    HW214518   0.615   4.691   9.405
  964SOL     OW14519   0.647   4.317   1.471
  964SOL    HW114520   0.696   4.255   1.525
  964SOL    HW214521   0.646   4.398   1.522
  965SOL     OW14522   2.272   2.132  27.777
  965SOL    HW114523   2.337   2.111  27.845
  965SOL    HW214524   2.272   2.228  27.773
  966SOL     OW14525   1.803   0.378   8.946
  966SOL    HW114526   1.722   0.428   8.942
  966SOL    HW214527   1.867   0.431   8.899
  967SOL     OW14528   0.783   1.804  20.837
  967SOL    HW114529   0.852   1.787  20.901
  967SOL    HW214530   0.765   1.719  20.797
  968SOL     OW14531   1.735   3.334  28.508
  968SOL    HW114532   1.799   3.404   0.004
  968SOL    HW214533   1.653   3.366   0.023
  969SOL     OW14534   4.720   3.687   6.960
  969SOL    HW114535   0.002   3.720   6.896
  969SOL    HW214536   4.709   3.595   6.937
  970SOL     OW14537   2.047   3.599   2.952
  970SOL    HW114538   2.031   3.593   2.858
  970SOL    HW214539   2.067   3.509   2.978
  971SOL     OW14540   3.044   3.158   9.212
  971SOL    HW114541   3.080   3.079   9.172
  971SOL    HW214542   3.102   3.175   9.287
  972SOL     OW14543   4.779   4.607   9.287
  972SOL    HW114544   0.073   4.633   9.234
  972SOL    HW214545   4.727   4.550   9.230
  973SOL     OW14546   3.933   4.306  25.521
  973SOL    HW114547   3.954   4.307  25.615
  973SOL    HW214548   3.868   4.375  25.510
  974SOL     OW14549   4.123   4.026  25.646
  974SOL    HW114550   4.168   4.104  25.678
  974SOL    HW214551   4.119   4.037  25.551
  975SOL     OW14552   2.843   0.039   8.295
  975SOL    HW114553   2.809   0.102   8.232
  975SOL    HW214554   2.807   4.736   8.267
  976SOL     OW14555   1.207   4.085  11.467
  976SOL    HW114556   1.289   4.089  11.516
  976SOL    HW214557   1.179   4.176  11.460
  977SOL     OW14558   3.229   4.668  10.347
  977SOL    HW114559   3.244   4.718  10.427
  977SOL    HW214560   3.157   4.713  10.303
  978SOL     OW14561   4.309   4.159  27.703
  978SOL    HW114562   4.266   4.095  27.645
  978SOL    HW214563   4.387   4.185  27.655
  979SOL     OW14564   0.960   4.404  10.438
  979SOL    HW114565   0.932   4.360  10.518
  979SOL    HW214566   0.978   4.494  10.465
  980SOL     OW14567   2.025   2.281   5.041
  980SOL    HW114568   1.962   2.260   4.972
  980SOL    HW214569   1.994   2.365   5.077
  981SOL     OW14570   4.207   1.124  26.723
  981SOL    HW114571   4.259   1.126  26.803
  981SOL    HW214572   4.232   1.204  26.677
  982SOL     OW14573   3.131   3.566   7.396
  982SOL    HW114574   3.148   3.661   7.397
  982SOL    HW214575   3.037   3.559   7.378
  983SOL     OW14576   3.982   0.440  26.250
  983SOL    HW114577   4.032   0.521  26.261
  983SOL    HW214578   3.981   0.424  26.156
  984SOL     OW14579   3.539   2.778   2.500
  984SOL    HW114580   3.597   2.703   2.495
  984SOL    HW214581   3.596   2.854   2.488
  985SOL     OW14582   3.820   1.029   6.529
  985SOL    HW114583   3.813   1.004   6.621
  985SOL    HW214584   3.768   1.110   6.523
  986SOL     OW14585   1.026   3.810   6.833
  986SOL    HW114586   1.029   3.902   6.808
  986SOL    HW214587   0.982   3.810   6.918
  987SOL     OW14588   1.545   0.144   5.432
  987SOL    HW114589   1.611   0.097   5.380
  987SOL    HW214590   1.523   0.220   5.378
  988SOL     OW14591   3.779   2.396  23.636
  988SOL    HW114592   3.690   2.423  23.617
  988SOL    HW214593   3.780   2.302  23.617
  989SOL     OW14594   4.691   4.104  24.494
  989SOL    HW114595   4.635   4.180  24.507
  989SOL    HW214596   4.752   4.131  24.426
  990SOL     OW14597   4.429   4.129  10.159
  990SOL    HW114598   4.449   4.222  10.161
  990SOL    HW214599   4.383   4.112  10.241
  991SOL     OW14600   4.388   0.420  17.305
  991SOL    HW114601   4.355   0.507  17.280
  991SOL    HW214602   4.469   0.410  17.254
  992SOL     OW14603   2.456   4.582  25.266
  992SOL    HW114604   2.474   4.600  25.359
  992SOL    HW214605   2.526   4.522  25.240
  993SOL     OW14606   4.749   2.892  21.510
  993SOL    HW114607   4.717   2.982  21.513
  993SOL    HW214608   0.024   2.889  21.433
  994SOL     OW14609   3.034   3.614   9.837
  994SOL    HW114610   2.968   3.613   9.767
  994SOL    HW214611   3.113   3.648   9.795
  995SOL     OW14612   1.020   0.370  21.574
  995SOL    HW114613   1.021   0.441  21.509
  995SOL    HW214614   1.108   0.369  21.610
  996SOL     OW14615   0.794   1.203   2.511
  996SOL    HW114616   0.737   1.260   2.562
  996SOL    HW214617   0.831   1.260   2.444
  997SOL     OW14618   4.526   4.674  10.558
  997SOL    HW114619   4.605   4.622  10.542
  997SOL    HW214620   4.500   4.651  10.647
  998SOL     OW14621   4.214   3.946   7.984
  998SOL    HW114622   4.150   3.968   7.916
  998SOL    HW214623   4.191   3.858   8.013
  999SOL     OW14624   4.733   2.151  27.889
  999SOL    HW114625   0.046   2.138  27.877
  999SOL    HW214626   4.696   2.152  27.801
 1000SOL     OW14627   4.146   2.718   5.405
 1000SOL    HW114628   4.067   2.665   5.404
 1000SOL    HW214629   4.205   2.674   5.343
 1001SOL     OW14630   2.627   2.076   8.250
 1001SOL    HW114631   2.698   2.088   8.186
 1001SOL    HW214632   2.573   2.154   8.241
 1002SOL     OW14633   0.764   1.127  21.878
 1002SOL    HW114634   0.830   1.195  21.887
 1002SOL    HW214635   0.799   1.068  21.812
 1003SOL     OW14636   2.132   4.709  25.180
 1003SOL    HW114637   2.181   4.757  25.247
 1003SOL    HW214638   2.066   4.771  25.151
 1004SOL     OW14639   3.099   0.870  18.383
 1004SOL    HW114640   3.009   0.901  18.394
 1004SOL    HW214641   3.147   0.909  18.456
 1005SOL     OW14642   0.114   1.741  25.877
 1005SOL    HW114643   0.104   1.805  25.807
 1005SOL    HW214644   0.034   1.688  25.872
 1006SOL     OW14645   1.678   3.840  24.805
 1006SOL    HW114646   1.637   3.776  24.864
 1006SOL    HW214647   1.761   3.861  24.848
 1007SOL     OW14648   0.368   1.881   6.116
 1007SOL    HW114649   0.438   1.817   6.104
 1007SOL    HW214650   0.299   1.853   6.057
 1008SOL     OW14651   4.703   3.882  27.280
 1008SOL    HW114652   4.626   3.935  27.303
 1008SOL    HW214653   4.767   3.946  27.249
 1009SOL     OW14654   3.475   4.491   2.893
 1009SOL    HW114655   3.464   4.410   2.944
 1009SOL    HW214656   3.481   4.560   2.959
 1010SOL     OW14657   0.795   0.497  10.900
 1010SOL    HW114658   0.827   0.418  10.944
 1010SOL    HW214659   0.806   0.567  10.965
 1011SOL     OW14660   2.990   1.014  24.314
 1011SOL    HW114661   3.029   1.012  24.227
 1011SOL    HW214662   3.050   0.964  24.369
 1012SOL     OW14663   1.763   4.469   9.413
 1012SOL    HW114664   1.761   4.427   9.499
 1012SOL    HW214665   1.833   4.424   9.366
 1013SOL     OW14666   1.628   4.120  21.416
 1013SOL    HW114667   1.549   4.147  21.463
 1013SOL    HW214668   1.602   4.119  21.324
 1014SOL     OW14669   2.995   2.267  27.840
 1014SOL    HW114670   2.969   2.298  27.753
 1014SOL    HW214671   2.987   2.172  27.835
 1015SOL     OW14672   4.111   2.685  17.329
 1015SOL    HW114673   4.071   2.598  17.333
 1015SOL    HW214674   4.192   2.677  17.379
 1016SOL     OW14675   3.197   2.852  22.709
 1016SOL    HW114676   3.209   2.759  22.729
 1016SOL    HW214677   3.257   2.897  22.768
 1017SOL     OW14678   3.552   2.112  26.630
 1017SOL    HW114679   3.606   2.095  26.707
 1017SOL    HW214680   3.607   2.167  26.574
 1018SOL     OW14681   2.161   0.353  27.286
 1018SOL    HW114682   2.104   0.276  27.283
 1018SOL    HW214683   2.139   0.396  27.368
 1019SOL     OW14684   0.248   2.956  23.897
 1019SOL    HW114685   0.229   3.026  23.834
 1019SOL    HW214686   0.269   3.002  23.978
 1020SOL     OW14687   0.787   4.085  27.809
 1020SOL    HW114688   0.844   4.015  27.841
 1020SOL    HW214689   0.828   4.115  27.728
 1021SOL     OW14690   2.640   0.687   4.574
 1021SOL    HW114691   2.635   0.591   4.572
 1021SOL    HW214692   2.729   0.707   4.546
 1022SOL     OW14693   0.055   2.644  27.159
 1022SOL    HW114694   0.071   2.570  27.101
 1022SOL    HW214695   4.780   2.703  27.108
 1023SOL     OW14696   0.526   4.015   5.775
 1023SOL    HW114697   0.521   4.069   5.854
 1023SOL    HW214698   0.506   3.927   5.805
 1024SOL     OW14699   0.595   0.340   2.507
 1024SOL    HW114700   0.532   0.274   2.536
 1024SOL    HW214701   0.667   0.333   2.570
 1025SOL     OW14702   4.247   0.748   7.702
 1025SOL    HW114703   4.328   0.773   7.747
 1025SOL    HW214704   4.209   0.831   7.673
 1026SOL     OW14705   0.207   3.004  22.010
 1026SOL    HW114706   0.143   3.016  21.940
 1026SOL    HW214707   0.257   3.085  22.012
 1027SOL     OW14708   0.635   3.115  19.469
 1027SOL    HW114709   0.647   3.020  19.462
 1027SOL    HW214710   0.660   3.149  19.383
 1028SOL     OW14711   3.166   2.434  25.739
 1028SOL    HW114712   3.232   2.375  25.702
 1028SOL    HW214713   3.090   2.425  25.682
 1029SOL     OW14714   2.935   1.319  18.048
 1029SOL    HW114715   2.898   1.295  17.963
 1029SOL    HW214716   2.964   1.235  18.085
 1030SOL     OW14717   2.307   2.010   1.708
 1030SOL    HW114718   2.246   2.020   1.782
 1030SOL    HW214719   2.268   2.061   1.638
 1031SOL     OW14720   3.148   3.864   5.208
 1031SOL    HW114721   3.174   3.927   5.274
 1031SOL    HW214722   3.221   3.862   5.146
 1032SOL     OW14723   2.755   2.670  22.184
 1032SOL    HW114724   2.796   2.625  22.258
 1032SOL    HW214725   2.788   2.622  22.107
 1033SOL     OW14726   1.771   0.398   4.665
 1033SOL    HW114727   1.757   0.488   4.636
 1033SOL    HW214728   1.734   0.395   4.753
 1034SOL     OW14729   2.197   0.332   4.348
 1034SOL    HW114730   2.158   0.411   4.311
 1034SOL    HW214731   2.123   0.285   4.387
 1035SOL     OW14732   1.399   0.253  27.960
 1035SOL    HW114733   1.347   0.196  28.017
 1035SOL    HW214734   1.365   0.341  27.977
 1036SOL     OW14735   4.609   2.590  26.015
 1036SOL    HW114736   4.635   2.679  25.994
 1036SOL    HW214737   4.640   2.537  25.941
 1037SOL     OW14738   0.330   0.689  20.507
 1037SOL    HW114739   0.247   0.644  20.491
 1037SOL    HW214740   0.392   0.647  20.447
 1038SOL     OW14741   1.142   0.206   2.002
 1038SOL    HW114742   1.083   0.143   1.960
 1038SOL    HW214743   1.115   0.291   1.968
 1039SOL     OW14744   1.695   0.518   7.464
 1039SOL    HW114745   1.779   0.559   7.487
 1039SOL    HW214746   1.643   0.591   7.429
 1040SOL     OW14747   2.471   1.132   4.546
 1040SOL    HW114748   2.400   1.068   4.542
 1040SOL    HW214749   2.444   1.202   4.486
 1041SOL     OW14750   3.482   0.805   8.312
 1041SOL    HW114751   3.390   0.806   8.283
 1041SOL    HW214752   3.516   0.722   8.280
 1042SOL     OW14753   0.777   0.878  20.772
 1042SOL    HW114754   0.688   0.866  20.740
 1042SOL    HW214755   0.825   0.801  20.739
 1043SOL     OW14756   1.005   2.988  20.452
 1043SOL    HW114757   1.066   3.013  20.521
 1043SOL    HW214758   1.007   2.892  20.451
 1044SOL     OW14759   3.230   3.009  27.798
 1044SOL    HW114760   3.246   2.988  27.890
 1044SOL    HW214761   3.160   3.074  27.800
 1045SOL     OW14762   1.343   2.145   2.134
 1045SOL    HW114763   1.328   2.068   2.189
 1045SOL    HW214764   1.332   2.219   2.194
 1046SOL     OW14765   1.359   4.781   4.805
 1046SOL    HW114766   1.426   0.060   4.839
 1046SOL    HW214767   1.287   0.056   4.777
 1047SOL     OW14768   0.619   0.967   3.500
 1047SOL    HW114769   0.628   0.960   3.405
 1047SOL    HW214770   0.578   0.885   3.527
 1048SOL     OW14771   1.037   2.534  18.717
 1048SOL    HW114772   0.942   2.542  18.711
 1048SOL    HW214773   1.062   2.478  18.644
 1049SOL     OW14774   1.325   4.025   9.058
 1049SOL    HW114775   1.309   3.945   9.007
 1049SOL    HW214776   1.409   4.009   9.101
 1050SOL     OW14777   1.098   1.295  23.692
 1050SOL    HW114778   1.081   1.303  23.786
 1050SOL    HW214779   1.012   1.276  23.653
 1051SOL     OW14780   3.363   0.094  21.689
 1051SOL    HW114781   3.400   0.024  21.743
 1051SOL    HW214782   3.431   0.113  21.625
 1052SOL     OW14783   0.623   2.108   7.395
 1052SOL    HW114784   0.566   2.095   7.471
 1052SOL    HW214785   0.655   2.197   7.405
 1053SOL     OW14786   1.873   1.240   9.144
 1053SOL    HW114787   1.956   1.218   9.185
 1053SOL    HW214788   1.808   1.231   9.214
 1054SOL     OW14789   1.880   0.373  10.126
 1054SOL    HW114790   1.818   0.309  10.160
 1054SOL    HW214791   1.944   0.385  10.196
 1055SOL     OW14792   2.885   2.873   7.388
 1055SOL    HW114793   2.941   2.949   7.368
 1055SOL    HW214794   2.822   2.870   7.317
 1056SOL     OW14795   2.013   4.393   3.065
 1056SOL    HW114796   1.956   4.355   3.131
 1056SOL    HW214797   2.088   4.427   3.115
 1057SOL     OW14798   2.659   1.425   8.165
 1057SOL    HW114799   2.581   1.406   8.217
 1057SOL    HW214800   2.635   1.501   8.112
 1058SOL     OW14801   0.597   0.045  23.317
 1058SOL    HW114802   0.627   0.116  23.373
 1058SOL    HW214803   0.505   0.033  23.342
 1059SOL     OW14804   1.655   2.253   8.737
 1059SOL    HW114805   1.621   2.252   8.648
 1059SOL    HW214806   1.578   2.262   8.793
 1060SOL     OW14807   0.146   3.503  19.733
 1060SOL    HW114808   0.076   3.503  19.668
 1060SOL    HW214809   0.149   3.594  19.765
 1061SOL     OW14810   2.408   3.103  23.790
 1061SOL    HW114811   2.376   3.128  23.877
 1061SOL    HW214812   2.420   3.186  23.744
 1062SOL     OW14813   3.816   3.975  23.070
 1062SOL    HW114814   3.744   4.006  23.125
 1062SOL    HW214815   3.884   3.948  23.132
 1063SOL     OW14816   4.541   1.608  21.266
 1063SOL    HW114817   4.578   1.532  21.311
 1063SOL    HW214818   4.617   1.659  21.239
 1064SOL     OW14819   1.332   3.488   8.096
 1064SOL    HW114820   1.343   3.575   8.135
 1064SOL    HW214821   1.237   3.477   8.089
 1065SOL     OW14822   2.512   1.408  18.953
 1065SOL    HW114823   2.527   1.432  18.861
 1065SOL    HW214824   2.432   1.454  18.976
 1066SOL     OW14825   0.043   1.475   7.831
 1066SOL    HW114826   0.109   1.535   7.796
 1066SOL    HW214827   0.012   1.517   7.911
 1067SOL     OW14828   0.543   1.491  20.306
 1067SOL    HW114829   0.576   1.578  20.283
 1067SOL    HW214830   0.620   1.442  20.335
 1068SOL     OW14831   4.380   0.513  25.565
 1068SOL    HW114832   4.343   0.517  25.477
 1068SOL    HW214833   4.438   0.589  25.571
 1069SOL     OW14834   0.587   1.620   3.530
 1069SOL    HW114835   0.576   1.668   3.448
 1069SOL    HW214836   0.499   1.616   3.567
 1070SOL     OW14837   3.746   0.628  21.440
 1070SOL    HW114838   3.829   0.613  21.396
 1070SOL    HW214839   3.750   0.720  21.468
 1071SOL     OW14840   3.845   0.788   2.301
 1071SOL    HW114841   3.812   0.770   2.212
 1071SOL    HW214842   3.780   0.749   2.359
 1072SOL     OW14843   3.394   3.306  25.264
 1072SOL    HW114844   3.381   3.329  25.172
 1072SOL    HW214845   3.447   3.377  25.300
 1073SOL     OW14846   0.777   3.874   3.695
 1073SOL    HW114847   0.809   3.953   3.653
 1073SOL    HW214848   0.688   3.896   3.722
 1074SOL     OW14849   4.075   3.984   0.925
 1074SOL    HW114850   4.018   3.907   0.926
 1074SOL    HW214851   4.084   4.008   1.018
 1075SOL     OW14852   3.935   3.430   2.501
 1075SOL    HW114853   3.930   3.371   2.426
 1075SOL    HW214854   3.968   3.512   2.465
 1076SOL     OW14855   1.018   2.461  22.761
 1076SOL    HW114856   0.977   2.378  22.788
 1076SOL    HW214857   0.947   2.525  22.764
 1077SOL     OW14858   3.135   4.732   4.157
 1077SOL    HW114859   3.173   4.774   4.235
 1077SOL    HW214860   3.110   4.645   4.187
 1078SOL     OW14861   1.822   4.446  28.194
 1078SOL    HW114862   1.744   4.405  28.231
 1078SOL    HW214863   1.796   4.475  28.107
 1079SOL     OW14864   1.044   4.179  21.685
 1079SOL    HW114865   0.997   4.198  21.603
 1079SOL    HW214866   1.107   4.111  21.661
 1080SOL     OW14867   2.597   3.233  22.850
 1080SOL    HW114868   2.665   3.288  22.888
 1080SOL    HW214869   2.527   3.233  22.915
 1081SOL     OW14870   0.010   2.488   4.059
 1081SOL    HW114871   0.066   2.555   4.098
 1081SOL    HW214872   4.751   2.531   3.983
 1082SOL     OW14873   3.807   3.547  28.448
 1082SOL    HW114874   3.806   3.602   0.004
 1082SOL    HW214875   3.753   3.472  28.471
 1083SOL     OW14876   3.498   0.190   9.386
 1083SOL    HW114877   3.522   0.251   9.456
 1083SOL    HW214878   3.408   0.166   9.404
 1084SOL     OW14879   3.184   0.434  25.834
 1084SOL    HW114880   3.131   0.446  25.912
 1084SOL    HW214881   3.208   0.523  25.807
 1085SOL     OW14882   0.485   3.571   8.440
 1085SOL    HW114883   0.570   3.536   8.468
 1085SOL    HW214884   0.432   3.493   8.422
 1086SOL     OW14885   0.055   0.743   1.576
 1086SOL    HW114886   0.057   0.768   1.669
 1086SOL    HW214887   4.758   0.785   1.541
 1087SOL     OW14888   1.837   4.010   8.377
 1087SOL    HW114889   1.890   4.040   8.304
 1087SOL    HW214890   1.815   4.090   8.426
 1088SOL     OW14891   3.826   4.119   1.763
 1088SOL    HW114892   3.827   4.060   1.687
 1088SOL    HW214893   3.909   4.167   1.757
 1089SOL     OW14894   3.611   0.571  26.145
 1089SOL    HW114895   3.672   0.557  26.217
 1089SOL    HW214896   3.540   0.623  26.183
 1090SOL     OW14897   3.610   2.376   4.700
 1090SOL    HW114898   3.646   2.461   4.675
 1090SOL    HW214899   3.530   2.367   4.649
 1091SOL     OW14900   4.390   1.307  17.656
 1091SOL    HW114901   4.314   1.272  17.609
 1091SOL    HW214902   4.433   1.363  17.591
 1092SOL     OW14903   4.443   4.021  26.925
 1092SOL    HW114904   4.454   4.102  26.874
 1092SOL    HW214905   4.505   4.031  26.997
 1093SOL     OW14906   4.164   2.366   7.540
 1093SOL    HW114907   4.158   2.276   7.570
 1093SOL    HW214908   4.227   2.363   7.468
 1094SOL     OW14909   1.115   4.656   1.325
 1094SOL    HW114910   1.207   4.661   1.301
 1094SOL    HW214911   1.085   4.747   1.325
 1095SOL     OW14912   2.351   3.436   4.820
 1095SOL    HW114913   2.404   3.469   4.747
 1095SOL    HW214914   2.261   3.453   4.795
 1096SOL     OW14915   1.814   2.383   9.133
 1096SOL    HW114916   1.875   2.357   9.064
 1096SOL    HW214917   1.764   2.455   9.095
 1097SOL     OW14918   2.130   2.674   9.238
 1097SOL    HW114919   2.111   2.758   9.280
 1097SOL    HW214920   2.126   2.692   9.144
 1098SOL     OW14921   0.664   2.323  21.380
 1098SOL    HW114922   0.664   2.414  21.412
 1098SOL    HW214923   0.571   2.303  21.367
 1099SOL     OW14924   0.727   2.023   3.884
 1099SOL    HW114925   0.769   2.107   3.862
 1099SOL    HW214926   0.692   2.036   3.972
 1100SOL     OW14927   1.641   0.979   2.711
 1100SOL    HW114928   1.693   0.974   2.791
 1100SOL    HW214929   1.556   0.943   2.735
 1101SOL     OW14930   0.122   4.140   9.749
 1101SOL    HW114931   0.049   4.153   9.810
 1101SOL    HW214932   0.116   4.047   9.724
 1102SOL     OW14933   1.266   3.326   3.164
 1102SOL    HW114934   1.195   3.374   3.122
 1102SOL    HW214935   1.260   3.351   3.256
 1103SOL     OW14936   2.595   1.943  11.414
 1103SOL    HW114937   2.561   1.976  11.497
 1103SOL    HW214938   2.682   1.910  11.435
 1104SOL     OW14939   1.036   1.350   9.166
 1104SOL    HW114940   1.009   1.308   9.248
 1104SOL    HW214941   0.955   1.357   9.115
 1105SOL     OW14942   3.475   1.489   6.428
 1105SOL    HW114943   3.530   1.463   6.354
 1105SOL    HW214944   3.525   1.557   6.473
 1106SOL     OW14945   2.183   3.973   2.460
 1106SOL    HW114946   2.224   3.888   2.470
 1106SOL    HW214947   2.165   4.003   2.550
 1107SOL     OW14948   1.864   2.006  28.420
 1107SOL    HW114949   1.791   1.978  28.476
 1107SOL    HW214950   1.909   2.073  28.472
 1108SOL     OW14951   0.517   1.321   7.480
 1108SOL    HW114952   0.581   1.351   7.544
 1108SOL    HW214953   0.525   1.384   7.408
 1109SOL     OW14954   0.724   4.102   0.133
 1109SOL    HW114955   0.811   4.066   0.150
 1109SOL    HW214956   0.716   4.175   0.195
 1110SOL     OW14957   4.336   3.733   6.978
 1110SOL    HW114958   4.245   3.716   7.003
 1110SOL    HW214959   4.387   3.677   7.036
 1111SOL     OW14960   1.197   1.524  22.813
 1111SOL    HW114961   1.212   1.468  22.736
 1111SOL    HW214962   1.273   1.508  22.869
 1112SOL     OW14963   0.469   3.324   7.932
 1112SOL    HW114964   0.503   3.337   8.021
 1112SOL    HW214965   0.483   3.409   7.889
 1113SOL     OW14966   2.822   1.574  23.292
 1113SOL    HW114967   2.733   1.602  23.272
 1113SOL    HW214968   2.827   1.574  23.387
 1114SOL     OW14969   0.902   0.600   1.103
 1114SOL    HW114970   0.827   0.645   1.142
 1114SOL    HW214971   0.951   0.669   1.059
 1115SOL     OW14972   1.023   1.416   8.811
 1115SOL    HW114973   1.035   1.469   8.732
 1115SOL    HW214974   1.047   1.327   8.784
 1116SOL     OW14975   3.830   2.555  24.595
 1116SOL    HW114976   3.912   2.510  24.614
 1116SOL    HW214977   3.834   2.572  24.501
 1117SOL     OW14978   4.041   3.292  27.050
 1117SOL    HW114979   3.989   3.233  26.995
 1117SOL    HW214980   4.021   3.263  27.140
 1118SOL     OW14981   1.313   2.353  20.413
 1118SOL    HW114982   1.237   2.364  20.471
 1118SOL    HW214983   1.287   2.285  20.351
 1119SOL     OW14984   3.726   1.827  23.173
 1119SOL    HW114985   3.671   1.749  23.176
 1119SOL    HW214986   3.709   1.865  23.087
 1120SOL     OW14987   1.128   3.733  10.818
 1120SOL    HW114988   1.107   3.824  10.840
 1120SOL    HW214989   1.167   3.697  10.898
 1121SOL     OW14990   2.884   4.209   6.166
 1121SOL    HW114991   2.925   4.217   6.252
 1121SOL    HW214992   2.889   4.116   6.145
 1122SOL     OW14993   1.791   3.836   6.121
 1122SOL    HW114994   1.878   3.848   6.085
 1122SOL    HW214995   1.735   3.895   6.070
 1123SOL     OW14996   1.803   4.461  22.563
 1123SOL    HW114997   1.804   4.557  22.567
 1123SOL    HW214998   1.715   4.440  22.531
 1124SOL     OW14999   0.332   2.156   8.978
 1124SOL    HW115000   0.404   2.187   9.034
 1124SOL    HW215001   0.342   2.061   8.977
 1125SOL     OW15002   3.834   4.709   6.970
 1125SOL    HW115003   3.806   4.637   7.027
 1125SOL    HW215004   3.915   4.678   6.929
 1126SOL     OW15005   0.235   2.192   3.336
 1126SOL    HW115006   0.255   2.210   3.428
 1126SOL    HW215007   0.139   2.194   3.331
 1127SOL     OW15008   2.206   4.648   3.665
 1127SOL    HW115009   2.269   4.710   3.629
 1127SOL    HW215010   2.128   4.659   3.611
 1128SOL     OW15011   2.063   2.935   9.372
 1128SOL    HW115012   2.008   3.005   9.338
 1128SOL    HW215013   2.093   2.967   9.457
 1129SOL     OW15014   4.012   2.468  23.792
 1129SOL    HW115015   3.945   2.429  23.736
 1129SOL    HW215016   4.093   2.457  23.742
 1130SOL     OW15017   1.232   4.436   1.620
 1130SOL    HW115018   1.293   4.382   1.569
 1130SOL    HW215019   1.179   4.481   1.553
 1131SOL     OW15020   3.704   1.700   8.086
 1131SOL    HW115021   3.794   1.688   8.115
 1131SOL    HW215022   3.709   1.697   7.990
 1132SOL     OW15023   2.438   2.244   6.957
 1132SOL    HW115024   2.355   2.213   6.922
 1132SOL    HW215025   2.427   2.239   7.052
 1133SOL     OW15026   2.691   4.231  26.536
 1133SOL    HW115027   2.675   4.215  26.629
 1133SOL    HW215028   2.665   4.322  26.523
 1134SOL     OW15029   3.100   0.140  13.055
 1134SOL    HW115030   3.029   0.201  13.075
 1134SOL    HW215031   3.070   0.095  12.976
 1135SOL     OW15032   3.769   4.472  22.498
 1135SOL    HW115033   3.767   4.541  22.565
 1135SOL    HW215034   3.847   4.421  22.517
 1136SOL     OW15035   3.621   1.819  28.220
 1136SOL    HW115036   3.698   1.852  28.267
 1136SOL    HW215037   3.562   1.894  28.214
 1137SOL     OW15038   2.775   1.568  17.780
 1137SOL    HW115039   2.784   1.614  17.696
 1137SOL    HW215040   2.692   1.600  17.815
 1138SOL     OW15041   0.148   4.414   0.667
 1138SOL    HW115042   0.063   4.386   0.633
 1138SOL    HW215043   0.203   4.424   0.589
 1139SOL     OW15044   1.458   2.210  12.120
 1139SOL    HW115045   1.418   2.267  12.185
 1139SOL    HW215046   1.449   2.122  12.155
 1140SOL     OW15047   3.516   4.321  27.449
 1140SOL    HW115048   3.519   4.287  27.539
 1140SOL    HW215049   3.608   4.333  27.425
 1141SOL     OW15050   4.676   0.424   7.588
 1141SOL    HW115051   4.634   0.395   7.507
 1141SOL    HW215052   4.605   0.428   7.652
 1142SOL     OW15053   0.215   1.654  21.522
 1142SOL    HW115054   0.240   1.657  21.614
 1142SOL    HW215055   0.191   1.562  21.506
 1143SOL     OW15056   4.649   4.303  21.899
 1143SOL    HW115057   4.655   4.262  21.813
 1143SOL    HW215058   4.608   4.388  21.883
 1144SOL     OW15059   2.775   1.949  25.866
 1144SOL    HW115060   2.724   1.872  25.892
 1144SOL    HW215061   2.854   1.913  25.825
 1145SOL     OW15062   1.766   4.216   0.975
 1145SOL    HW115063   1.726   4.267   1.045
 1145SOL    HW215064   1.741   4.125   0.994
 1146SOL     OW15065   0.124   3.772   2.555
 1146SOL    HW115066   0.083   3.817   2.628
 1146SOL    HW215067   0.183   3.838   2.516
 1147SOL     OW15068   0.074   1.361   8.543
 1147SOL    HW115069   0.163   1.330   8.528
 1147SOL    HW215070   0.035   1.368   8.456
 1148SOL     OW15071   1.430   1.040  18.300
 1148SOL    HW115072   1.360   0.987  18.262
 1148SOL    HW215073   1.476   0.980  18.359
 1149SOL     OW15074   2.593   0.612  27.503
 1149SOL    HW115075   2.675   0.573  27.534
 1149SOL    HW215076   2.591   0.592  27.409
 1150SOL     OW15077   3.768   4.353  27.926
 1150SOL    HW115078   3.812   4.409  27.861
 1150SOL    HW215079   3.838   4.324  27.984
 1151SOL     OW15080   0.771   4.431  24.850
 1151SOL    HW115081   0.724   4.505  24.812
 1151SOL    HW215082   0.863   4.447  24.830
 1152SOL     OW15083   4.370   1.799  23.020
 1152SOL    HW115084   4.332   1.863  23.080
 1152SOL    HW215085   4.311   1.799  22.944
 1153SOL     OW15086   1.066   1.927  24.912
 1153SOL    HW115087   1.060   1.848  24.965
 1153SOL    HW215088   1.033   1.997  24.969
 1154SOL     OW15089   0.881   2.322   5.146
 1154SOL    HW115090   0.828   2.255   5.190
 1154SOL    HW215091   0.828   2.402   5.151
 1155SOL     OW15092   4.427   4.706  23.137
 1155SOL    HW115093   4.406   4.754  23.057
 1155SOL    HW215094   4.433   4.615  23.110
 1156SOL     OW15095   0.833   4.337  26.099
 1156SOL    HW115096   0.823   4.371  26.188
 1156SOL    HW215097   0.750   4.293  26.081
 1157SOL     OW15098   0.580   3.743   5.351
 1157SOL    HW115099   0.533   3.811   5.302
 1157SOL    HW215100   0.630   3.791   5.416
 1158SOL     OW15101   2.097   0.333  24.883
 1158SOL    HW115102   2.084   0.349  24.976
 1158SOL    HW215103   2.008   0.317  24.849
 1159SOL     OW15104   3.097   0.706  26.367
 1159SOL    HW115105   3.173   0.757  26.396
 1159SOL    HW215106   3.082   0.643  26.438
 1160SOL     OW15107   0.816   4.423  25.137
 1160SOL    HW115108   0.771   4.428  25.052
 1160SOL    HW215109   0.746   4.408  25.200
 1161SOL     OW15110   2.826   4.580  20.461
 1161SOL    HW115111   2.811   4.638  20.536
 1161SOL    HW215112   2.782   4.498  20.486
 1162SOL     OW15113   2.614   1.590  26.531
 1162SOL    HW115114   2.700   1.592  26.488
 1162SOL    HW215115   2.573   1.510  26.498
 1163SOL     OW15116   0.948   0.291   8.807
 1163SOL    HW115117   0.919   0.270   8.719
 1163SOL    HW215118   0.897   0.368   8.833
 1164SOL     OW15119   0.391   2.530  28.014
 1164SOL    HW115120   0.333   2.526  27.939
 1164SOL    HW215121   0.447   2.453  28.005
 1165SOL     OW15122   0.793   0.551   0.088
 1165SOL    HW115123   0.784   0.473   0.033
 1165SOL    HW215124   0.778   0.519   0.177
 1166SOL     OW15125   2.378   0.316  26.359
 1166SOL    HW115126   2.290   0.284  26.339
 1166SOL    HW215127   2.412   0.348  26.276
 1167SOL     OW15128   4.101   0.276   0.936
 1167SOL    HW115129   4.104   0.276   1.032
 1167SOL    HW215130   4.190   0.299   0.909
 1168SOL     OW15131   3.372   0.016  25.952
 1168SOL    HW115132   3.381   0.107  25.923
 1168SOL    HW215133   3.385   4.745  25.873
 1169SOL     OW15134   2.710   1.059   7.565
 1169SOL    HW115135   2.631   1.081   7.614
 1169SOL    HW215136   2.782   1.100   7.614
 1170SOL     OW15137   2.971   3.564  19.821
 1170SOL    HW115138   3.007   3.552  19.909
 1170SOL    HW215139   2.927   3.649  19.825
 1171SOL     OW15140   0.796   1.204   3.144
 1171SOL    HW115141   0.782   1.127   3.089
 1171SOL    HW215142   0.891   1.220   3.140
 1172SOL     OW15143   2.886   2.154  26.807
 1172SOL    HW115144   2.841   2.084  26.854
 1172SOL    HW215145   2.877   2.231  26.864
 1173SOL     OW15146   1.031   1.232  22.158
 1173SOL    HW115147   1.034   1.190  22.244
 1173SOL    HW215148   1.063   1.165  22.097
 1174SOL     OW15149   1.586   3.478  20.084
 1174SOL    HW115150   1.642   3.519  20.150
 1174SOL    HW215151   1.618   3.388  20.077
 1175SOL     OW15152   4.144   1.205   8.973
 1175SOL    HW115153   4.190   1.289   8.965
 1175SOL    HW215154   4.169   1.157   8.894
 1176SOL     OW15155   3.844   3.283   4.026
 1176SOL    HW115156   3.777   3.324   3.971
 1176SOL    HW215157   3.798   3.210   4.068
 1177SOL     OW15158   1.018   4.276  25.321
 1177SOL    HW115159   1.087   4.342  25.318
 1177SOL    HW215160   0.948   4.313  25.268
 1178SOL     OW15161   4.396   1.173  26.422
 1178SOL    HW115162   4.384   1.238  26.491
 1178SOL    HW215163   4.308   1.150  26.395
 1179SOL     OW15164   1.506   2.601   8.396
 1179SOL    HW115165   1.541   2.572   8.312
 1179SOL    HW215166   1.432   2.542   8.412
 1180SOL     OW15167   2.278   0.987  17.778
 1180SOL    HW115168   2.193   0.996  17.821
 1180SOL    HW215169   2.312   1.076  17.772
 1181SOL     OW15170   0.123   2.221  23.640
 1181SOL    HW115171   0.112   2.279  23.565
 1181SOL    HW215172   0.106   2.276  23.717
 1182SOL     OW15173   1.983   4.314  25.957
 1182SOL    HW115174   2.007   4.221  25.953
 1182SOL    HW215175   1.940   4.324  26.042
 1183SOL     OW15176   3.287   1.086  18.090
 1183SOL    HW115177   3.353   1.016  18.096
 1183SOL    HW215178   3.318   1.140  18.017
 1184SOL     OW15179   3.309   3.270   4.498
 1184SOL    HW115180   3.358   3.194   4.467
 1184SOL    HW215181   3.218   3.248   4.483
 1185SOL     OW15182   2.846   3.815  25.299
 1185SOL    HW115183   2.877   3.728  25.324
 1185SOL    HW215184   2.909   3.846  25.234
 1186SOL     OW15185   2.826   3.860   2.349
 1186SOL    HW115186   2.822   3.956   2.343
 1186SOL    HW215187   2.735   3.832   2.353
 1187SOL     OW15188   0.226   0.577  27.298
 1187SOL    HW115189   0.149   0.539  27.256
 1187SOL    HW215190   0.206   0.575  27.391
 1188SOL     OW15191   1.981   0.180   3.005
 1188SOL    HW115192   1.902   0.195   2.954
 1188SOL    HW215193   2.049   0.163   2.940
 1189SOL     OW15194   3.486   4.676  21.818
 1189SOL    HW115195   3.510   4.670  21.911
 1189SOL    HW215196   3.450   4.591  21.796
 1190SOL     OW15197   3.738   1.386   8.350
 1190SOL    HW115198   3.725   1.461   8.408
 1190SOL    HW215199   3.824   1.402   8.310
 1191SOL     OW15200   3.866   2.394   2.796
 1191SOL    HW115201   3.857   2.464   2.861
 1191SOL    HW215202   3.849   2.314   2.845
 1192SOL     OW15203   4.518   0.759   0.154
 1192SOL    HW115204   4.555   0.722   0.074
 1192SOL    HW215205   4.592   0.763   0.215
 1193SOL     OW15206   3.536   3.553   7.603
 1193SOL    HW115207   3.574   3.628   7.557
 1193SOL    HW215208   3.610   3.493   7.615
 1194SOL     OW15209   1.357   2.969   4.381
 1194SOL    HW115210   1.366   3.051   4.431
 1194SOL    HW215211   1.438   2.922   4.399
 1195SOL     OW15212   1.040   0.589  21.383
 1195SOL    HW115213   1.043   0.581  21.288
 1195SOL    HW215214   1.016   0.680  21.400
 1196SOL     OW15215   2.062   3.244   5.229
 1196SOL    HW115216   2.046   3.327   5.184
 1196SOL    HW215217   2.135   3.263   5.288
 1197SOL     OW15218   3.486   0.144   8.911
 1197SOL    HW115219   3.393   0.160   8.895
 1197SOL    HW215220   3.507   0.197   8.988
 1198SOL     OW15221   1.164   3.287   1.730
 1198SOL    HW115222   1.167   3.310   1.823
 1198SOL    HW215223   1.176   3.370   1.684
 1199SOL     OW15224   0.333   0.405   2.095
 1199SOL    HW115225   0.348   0.341   2.165
 1199SOL    HW215226   0.332   0.353   2.015
 1200SOL     OW15227   1.149   2.124  20.252
 1200SOL    HW115228   1.095   2.053  20.286
 1200SOL    HW215229   1.087   2.185  20.214
 1201SOL     OW15230   2.933   4.687   6.176
 1201SOL    HW115231   2.889   4.769   6.153
 1201SOL    HW215232   3.024   4.712   6.191
 1202SOL     OW15233   0.147   1.477   1.973
 1202SOL    HW115234   0.128   1.473   1.879
 1202SOL    HW215235   0.133   1.569   1.995
 1203SOL     OW15236   1.848   1.496  28.488
 1203SOL    HW115237   1.785   1.449  28.433
 1203SOL    HW215238   1.933   1.465  28.458
 1204SOL     OW15239   1.800   2.571  25.588
 1204SOL    HW115240   1.762   2.483  25.583
 1204SOL    HW215241   1.894   2.556  25.593
 1205SOL     OW15242   3.305   1.388   0.442
 1205SOL    HW115243   3.263   1.400   0.356
 1205SOL    HW215244   3.398   1.377   0.422
 1206SOL     OW15245   4.540   1.817  11.161
 1206SOL    HW115246   4.476   1.884  11.183
 1206SOL    HW215247   4.488   1.740  11.137
 1207SOL     OW15248   2.601   3.165   6.193
 1207SOL    HW115249   2.560   3.082   6.168
 1207SOL    HW215250   2.532   3.213   6.238
 1208SOL     OW15251   0.986   0.555   6.990
 1208SOL    HW115252   1.010   0.560   7.082
 1208SOL    HW215253   1.069   0.538   6.945
 1209SOL     OW15254   4.245   3.285  27.389
 1209SOL    HW115255   4.228   3.366  27.340
 1209SOL    HW215256   4.291   3.313  27.468
 1210SOL     OW15257   0.230   2.628  22.930
 1210SOL    HW115258   0.189   2.680  22.999
 1210SOL    HW215259   0.236   2.540  22.967
 1211SOL     OW15260   2.418   0.504  20.363
 1211SOL    HW115261   2.469   0.557  20.302
 1211SOL    HW215262   2.345   0.559  20.390
 1212SOL     OW15263   2.816   4.143  22.687
 1212SOL    HW115264   2.860   4.109  22.765
 1212SOL    HW215265   2.872   4.214  22.657
 1213SOL     OW15266   3.963   3.773   3.803
 1213SOL    HW115267   3.917   3.814   3.876
 1213SOL    HW215268   3.972   3.843   3.738
 1214SOL     OW15269   0.889   4.005  24.464
 1214SOL    HW115270   0.810   3.971  24.506
 1214SOL    HW215271   0.873   3.995  24.370
 1215SOL     OW15272   3.873   3.394   9.370
 1215SOL    HW115273   3.821   3.467   9.403
 1215SOL    HW215274   3.854   3.321   9.430
 1216SOL     OW15275   4.663   4.362   2.170
 1216SOL    HW115276   4.755   4.338   2.159
 1216SOL    HW215277   4.649   4.360   2.264
 1217SOL     OW15278   2.046   3.515   5.156
 1217SOL    HW115279   2.044   3.543   5.247
 1217SOL    HW215280   1.969   3.556   5.116
 1218SOL     OW15281   4.309   4.613  23.769
 1218SOL    HW115282   4.215   4.615  23.788
 1218SOL    HW215283   4.350   4.641  23.851
 1219SOL     OW15284   3.009   4.341   9.361
 1219SOL    HW115285   3.009   4.315   9.453
 1219SOL    HW215286   3.102   4.338   9.336
 1220SOL     OW15287   0.610   2.524  21.045
 1220SOL    HW115288   0.639   2.615  21.054
 1220SOL    HW215289   0.686   2.478  21.008
 1221SOL     OW15290   1.845   3.154   4.909
 1221SOL    HW115291   1.812   3.200   4.832
 1221SOL    HW215292   1.812   3.204   4.983
 1222SOL     OW15293   0.085   4.468   1.111
 1222SOL    HW115294   0.114   4.503   1.195
 1222SOL    HW215295   0.094   4.373   1.119
 1223SOL     OW15296   3.678   2.872  20.006
 1223SOL    HW115297   3.736   2.930  20.055
 1223SOL    HW215298   3.592   2.914  20.011
 1224SOL     OW15299   3.838   0.180  22.900
 1224SOL    HW115300   3.872   0.252  22.847
 1224SOL    HW215301   3.768   0.142  22.847
 1225SOL     OW15302   3.549   2.644   4.012
 1225SOL    HW115303   3.534   2.597   3.931
 1225SOL    HW215304   3.614   2.592   4.059
 1226SOL     OW15305   4.276   1.776   6.370
 1226SOL    HW115306   4.231   1.754   6.452
 1226SOL    HW215307   4.359   1.729   6.373
 1227SOL     OW15308   2.351   4.045  25.823
 1227SOL    HW115309   2.333   4.052  25.917
 1227SOL    HW215310   2.264   4.031  25.784
 1228SOL     OW15311   2.970   0.437  18.977
 1228SOL    HW115312   2.961   0.445  18.882
 1228SOL    HW215313   2.891   0.479  19.012
 1229SOL     OW15314   2.017   0.773   3.946
 1229SOL    HW115315   1.956   0.846   3.934
 1229SOL    HW215316   2.004   0.718   3.869
 1230SOL     OW15317   3.319   1.319   2.006
 1230SOL    HW115318   3.381   1.324   1.933
 1230SOL    HW215319   3.254   1.387   1.988
 1231SOL     OW15320   0.181   4.331  19.051
 1231SOL    HW115321   0.272   4.322  19.021
 1231SOL    HW215322   0.187   4.388  19.127
 1232SOL     OW15323   2.478   2.422   7.882
 1232SOL    HW115324   2.544   2.455   7.821
 1232SOL    HW215325   2.396   2.464   7.854
 1233SOL     OW15326   3.112   2.938   0.376
 1233SOL    HW115327   3.190   2.941   0.320
 1233SOL    HW215328   3.044   2.983   0.326
 1234SOL     OW15329   4.248   4.080  28.010
 1234SOL    HW115330   4.316   4.021  28.043
 1234SOL    HW215331   4.238   4.056  27.918
 1235SOL     OW15332   3.970   1.436   4.276
 1235SOL    HW115333   4.065   1.429   4.270
 1235SOL    HW215334   3.955   1.483   4.358
 1236SOL     OW15335   0.224   4.751  24.849
 1236SOL    HW115336   0.152   4.733  24.788
 1236SOL    HW215337   0.258   4.664  24.872
 1237SOL     OW15338   0.340   2.682  28.219
 1237SOL    HW115339   0.349   2.648  28.130
 1237SOL    HW215340   0.316   2.774  28.208
 1238SOL     OW15341   0.994   3.787  23.551
 1238SOL    HW115342   0.919   3.846  23.542
 1238SOL    HW215343   1.064   3.829  23.500
 1239SOL     OW15344   2.665   3.446   1.524
 1239SOL    HW115345   2.619   3.516   1.570
 1239SOL    HW215346   2.709   3.489   1.451
 1240SOL     OW15347   2.985   4.033   9.808
 1240SOL    HW115348   2.938   4.055   9.889
 1240SOL    HW215349   2.952   3.947   9.784
 1241SOL     OW15350   1.497   1.604  26.962
 1241SOL    HW115351   1.492   1.661  26.886
 1241SOL    HW215352   1.587   1.614  26.994
 1242SOL     OW15353   0.045   2.290   6.720
 1242SOL    HW115354   0.102   2.217   6.699
 1242SOL    HW215355   4.770   2.301   6.643
 1243SOL     OW15356   2.600   0.272   4.545
 1243SOL    HW115357   2.557   0.275   4.460
 1243SOL    HW215358   2.687   0.237   4.528
 1244SOL     OW15359   2.484   3.148  22.598
 1244SOL    HW115360   2.420   3.118  22.663
 1244SOL    HW215361   2.513   3.234  22.631
 1245SOL     OW15362   4.677   1.115   6.460
 1245SOL    HW115363   4.655   1.206   6.438
 1245SOL    HW215364   4.769   1.106   6.436
 1246SOL     OW15365   2.365   0.160  26.049
 1246SOL    HW115366   2.388   0.250  26.072
 1246SOL    HW215367   2.276   0.166  26.013
 1247SOL     OW15368   1.262   4.018  23.958
 1247SOL    HW115369   1.307   4.041  23.877
 1247SOL    HW215370   1.315   3.949  23.997
 1248SOL     OW15371   3.050   3.452   8.136
 1248SOL    HW115372   3.035   3.462   8.042
 1248SOL    HW215373   3.085   3.536   8.164
 1249SOL     OW15374   3.012   1.693  24.131
 1249SOL    HW115375   2.922   1.712  24.105
 1249SOL    HW215376   3.056   1.671  24.049
 1250SOL     OW15377   0.031   4.203   3.547
 1250SOL    HW115378   0.031   4.290   3.507
 1250SOL    HW215379   4.748   4.153   3.497
 1251SOL     OW15380   0.876   3.574   2.464
 1251SOL    HW115381   0.864   3.507   2.532
 1251SOL    HW215382   0.883   3.656   2.512
 1252SOL     OW15383   0.047   3.680   9.482
 1252SOL    HW115384   4.744   3.647   9.450
 1252SOL    HW215385   0.094   3.601   9.511
 1253SOL     OW15386   4.630   2.543   2.030
 1253SOL    HW115387   4.703   2.513   1.976
 1253SOL    HW215388   4.664   2.541   2.119
 1254SOL     OW15389   2.099   3.592  21.940
 1254SOL    HW115390   2.161   3.537  21.892
 1254SOL    HW215391   2.019   3.539  21.945
 1255SOL     OW15392   4.521   3.438   2.539
 1255SOL    HW115393   4.474   3.377   2.597
 1255SOL    HW215394   4.547   3.385   2.464
 1256SOL     OW15395   2.107   0.237  25.882
 1256SOL    HW115396   2.110   0.329  25.854
 1256SOL    HW215397   2.015   0.220  25.899
 1257SOL     OW15398   0.736   3.795   5.779
 1257SOL    HW115399   0.808   3.855   5.761
 1257SOL    HW215400   0.663   3.829   5.728
 1258SOL     OW15401   1.880   4.004   0.651
 1258SOL    HW115402   1.867   4.098   0.661
 1258SOL    HW215403   1.889   3.971   0.741
 1259SOL     OW15404   1.487   1.567   5.744
 1259SOL    HW115405   1.526   1.575   5.831
 1259SOL    HW215406   1.553   1.603   5.685
 1260SOL     OW15407   1.748   3.645  21.764
 1260SOL    HW115408   1.808   3.713  21.795
 1260SOL    HW215409   1.751   3.577  21.830
 1261SOL     OW15410   3.466   4.173  24.929
 1261SOL    HW115411   3.403   4.104  24.910
 1261SOL    HW215412   3.549   4.127  24.940
 1262SOL     OW15413   3.870   1.773  19.990
 1262SOL    HW115414   3.798   1.712  19.972
 1262SOL    HW215415   3.857   1.844  19.927
 1263SOL     OW15416   2.814   0.952   7.072
 1263SOL    HW115417   2.786   0.990   7.155
 1263SOL    HW215418   2.830   1.027   7.015
 1264SOL     OW15419   1.555   1.759  24.226
 1264SOL    HW115420   1.624   1.693  24.223
 1264SOL    HW215421   1.507   1.742  24.307
 1265SOL     OW15422   3.175   4.334  24.976
 1265SOL    HW115423   3.257   4.286  24.993
 1265SOL    HW215424   3.125   4.276  24.919
 1266SOL     OW15425   2.227   3.076  24.749
 1266SOL    HW115426   2.321   3.086  24.738
 1266SOL    HW215427   2.207   2.991  24.711
 1267SOL     OW15428   3.384   2.396   5.272
 1267SOL    HW115429   3.396   2.322   5.331
 1267SOL    HW215430   3.331   2.459   5.322
 1268SOL     OW15431   1.601   0.126  25.917
 1268SOL    HW115432   1.599   0.039  25.957
 1268SOL    HW215433   1.543   0.179  25.972
 1269SOL     OW15434   2.633   2.187   1.154
 1269SOL    HW115435   2.653   2.159   1.243
 1269SOL    HW215436   2.570   2.122   1.123
 1270SOL     OW15437   2.781   1.899   2.874
 1270SOL    HW115438   2.834   1.976   2.853
 1270SOL    HW215439   2.824   1.860   2.950
 1271SOL     OW15440   0.512   2.450  19.545
 1271SOL    HW115441   0.529   2.513  19.615
 1271SOL    HW215442   0.538   2.365  19.581
 1272SOL     OW15443   1.522   3.147   0.948
 1272SOL    HW115444   1.483   3.218   0.896
 1272SOL    HW215445   1.505   3.172   1.039
 1273SOL     OW15446   1.899   1.890  19.730
 1273SOL    HW115447   1.875   1.925  19.816
 1273SOL    HW215448   1.924   1.799  19.748
 1274SOL     OW15449   2.924   1.781  21.349
 1274SOL    HW115450   2.858   1.764  21.416
 1274SOL    HW215451   2.875   1.821  21.277
 1275SOL     OW15452   2.059   1.232   5.058
 1275SOL    HW115453   2.052   1.200   5.148
 1275SOL    HW215454   2.115   1.309   5.065
 1276SOL     OW15455   1.703   2.838   8.082
 1276SOL    HW115456   1.787   2.880   8.065
 1276SOL    HW215457   1.651   2.856   8.003
 1277SOL     OW15458   0.413   1.501  27.844
 1277SOL    HW115459   0.422   1.468  27.755
 1277SOL    HW215460   0.456   1.587  27.842
 1278SOL     OW15461   3.302   3.543   9.476
 1278SOL    HW115462   3.284   3.450   9.487
 1278SOL    HW215463   3.365   3.548   9.404
 1279SOL     OW15464   2.294   1.975  10.602
 1279SOL    HW115465   2.235   1.944  10.533
 1279SOL    HW215466   2.259   1.937  10.682
 1280SOL     OW15467   3.619   0.044  22.377
 1280SOL    HW115468   3.680   0.062  22.306
 1280SOL    HW215469   3.671   0.052  22.457
 1281SOL     OW15470   1.498   2.962   3.081
 1281SOL    HW115471   1.411   2.955   3.120
 1281SOL    HW215472   1.494   3.042   3.029
 1282SOL     OW15473   1.868   3.778   3.041
 1282SOL    HW115474   1.929   3.711   3.010
 1282SOL    HW215475   1.880   3.780   3.136
 1283SOL     OW15476   1.804   0.396   4.257
 1283SOL    HW115477   1.745   0.384   4.182
 1283SOL    HW215478   1.850   0.478   4.239
 1284SOL     OW15479   3.608   2.548  26.132
 1284SOL    HW115480   3.570   2.530  26.046
 1284SOL    HW215481   3.541   2.599  26.177
 1285SOL     OW15482   4.495   0.489   3.142
 1285SOL    HW115483   4.502   0.569   3.089
 1285SOL    HW215484   4.401   0.478   3.156
 1286SOL     OW15485   2.623   4.663   2.397
 1286SOL    HW115486   2.714   4.636   2.393
 1286SOL    HW215487   2.581   4.617   2.323
 1287SOL     OW15488   1.797   3.705   8.951
 1287SOL    HW115489   1.761   3.654   9.023
 1287SOL    HW215490   1.773   3.796   8.971
 1288SOL     OW15491   1.164   3.723  22.088
 1288SOL    HW115492   1.232   3.754  22.147
 1288SOL    HW215493   1.168   3.782  22.013
 1289SOL     OW15494   2.583   3.075  25.307
 1289SOL    HW115495   2.555   3.153  25.260
 1289SOL    HW215496   2.533   3.077  25.389
 1290SOL     OW15497   3.841   1.129   3.116
 1290SOL    HW115498   3.863   1.090   3.201
 1290SOL    HW215499   3.924   1.160   3.081
 1291SOL     OW15500   3.790   2.259  16.349
 1291SOL    HW115501   3.799   2.290  16.259
 1291SOL    HW215502   3.844   2.180  16.353
 1292SOL     OW15503   4.659   3.992   9.471
 1292SOL    HW115504   4.695   4.069   9.427
 1292SOL    HW215505   4.656   4.017   9.564
 1293SOL     OW15506   1.760   2.817  20.666
 1293SOL    HW115507   1.830   2.800  20.602
 1293SOL    HW215508   1.805   2.850  20.743
 1294SOL     OW15509   3.031   0.632   8.909
 1294SOL    HW115510   2.953   0.678   8.941
 1294SOL    HW215511   3.093   0.702   8.889
 1295SOL     OW15512   0.137   3.859  24.853
 1295SOL    HW115513   0.110   3.771  24.825
 1295SOL    HW215514   0.081   3.918  24.802
 1296SOL     OW15515   0.106   3.399  27.372
 1296SOL    HW115516   0.089   3.404  27.278
 1296SOL    HW215517   0.113   3.490  27.400
 1297SOL     OW15518   1.524   4.094   7.593
 1297SOL    HW115519   1.432   4.116   7.601
 1297SOL    HW215520   1.551   4.068   7.681
 1298SOL     OW15521   1.695   3.948  27.723
 1298SOL    HW115522   1.677   3.932  27.816
 1298SOL    HW215523   1.790   3.956  27.718
 1299SOL     OW15524   2.537   1.953   6.067
 1299SOL    HW115525   2.529   1.951   5.972
 1299SOL    HW215526   2.528   1.862   6.094
 1300SOL     OW15527   4.128   0.240   9.020
 1300SOL    HW115528   4.125   0.305   9.090
 1300SOL    HW215529   4.186   0.279   8.954
 1301SOL     OW15530   1.765   2.622  11.710
 1301SOL    HW115531   1.684   2.604  11.757
 1301SOL    HW215532   1.834   2.590  11.768
 1302SOL     OW15533   2.628   2.194   7.838
 1302SOL    HW115534   2.704   2.164   7.888
 1302SOL    HW215535   2.584   2.256   7.896
 1303SOL     OW15536   1.270   1.592  24.960
 1303SOL    HW115537   1.332   1.665  24.969
 1303SOL    HW215538   1.306   1.524  25.016
 1304SOL     OW15539   3.492   3.735   6.930
 1304SOL    HW115540   3.525   3.647   6.947
 1304SOL    HW215541   3.491   3.742   6.835
 1305SOL     OW15542   0.652   3.464  25.029
 1305SOL    HW115543   0.640   3.378  25.067
 1305SOL    HW215544   0.570   3.510  25.048
 1306SOL     OW15545   3.697   3.998  23.953
 1306SOL    HW115546   3.701   4.094  23.949
 1306SOL    HW215547   3.749   3.975  24.030
 1307SOL     OW15548   0.366   0.183   8.296
 1307SOL    HW115549   0.360   0.204   8.203
 1307SOL    HW215550   0.332   0.261   8.340
 1308SOL     OW15551   0.871   2.451   2.411
 1308SOL    HW115552   0.884   2.361   2.441
 1308SOL    HW215553   0.878   2.445   2.315
 1309SOL     OW15554   0.623   1.180  23.026
 1309SOL    HW115555   0.547   1.177  23.084
 1309SOL    HW215556   0.664   1.264  23.046
 1310SOL     OW15557   2.539   3.281  28.425
 1310SOL    HW115558   2.506   3.192  28.413
 1310SOL    HW215559   2.620   3.283  28.373
 1311SOL     OW15560   0.628   1.429  23.389
 1311SOL    HW115561   0.654   1.338  23.377
 1311SOL    HW215562   0.628   1.442  23.483
 1312SOL     OW15563   1.203   4.288   6.126
 1312SOL    HW115564   1.162   4.204   6.149
 1312SOL    HW215565   1.204   4.289   6.030
 1313SOL     OW15566   2.487   2.951   2.109
 1313SOL    HW115567   2.530   2.869   2.134
 1313SOL    HW215568   2.447   2.932   2.024
 1314SOL     OW15569   3.638   1.846  21.595
 1314SOL    HW115570   3.714   1.790  21.579
 1314SOL    HW215571   3.601   1.862  21.509
 1315SOL     OW15572   4.449   0.225  18.350
 1315SOL    HW115573   4.497   0.304  18.326
 1315SOL    HW215574   4.373   0.224  18.291
 1316SOL     OW15575   1.823   3.960   6.408
 1316SOL    HW115576   1.811   3.922   6.321
 1316SOL    HW215577   1.737   3.995   6.431
 1317SOL     OW15578   1.378   0.715  23.971
 1317SOL    HW115579   1.458   0.721  23.919
 1317SOL    HW215580   1.318   0.663  23.918
 1318SOL     OW15581   1.901   3.440   4.564
 1318SOL    HW115582   1.989   3.431   4.529
 1318SOL    HW215583   1.885   3.534   4.566
 1319SOL     OW15584   2.205   1.367  21.895
 1319SOL    HW115585   2.117   1.344  21.865
 1319SOL    HW215586   2.232   1.292  21.949
 1320SOL     OW15587   2.251   4.682  19.675
 1320SOL    HW115588   2.316   4.612  19.677
 1320SOL    HW215589   2.290   4.749  19.619
 1321SOL     OW15590   2.156   4.067  20.957
 1321SOL    HW115591   2.076   4.014  20.962
 1321SOL    HW215592   2.129   4.148  20.915
 1322SOL     OW15593   3.793   4.132   9.083
 1322SOL    HW115594   3.767   4.066   9.019
 1322SOL    HW215595   3.859   4.185   9.038
 1323SOL     OW15596   3.507   3.910  15.571
 1323SOL    HW115597   3.563   3.929  15.495
 1323SOL    HW215598   3.495   3.815  15.569
 1324SOL     OW15599   3.854   1.880   7.424
 1324SOL    HW115600   3.818   1.798   7.391
 1324SOL    HW215601   3.876   1.862   7.516
 1325SOL     OW15602   1.549   1.269  20.218
 1325SOL    HW115603   1.626   1.220  20.191
 1325SOL    HW215604   1.574   1.310  20.300
 1326SOL     OW15605   3.325   0.904   3.550
 1326SOL    HW115606   3.309   0.998   3.553
 1326SOL    HW215607   3.347   0.880   3.640
 1327SOL     OW15608   4.203   1.511  17.715
 1327SOL    HW115609   4.195   1.539  17.806
 1327SOL    HW215610   4.265   1.438  17.717
 1328SOL     OW15611   4.744   1.847  25.222
 1328SOL    HW115612   0.045   1.813  25.187
 1328SOL    HW215613   4.676   1.789  25.188
 1329SOL     OW15614   4.476   0.680  23.744
 1329SOL    HW115615   4.555   0.732  23.728
 1329SOL    HW215616   4.473   0.619  23.671
 1330SOL     OW15617   4.546   1.153   9.698
 1330SOL    HW115618   4.639   1.149   9.674
 1330SOL    HW215619   4.541   1.221   9.765
 1331SOL     OW15620   1.108   3.393   7.133
 1331SOL    HW115621   1.063   3.349   7.205
 1331SOL    HW215622   1.055   3.471   7.116
 1332SOL     OW15623   2.470   1.140   5.179
 1332SOL    HW115624   2.504   1.118   5.092
 1332SOL    HW215625   2.543   1.120   5.238
 1333SOL     OW15626   4.682   1.287  22.397
 1333SOL    HW115627   4.712   1.203  22.363
 1333SOL    HW215628   4.762   1.333  22.421
 1334SOL     OW15629   2.228   0.782   3.651
 1334SOL    HW115630   2.233   0.720   3.579
 1334SOL    HW215631   2.147   0.759   3.697
 1335SOL     OW15632   0.929   3.173   5.952
 1335SOL    HW115633   0.848   3.195   5.906
 1335SOL    HW215634   0.999   3.199   5.891
 1336SOL     OW15635   2.719   4.032  11.506
 1336SOL    HW115636   2.712   4.128  11.512
 1336SOL    HW215637   2.730   4.003  11.596
 1337SOL     OW15638   0.771   0.376  27.028
 1337SOL    HW115639   0.685   0.418  27.024
 1337SOL    HW215640   0.827   0.439  27.072
 1338SOL     OW15641   2.883   2.140  21.321
 1338SOL    HW115642   2.962   2.118  21.369
 1338SOL    HW215643   2.869   2.066  21.262
 1339SOL     OW15644   2.420   3.498  24.717
 1339SOL    HW115645   2.402   3.567  24.781
 1339SOL    HW215646   2.338   3.489  24.669
 1340SOL     OW15647   1.999   0.432  14.085
 1340SOL    HW115648   1.989   0.513  14.135
 1340SOL    HW215649   2.084   0.397  14.111
 1341SOL     OW15650   3.281   4.469   6.717
 1341SOL    HW115651   3.344   4.439   6.782
 1341SOL    HW215652   3.318   4.441   6.633
 1342SOL     OW15653   3.132   3.674  10.947
 1342SOL    HW115654   3.055   3.726  10.970
 1342SOL    HW215655   3.205   3.734  10.956
 1343SOL     OW15656   3.923   0.776  23.905
 1343SOL    HW115657   3.906   0.686  23.934
 1343SOL    HW215658   3.836   0.812  23.888
 1344SOL     OW15659   2.903   1.040  23.820
 1344SOL    HW115660   2.910   1.001  23.733
 1344SOL    HW215661   2.816   1.015  23.851
 1345SOL     OW15662   4.116   1.544  26.538
 1345SOL    HW115663   4.057   1.470  26.522
 1345SOL    HW215664   4.074   1.595  26.607
 1346SOL     OW15665   2.325   0.389  24.714
 1346SOL    HW115666   2.254   0.379  24.778
 1346SOL    HW215667   2.320   0.480  24.686
 1347SOL     OW15668   2.946   3.479  26.307
 1347SOL    HW115669   2.982   3.465  26.394
 1347SOL    HW215670   2.900   3.563  26.313
 1348SOL     OW15671   3.878   0.064  27.686
 1348SOL    HW115672   3.811   0.100  27.628
 1348SOL    HW215673   3.858   0.102  27.772
 1349SOL     OW15674   1.835   3.646  25.226
 1349SOL    HW115675   1.887   3.597  25.162
 1349SOL    HW215676   1.787   3.710  25.173
 1350SOL     OW15677   3.087   2.384   5.521
 1350SOL    HW115678   3.067   2.456   5.580
 1350SOL    HW215679   3.178   2.399   5.494
 1351SOL     OW15680   0.092   3.911  23.443
 1351SOL    HW115681   0.066   4.003  23.445
 1351SOL    HW215682   0.060   3.879  23.358
 1352SOL     OW15683   4.455   3.012  22.563
 1352SOL    HW115684   4.391   2.941  22.564
 1352SOL    HW215685   4.538   2.969  22.545
 1353SOL     OW15686   2.573   3.770   8.745
 1353SOL    HW115687   2.481   3.792   8.727
 1353SOL    HW215688   2.570   3.719   8.826
 1354SOL     OW15689   0.850   3.041  21.561
 1354SOL    HW115690   0.915   2.997  21.616
 1354SOL    HW215691   0.900   3.102  21.508
 1355SOL     OW15692   1.586   1.726  23.457
 1355SOL    HW115693   1.502   1.686  23.434
 1355SOL    HW215694   1.602   1.789  23.387
 1356SOL     OW15695   1.630   3.768  21.519
 1356SOL    HW115696   1.540   3.763  21.487
 1356SOL    HW215697   1.622   3.759  21.614
 1357SOL     OW15698   0.722   3.501   6.084
 1357SOL    HW115699   0.636   3.467   6.059
 1357SOL    HW215700   0.714   3.596   6.073
 1358SOL     OW15701   1.791   1.288  19.636
 1358SOL    HW115702   1.719   1.289  19.699
 1358SOL    HW215703   1.771   1.358  19.575
 1359SOL     OW15704   1.509   0.289  22.991
 1359SOL    HW115705   1.497   0.254  23.079
 1359SOL    HW215706   1.505   0.384  23.002
 1360SOL     OW15707   2.566   1.667   7.126
 1360SOL    HW115708   2.498   1.721   7.086
 1360SOL    HW215709   2.635   1.729   7.149
 1361SOL     OW15710   4.429   1.449   7.606
 1361SOL    HW115711   4.386   1.405   7.533
 1361SOL    HW215712   4.518   1.413   7.607
 1362SOL     OW15713   3.270   1.000  25.705
 1362SOL    HW115714   3.224   0.959  25.632
 1362SOL    HW215715   3.347   1.041  25.665
 1363SOL     OW15716   2.576   1.189   0.421
 1363SOL    HW115717   2.669   1.209   0.417
 1363SOL    HW215718   2.567   1.105   0.376
 1364SOL     OW15719   2.995   4.307  21.378
 1364SOL    HW115720   2.977   4.256  21.299
 1364SOL    HW215721   2.912   4.310  21.425
 1365SOL     OW15722   2.794   1.372  27.075
 1365SOL    HW115723   2.714   1.326  27.050
 1365SOL    HW215724   2.795   1.368  27.170
 1366SOL     OW15725   3.568   0.879   2.344
 1366SOL    HW115726   3.507   0.854   2.414
 1366SOL    HW215727   3.544   0.824   2.270
 1367SOL     OW15728   1.601   0.622   8.853
 1367SOL    HW115729   1.592   0.613   8.948
 1367SOL    HW215730   1.574   0.712   8.834
 1368SOL     OW15731   4.620   1.974   7.354
 1368SOL    HW115732   4.685   2.041   7.375
 1368SOL    HW215733   4.550   2.022   7.310
 1369SOL     OW15734   2.365   3.896  21.013
 1369SOL    HW115735   2.327   3.818  21.054
 1369SOL    HW215736   2.289   3.951  20.991
 1370SOL     OW15737   2.226   3.495  24.494
 1370SOL    HW115738   2.182   3.464  24.414
 1370SOL    HW215739   2.255   3.583  24.472
 1371SOL     OW15740   2.022   0.627   8.610
 1371SOL    HW115741   2.043   0.709   8.565
 1371SOL    HW215742   2.013   0.563   8.539
 1372SOL     OW15743   0.971   0.144   0.887
 1372SOL    HW115744   1.016   0.089   0.823
 1372SOL    HW215745   1.041   0.179   0.942
 1373SOL     OW15746   3.141   2.175   8.739
 1373SOL    HW115747   3.081   2.135   8.802
 1373SOL    HW215748   3.207   2.108   8.722
 1374SOL     OW15749   2.057   4.152  22.381
 1374SOL    HW115750   1.980   4.159  22.437
 1374SOL    HW215751   2.090   4.242  22.375
 1375SOL     OW15752   1.057   3.124   3.749
 1375SOL    HW115753   1.026   3.185   3.816
 1375SOL    HW215754   0.987   3.124   3.683
 1376SOL     OW15755   0.034   3.651  18.424
 1376SOL    HW115756   0.103   3.670  18.361
 1376SOL    HW215757   4.771   3.574  18.389
 1377SOL     OW15758   1.583   1.719  27.626
 1377SOL    HW115759   1.641   1.766  27.686
 1377SOL    HW215760   1.623   1.632  27.618
 1378SOL     OW15761   2.266   1.106  21.990
 1378SOL    HW115762   2.232   1.031  21.941
 1378SOL    HW215763   2.299   1.069  22.072
 1379SOL     OW15764   2.146   2.124  22.395
 1379SOL    HW115765   2.177   2.087  22.477
 1379SOL    HW215766   2.141   2.218  22.412
 1380SOL     OW15767   3.265   1.416  26.249
 1380SOL    HW115768   3.182   1.370  26.262
 1380SOL    HW215769   3.279   1.465  26.330
 1381SOL     OW15770   0.849   4.489  23.490
 1381SOL    HW115771   0.887   4.511  23.575
 1381SOL    HW215772   0.873   4.398  23.476
 1382SOL     OW15773   3.700   1.293   7.518
 1382SOL    HW115774   3.610   1.322   7.531
 1382SOL    HW215775   3.694   1.197   7.518
 1383SOL     OW15776   3.979   1.486  17.568
 1383SOL    HW115777   4.011   1.451  17.484
 1383SOL    HW215778   4.059   1.500  17.619
 1384SOL     OW15779   1.396   0.963  10.246
 1384SOL    HW115780   1.310   0.936  10.215
 1384SOL    HW215781   1.446   0.881  10.251
 1385SOL     OW15782   3.702   3.547  17.895
 1385SOL    HW115783   3.658   3.558  17.811
 1385SOL    HW215784   3.793   3.528  17.873
 1386SOL     OW15785   3.241   0.275   0.016
 1386SOL    HW115786   3.166   0.327  28.510
 1386SOL    HW215787   3.236   0.195  28.485
 1387SOL     OW15788   4.628   4.373   6.735
 1387SOL    HW115789   4.694   4.436   6.705
 1387SOL    HW215790   4.573   4.423   6.795
 1388SOL     OW15791   0.622   0.943  21.478
 1388SOL    HW115792   0.541   0.938  21.427
 1388SOL    HW215793   0.691   0.922  21.415
 1389SOL     OW15794   2.815   2.522   3.917
 1389SOL    HW115795   2.746   2.578   3.880
 1389SOL    HW215796   2.858   2.483   3.841
 1390SOL     OW15797   0.300   2.616  23.673
 1390SOL    HW115798   0.342   2.666  23.743
 1390SOL    HW215799   0.357   2.541  23.659
 1391SOL     OW15800   4.095   3.333   7.703
 1391SOL    HW115801   4.073   3.394   7.774
 1391SOL    HW215802   4.160   3.378   7.651
 1392SOL     OW15803   4.675   3.166  21.413
 1392SOL    HW115804   4.760   3.205  21.392
 1392SOL    HW215805   4.612   3.236  21.396
 1393SOL     OW15806   0.343   0.815  25.275
 1393SOL    HW115807   0.328   0.743  25.336
 1393SOL    HW215808   0.291   0.887  25.310
 1394SOL     OW15809   2.662   0.491  27.969
 1394SOL    HW115810   2.625   0.570  27.927
 1394SOL    HW215811   2.757   0.504  27.963
 1395SOL     OW15812   1.611   1.249  22.085
 1395SOL    HW115813   1.593   1.205  22.002
 1395SOL    HW215814   1.662   1.326  22.060
 1396SOL     OW15815   4.315   2.903  25.975
 1396SOL    HW115816   4.402   2.870  25.953
 1396SOL    HW215817   4.288   2.954  25.899
 1397SOL     OW15818   1.069   1.609   0.990
 1397SOL    HW115819   1.132   1.599   0.920
 1397SOL    HW215820   1.006   1.674   0.957
 1398SOL     OW15821   3.367   4.176   2.658
 1398SOL    HW115822   3.304   4.123   2.610
 1398SOL    HW215823   3.383   4.128   2.738
 1399SOL     OW15824   0.509   3.926   3.507
 1399SOL    HW115825   0.415   3.939   3.494
 1399SOL    HW215826   0.537   3.873   3.432
 1400SOL     OW15827   1.080   3.528   0.698
 1400SOL    HW115828   1.041   3.491   0.777
 1400SOL    HW215829   1.007   3.540   0.638
 1401SOL     OW15830   2.242   2.403   4.921
 1401SOL    HW115831   2.226   2.496   4.935
 1401SOL    HW215832   2.181   2.359   4.980
 1402SOL     OW15833   0.968   2.504  21.413
 1402SOL    HW115834   0.989   2.500  21.507
 1402SOL    HW215835   0.929   2.591  21.402
 1403SOL     OW15836   2.058   2.651  10.566
 1403SOL    HW115837   2.025   2.687  10.483
 1403SOL    HW215838   2.139   2.607  10.542
 1404SOL     OW15839   3.999   3.029  28.489
 1404SOL    HW115840   3.979   3.084   0.043
 1404SOL    HW215841   4.083   3.064  28.457
 1405SOL     OW15842   2.091   3.084   0.559
 1405SOL    HW115843   2.080   3.080   0.464
 1405SOL    HW215844   2.092   3.177   0.580
 1406SOL     OW15845   1.219   0.677  20.796
 1406SOL    HW115846   1.169   0.658  20.716
 1406SOL    HW215847   1.180   0.759  20.829
 1407SOL     OW15848   3.264   3.678   6.076
 1407SOL    HW115849   3.181   3.637   6.099
 1407SOL    HW215850   3.317   3.606   6.040
 1408SOL     OW15851   4.226   0.507  21.051
 1408SOL    HW115852   4.207   0.538  21.139
 1408SOL    HW215853   4.294   0.442  21.062
 1409SOL     OW15854   0.052   3.142   7.006
 1409SOL    HW115855   0.121   3.112   6.947
 1409SOL    HW215856   4.760   3.165   6.949
 1410SOL     OW15857   1.840   0.084   6.764
 1410SOL    HW115858   1.813   4.774   6.766
 1410SOL    HW215859   1.935   0.081   6.778
 1411SOL     OW15860   0.178   3.425   7.265
 1411SOL    HW115861   0.224   3.342   7.260
 1411SOL    HW215862   0.102   3.414   7.208
 1412SOL     OW15863   0.251   2.747   3.748
 1412SOL    HW115864   0.188   2.733   3.678
 1412SOL    HW215865   0.239   2.673   3.808
 1413SOL     OW15866   2.515   2.020  26.098
 1413SOL    HW115867   2.543   2.074  26.173
 1413SOL    HW215868   2.477   2.083  26.037
 1414SOL     OW15869   2.706   4.089  22.980
 1414SOL    HW115870   2.710   4.008  22.930
 1414SOL    HW215871   2.629   4.079  23.037
 1415SOL     OW15872   2.934   3.158  27.885
 1415SOL    HW115873   2.934   3.252  27.903
 1415SOL    HW215874   2.893   3.150  27.798
 1416SOL     OW15875   0.817   3.394   2.156
 1416SOL    HW115876   0.784   3.304   2.146
 1416SOL    HW215877   0.897   3.384   2.207
 1417SOL     OW15878   4.388   4.772   4.390
 1417SOL    HW115879   4.316   0.050   4.366
 1417SOL    HW215880   4.432   4.753   4.307
 1418SOL     OW15881   4.349   2.899  21.669
 1418SOL    HW115882   4.300   2.883  21.589
 1418SOL    HW215883   4.372   2.992  21.666
 1419SOL     OW15884   3.019   2.865   0.616
 1419SOL    HW115885   3.048   2.864   0.525
 1419SOL    HW215886   3.082   2.920   0.662
 1420SOL     OW15887   1.043   2.046   3.190
 1420SOL    HW115888   1.115   1.992   3.158
 1420SOL    HW215889   1.004   2.084   3.112
 1421SOL     OW15890   1.060   0.542  24.944
 1421SOL    HW115891   1.131   0.497  24.990
 1421SOL    HW215892   1.104   0.605  24.887
 1422SOL     OW15893   3.860   0.304  10.428
 1422SOL    HW115894   3.840   0.344  10.513
 1422SOL    HW215895   3.935   0.248  10.444
 1423SOL     OW15896   1.012   4.524   2.973
 1423SOL    HW115897   1.004   4.615   2.945
 1423SOL    HW215898   1.054   4.528   3.059
 1424SOL     OW15899   0.271   2.936   6.629
 1424SOL    HW115900   0.238   2.915   6.716
 1424SOL    HW215901   0.231   3.020   6.607
 1425SOL     OW15902   1.216   0.492   8.314
 1425SOL    HW115903   1.296   0.458   8.275
 1425SOL    HW215904   1.229   0.481   8.409
 1426SOL     OW15905   0.270   1.216  25.306
 1426SOL    HW115906   0.225   1.231  25.223
 1426SOL    HW215907   0.355   1.260  25.295
 1427SOL     OW15908   0.273   4.240  24.547
 1427SOL    HW115909   0.277   4.180  24.621
 1427SOL    HW215910   0.364   4.264  24.531
 1428SOL     OW15911   1.608   0.168   9.783
 1428SOL    HW115912   1.630   0.144   9.873
 1428SOL    HW215913   1.632   0.091   9.731
 1429SOL     OW15914   2.747   2.868  26.127
 1429SOL    HW115915   2.795   2.945  26.097
 1429SOL    HW215916   2.792   2.794  26.086
 1430SOL     OW15917   2.427   4.217  21.367
 1430SOL    HW115918   2.333   4.217  21.353
 1430SOL    HW215919   2.449   4.126  21.387
 1431SOL     OW15920   1.065   3.092   6.214
 1431SOL    HW115921   1.011   3.138   6.150
 1431SOL    HW215922   1.142   3.064   6.166
 1432SOL     OW15923   4.409   3.787  21.760
 1432SOL    HW115924   4.420   3.777  21.665
 1432SOL    HW215925   4.489   3.750  21.797
 1433SOL     OW15926   1.716   0.349  12.712
 1433SOL    HW115927   1.721   0.320  12.803
 1433SOL    HW215928   1.645   0.298  12.675
 1434SOL     OW15929   2.642   2.026   5.769
 1434SOL    HW115930   2.562   2.067   5.738
 1434SOL    HW215931   2.693   2.097   5.807
 1435SOL     OW15932   3.496   3.396  21.564
 1435SOL    HW115933   3.430   3.416  21.499
 1435SOL    HW215934   3.567   3.457  21.546
 1436SOL     OW15935   3.438   0.759  25.761
 1436SOL    HW115936   3.372   0.827  25.773
 1436SOL    HW215937   3.516   0.806  25.734
 1437SOL     OW15938   4.765   0.079  25.761
 1437SOL    HW115939   4.736   4.775  25.726
 1437SOL    HW215940   0.070   0.092  25.722
 1438SOL     OW15941   4.423   4.714   9.241
 1438SOL    HW115942   4.346   4.768   9.261
 1438SOL    HW215943   4.459   4.691   9.327
 1439SOL     OW15944   2.759   3.968  23.603
 1439SOL    HW115945   2.819   3.978  23.677
 1439SOL    HW215946   2.767   3.876  23.578
 1440SOL     OW15947   4.334   2.296  26.447
 1440SOL    HW115948   4.248   2.265  26.476
 1440SOL    HW215949   4.332   2.390  26.463
 1441SOL     OW15950   3.232   1.396  27.271
 1441SOL    HW115951   3.187   1.391  27.187
 1441SOL    HW215952   3.163   1.413  27.335
 1442SOL     OW15953   2.674   3.372   3.759
 1442SOL    HW115954   2.630   3.430   3.697
 1442SOL    HW215955   2.759   3.414   3.774
 1443SOL     OW15956   0.651   1.733  21.178
 1443SOL    HW115957   0.570   1.724  21.228
 1443SOL    HW215958   0.661   1.828  21.166
 1444SOL     OW15959   0.856   2.274   3.803
 1444SOL    HW115960   0.875   2.367   3.791
 1444SOL    HW215961   0.919   2.229   3.746
 1445SOL     OW15962   1.940   1.452  24.085
 1445SOL    HW115963   2.018   1.403  24.058
 1445SOL    HW215964   1.872   1.426  24.023
 1446SOL     OW15965   0.395   2.590   2.644
 1446SOL    HW115966   0.340   2.662   2.676
 1446SOL    HW215967   0.356   2.511   2.680
 1447SOL     OW15968   3.233   4.560   9.005
 1447SOL    HW115969   3.275   4.539   8.922
 1447SOL    HW215970   3.147   4.517   9.001
 1448SOL     OW15971   4.313   1.468  25.191
 1448SOL    HW115972   4.282   1.555  25.169
 1448SOL    HW215973   4.236   1.412  25.180
 1449SOL     OW15974   0.122   2.182   2.398
 1449SOL    HW115975   0.077   2.233   2.330
 1449SOL    HW215976   0.053   2.159   2.459
 1450SOL     OW15977   1.139   0.300   6.373
 1450SOL    HW115978   1.169   0.355   6.301
 1450SOL    HW215979   1.215   0.246   6.396
 1451SOL     OW15980   3.863   2.046  18.125
 1451SOL    HW115981   3.838   2.113  18.189
 1451SOL    HW215982   3.953   2.069  18.100
 1452SOL     OW15983   0.671   3.464   5.651
 1452SOL    HW115984   0.622   3.546   5.658
 1452SOL    HW215985   0.757   3.484   5.688
 1453SOL     OW15986   0.235   0.909  28.113
 1453SOL    HW115987   0.140   0.914  28.102
 1453SOL    HW215988   0.268   0.877  28.029
 1454SOL     OW15989   2.798   2.439   2.162
 1454SOL    HW115990   2.770   2.495   2.234
 1454SOL    HW215991   2.808   2.352   2.202
 1455SOL     OW15992   4.226   2.126   7.391
 1455SOL    HW115993   4.238   2.041   7.434
 1455SOL    HW215994   4.290   2.126   7.320
 1456SOL     OW15995   4.275   0.853   5.782
 1456SOL    HW115996   4.309   0.792   5.847
 1456SOL    HW215997   4.223   0.915   5.833
 1457SOL     OW15998   2.806   0.057   7.842
 1457SOL    HW115999   2.882   0.116   7.845
 1457SOL    HW216000   2.769   0.072   7.755
 1458SOL     OW16001   1.511   3.806  11.050
 1458SOL    HW116002   1.575   3.771  10.987
 1458SOL    HW216003   1.558   3.808  11.133
 1459SOL     OW16004   2.760   4.118   5.073
 1459SOL    HW116005   2.842   4.128   5.024
 1459SOL    HW216006   2.788   4.112   5.165
 1460SOL     OW16007   2.693   1.336   9.248
 1460SOL    HW116008   2.699   1.353   9.154
 1460SOL    HW216009   2.773   1.286   9.267
 1461SOL     OW16010   0.392   2.120   7.204
 1461SOL    HW116011   0.422   2.187   7.143
 1461SOL    HW216012   0.472   2.077   7.234
 1462SOL     OW16013   1.557   3.253   8.828
 1462SOL    HW116014   1.515   3.239   8.742
 1462SOL    HW216015   1.505   3.200   8.888
 1463SOL     OW16016   1.258   1.081   7.783
 1463SOL    HW116017   1.300   1.009   7.736
 1463SOL    HW216018   1.173   1.091   7.740
 1464SOL     OW16019   2.994   1.494   2.212
 1464SOL    HW116020   3.084   1.471   2.236
 1464SOL    HW216021   2.976   1.573   2.263
 1465SOL     OW16022   3.392   0.363  22.538
 1465SOL    HW116023   3.478   0.406  22.544
 1465SOL    HW216024   3.409   0.272  22.565
 1466SOL     OW16025   1.795   2.092   1.254
 1466SOL    HW116026   1.855   2.028   1.216
 1466SOL    HW216027   1.830   2.109   1.342
 1467SOL     OW16028   4.278   2.473  28.409
 1467SOL    HW116029   4.369   2.483  28.439
 1467SOL    HW216030   4.256   2.558  28.371
 1468SOL     OW16031   3.110   4.326   1.796
 1468SOL    HW116032   3.034   4.384   1.797
 1468SOL    HW216033   3.166   4.362   1.727
 1469SOL     OW16034   1.493   3.469   7.622
 1469SOL    HW116035   1.553   3.544   7.629
 1469SOL    HW216036   1.427   3.486   7.689
 1470SOL     OW16037   0.627   2.551  21.534
 1470SOL    HW116038   0.656   2.641  21.549
 1470SOL    HW216039   0.640   2.507  21.619
 1471SOL     OW16040   2.396   3.557  18.457
 1471SOL    HW116041   2.336   3.554  18.530
 1471SOL    HW216042   2.341   3.575  18.381
 1472SOL     OW16043   1.560   2.023   1.364
 1472SOL    HW116044   1.637   2.060   1.320
 1472SOL    HW216045   1.486   2.072   1.328
 1473SOL     OW16046   3.101   1.921  28.052
 1473SOL    HW116047   3.050   1.927  28.133
 1473SOL    HW216048   3.041   1.951  27.984
 1474SOL     OW16049   0.149   1.572  19.262
 1474SOL    HW116050   0.113   1.658  19.237
 1474SOL    HW216051   0.228   1.593  19.311
 1475SOL     OW16052   4.173   0.538  24.272
 1475SOL    HW116053   4.103   0.474  24.258
 1475SOL    HW216054   4.133   0.622  24.251
 1476SOL     OW16055   2.433   3.539   4.580
 1476SOL    HW116056   2.496   3.493   4.525
 1476SOL    HW216057   2.447   3.632   4.560
 1477SOL     OW16058   2.747   2.014   8.721
 1477SOL    HW116059   2.699   2.021   8.803
 1477SOL    HW216060   2.679   2.001   8.655
 1478SOL     OW16061   3.272   1.201  21.669
 1478SOL    HW116062   3.340   1.176  21.607
 1478SOL    HW216063   3.263   1.125  21.727
 1479SOL     OW16064   3.338   4.065   3.929
 1479SOL    HW116065   3.312   4.157   3.928
 1479SOL    HW216066   3.316   4.034   4.016
 1480SOL     OW16067   0.977   0.636  19.814
 1480SOL    HW116068   0.985   0.723  19.854
 1480SOL    HW216069   0.913   0.590  19.868
 1481SOL     OW16070   0.402   0.473  22.125
 1481SOL    HW116071   0.347   0.400  22.153
 1481SOL    HW216072   0.488   0.434  22.108
 1482SOL     OW16073   0.798   3.297   0.775
 1482SOL    HW116074   0.800   3.383   0.816
 1482SOL    HW216075   0.864   3.246   0.823
 1483SOL     OW16076   2.158   2.761  25.640
 1483SOL    HW116077   2.178   2.706  25.715
 1483SOL    HW216078   2.229   2.744  25.578
 1484SOL     OW16079   0.907   2.347   2.165
 1484SOL    HW116080   0.908   2.265   2.214
 1484SOL    HW216081   0.943   2.323   2.079
 1485SOL     OW16082   1.918   4.227   9.340
 1485SOL    HW116083   1.967   4.144   9.336
 1485SOL    HW216084   1.833   4.203   9.376
 1486SOL     OW16085   3.019   0.131   8.689
 1486SOL    HW116086   2.979   0.145   8.775
 1486SOL    HW216087   3.074   0.054   8.701
 1487SOL     OW16088   2.433   4.142  28.429
 1487SOL    HW116089   2.354   4.196  28.424
 1487SOL    HW216090   2.455   4.139  28.522
 1488SOL     OW16091   1.910   3.243  19.388
 1488SOL    HW116092   1.913   3.215  19.296
 1488SOL    HW216093   1.837   3.305  19.391
 1489SOL     OW16094   0.018   4.410   8.031
 1489SOL    HW116095   0.094   4.431   8.086
 1489SOL    HW216096   4.727   4.399   8.093
 1490SOL     OW16097   0.882   1.212  23.294
 1490SOL    HW116098   0.942   1.287  23.292
 1490SOL    HW216099   0.816   1.233  23.229
 1491SOL     OW16100   0.967   4.003  25.739
 1491SOL    HW116101   0.908   3.961  25.801
 1491SOL    HW216102   0.947   4.096  25.745
 1492SOL     OW16103   2.289   0.129   4.943
 1492SOL    HW116104   2.355   0.123   4.874
 1492SOL    HW216105   2.209   0.095   4.903
 1493SOL     OW16106   3.242   2.249  20.200
 1493SOL    HW116107   3.307   2.320  20.205
 1493SOL    HW216108   3.207   2.243  20.288
 1494SOL     OW16109   0.632   3.655   5.095
 1494SOL    HW116110   0.629   3.682   5.187
 1494SOL    HW216111   0.699   3.710   5.055
 1495SOL     OW16112   1.902   1.346  28.181
 1495SOL    HW116113   1.920   1.313  28.093
 1495SOL    HW216114   1.961   1.297  28.238
 1496SOL     OW16115   2.657   4.144   9.122
 1496SOL    HW116116   2.621   4.092   9.051
 1496SOL    HW216117   2.677   4.081   9.192
 1497SOL     OW16118   3.265   0.467   1.868
 1497SOL    HW116119   3.271   0.371   1.863
 1497SOL    HW216120   3.218   0.484   1.949
 1498SOL     OW16121   0.127   1.126  27.005
 1498SOL    HW116122   0.220   1.141  27.019
 1498SOL    HW216123   0.116   1.031  27.011
 1499SOL     OW16124   1.785   3.839  21.039
 1499SOL    HW116125   1.783   3.920  20.988
 1499SOL    HW216126   1.817   3.865  21.125
 1500SOL     OW16127   4.681   2.537  20.607
 1500SOL    HW116128   4.703   2.507  20.695
 1500SOL    HW216129   4.737   2.486  20.549
 1501SOL     OW16130   2.765   1.690  18.208
 1501SOL    HW116131   2.713   1.738  18.144
 1501SOL    HW216132   2.771   1.601  18.173
 1502SOL     OW16133   0.964   3.710   5.922
 1502SOL    HW116134   0.933   3.657   5.849
 1502SOL    HW216135   1.018   3.650   5.974
 1503SOL     OW16136   3.154   1.363   9.329
 1503SOL    HW116137   3.091   1.424   9.367
 1503SOL    HW216138   3.111   1.331   9.250
 1504SOL     OW16139   3.700   4.645  18.729
 1504SOL    HW116140   3.788   4.683  18.720
 1504SOL    HW216141   3.664   4.686  18.808
 1505SOL     OW16142   1.274   1.842   4.796
 1505SOL    HW116143   1.243   1.912   4.738
 1505SOL    HW216144   1.209   1.839   4.866
 1506SOL     OW16145   2.765   0.817  17.022
 1506SOL    HW116146   2.712   0.806  16.943
 1506SOL    HW216147   2.728   0.755  17.085
 1507SOL     OW16148   2.878   0.023   0.270
 1507SOL    HW116149   2.837   0.104   0.239
 1507SOL    HW216150   2.936   4.778   0.199
 1508SOL     OW16151   1.531   2.686  12.781
 1508SOL    HW116152   1.624   2.672  12.764
 1508SOL    HW216153   1.498   2.598  12.802
 1509SOL     OW16154   4.693   1.763  17.074
 1509SOL    HW116155   4.772   1.811  17.050
 1509SOL    HW216156   4.674   1.709  16.997
 1510SOL     OW16157   0.935   2.194   1.765
 1510SOL    HW116158   0.901   2.224   1.681
 1510SOL    HW216159   0.997   2.261   1.792
 1511SOL     OW16160   3.315   1.544   5.837
 1511SOL    HW116161   3.237   1.599   5.834
 1511SOL    HW216162   3.302   1.487   5.912
 1512SOL     OW16163   2.553   0.216  28.521
 1512SOL    HW116164   2.495   0.224  28.445
 1512SOL    HW216165   2.538   0.127   0.031
 1513SOL     OW16166   1.554   4.530  12.002
 1513SOL    HW116167   1.587   4.604  12.053
 1513SOL    HW216168   1.511   4.473  12.066
 1514SOL     OW16169   0.543   4.210   1.111
 1514SOL    HW116170   0.486   4.226   1.186
 1514SOL    HW216171   0.600   4.287   1.107
 1515SOL     OW16172   0.560   3.549   3.129
 1515SOL    HW116173   0.489   3.551   3.193
 1515SOL    HW216174   0.551   3.464   3.085
 1516SOL     OW16175   2.389   2.792  23.021
 1516SOL    HW116176   2.348   2.765  23.103
 1516SOL    HW216177   2.476   2.752  23.024
 1517SOL     OW16178   3.351   1.443  23.664
 1517SOL    HW116179   3.368   1.357  23.625
 1517SOL    HW216180   3.358   1.428  23.759
 1518SOL     OW16181   0.122   0.916   6.245
 1518SOL    HW116182   0.050   0.962   6.202
 1518SOL    HW216183   0.108   0.824   6.222
 1519SOL     OW16184   4.549   0.461   9.133
 1519SOL    HW116185   4.503   0.544   9.125
 1519SOL    HW216186   4.639   0.481   9.108
 1520SOL     OW16187   1.198   1.049   5.916
 1520SOL    HW116188   1.206   0.992   5.993
 1520SOL    HW216189   1.209   0.990   5.841
 1521SOL     OW16190   3.906   2.611   2.394
 1521SOL    HW116191   3.842   2.577   2.457
 1521SOL    HW216192   3.871   2.587   2.308
 1522SOL     OW16193   4.124   2.214  28.238
 1522SOL    HW116194   4.155   2.176  28.320
 1522SOL    HW216195   4.055   2.155  28.208
 1523SOL     OW16196   0.411   3.919   4.355
 1523SOL    HW116197   0.349   3.987   4.329
 1523SOL    HW216198   0.371   3.878   4.432
 1524SOL     OW16199   4.475   2.827   9.187
 1524SOL    HW116200   4.471   2.772   9.109
 1524SOL    HW216201   4.483   2.765   9.259
 1525SOL     OW16202   2.741   2.704  18.249
 1525SOL    HW116203   2.762   2.759  18.174
 1525SOL    HW216204   2.736   2.764  18.323
 1526SOL     OW16205   3.550   2.182   6.550
 1526SOL    HW116206   3.521   2.141   6.468
 1526SOL    HW216207   3.488   2.253   6.564
 1527SOL     OW16208   1.293   3.242   0.063
 1527SOL    HW116209   1.212   3.222   0.109
 1527SOL    HW216210   1.361   3.240   0.131
 1528SOL     OW16211   2.934   4.217  22.361
 1528SOL    HW116212   2.948   4.129  22.325
 1528SOL    HW216213   2.890   4.265  22.291
 1529SOL     OW16214   1.484   3.961   0.152
 1529SOL    HW116215   1.572   3.935   0.124
 1529SOL    HW216216   1.498   4.035   0.210
 1530SOL     OW16217   1.509   0.773   6.250
 1530SOL    HW116218   1.592   0.749   6.208
 1530SOL    HW216219   1.459   0.817   6.181
 1531SOL     OW16220   1.878   0.090   9.986
 1531SOL    HW116221   1.788   0.099  10.016
 1531SOL    HW216222   1.907   0.180   9.971
 1532SOL     OW16223   0.683   3.534  11.001
 1532SOL    HW116224   0.636   3.617  11.011
 1532SOL    HW216225   0.613   3.468  11.000
 1533SOL     OW16226   0.100   0.885  10.648
 1533SOL    HW116227   0.116   0.802  10.603
 1533SOL    HW216228   0.009   0.905  10.630
 1534SOL     OW16229   4.308   3.669  21.302
 1534SOL    HW116230   4.215   3.648  21.296
 1534SOL    HW216231   4.331   3.700  21.214
 1535SOL     OW16232   4.138   4.096  20.926
 1535SOL    HW116233   4.129   4.062  20.837
 1535SOL    HW216234   4.160   4.188  20.914
 1536SOL     OW16235   1.372   3.224   9.752
 1536SOL    HW116236   1.413   3.288   9.694
 1536SOL    HW216237   1.311   3.275   9.805
 1537SOL     OW16238   0.490   1.576   5.671
 1537SOL    HW116239   0.441   1.647   5.631
 1537SOL    HW216240   0.524   1.525   5.598
 1538SOL     OW16241   0.412   0.590  20.207
 1538SOL    HW116242   0.428   0.495  20.210
 1538SOL    HW216243   0.499   0.629  20.215
 1539SOL     OW16244   0.295   4.746   0.397
 1539SOL    HW116245   0.254   0.011   0.471
 1539SOL    HW216246   0.221   4.713   0.346
 1540SOL     OW16247   1.460   4.495   5.502
 1540SOL    HW116248   1.455   4.553   5.426
 1540SOL    HW216249   1.484   4.410   5.466
 1541SOL     OW16250   4.018   3.515  26.042
 1541SOL    HW116251   4.107   3.528  26.007
 1541SOL    HW216252   4.032   3.488  26.133
 1542SOL     OW16253   4.176   1.908  25.287
 1542SOL    HW116254   4.175   1.874  25.197
 1542SOL    HW216255   4.133   1.993  25.281
 1543SOL     OW16256   2.245   4.297  24.457
 1543SOL    HW116257   2.161   4.335  24.485
 1543SOL    HW216258   2.279   4.359  24.393
 1544SOL     OW16259   4.626   0.794  22.368
 1544SOL    HW116260   4.597   0.724  22.427
 1544SOL    HW216261   4.549   0.851  22.359
 1545SOL     OW16262   4.418   0.187   5.064
 1545SOL    HW116263   4.428   0.257   4.999
 1545SOL    HW216264   4.507   0.152   5.076
 1546SOL     OW16265   1.447   2.156  10.555
 1546SOL    HW116266   1.501   2.233  10.574
 1546SOL    HW216267   1.506   2.094  10.513
 1547SOL     OW16268   0.197   2.409   7.896
 1547SOL    HW116269   0.226   2.348   7.828
 1547SOL    HW216270   0.265   2.404   7.963
 1548SOL     OW16271   1.991   2.438   0.237
 1548SOL    HW116272   1.941   2.369   0.281
 1548SOL    HW216273   1.963   2.519   0.279
 1549SOL     OW16274   0.316   2.019  27.228
 1549SOL    HW116275   0.368   2.073  27.168
 1549SOL    HW216276   0.378   1.957  27.266
 1550SOL     OW16277   3.125   4.561  21.260
 1550SOL    HW116278   3.108   4.653  21.239
 1550SOL    HW216279   3.070   4.512  21.200
 1551SOL     OW16280   2.881   3.332   9.094
 1551SOL    HW116281   2.937   3.272   9.144
 1551SOL    HW216282   2.923   3.418   9.105
 1552SOL     OW16283   0.590   4.416   2.129
 1552SOL    HW116284   0.641   4.491   2.099
 1552SOL    HW216285   0.645   4.340   2.108
 1553SOL     OW16286   4.645   3.200  28.228
 1553SOL    HW116287   4.701   3.148  28.286
 1553SOL    HW216288   4.658   3.162  28.141
 1554SOL     OW16289   4.736   1.444   3.299
 1554SOL    HW116290   4.729   1.350   3.311
 1554SOL    HW216291   4.646   1.477   3.307
 1555SOL     OW16292   3.523   2.289  11.483
 1555SOL    HW116293   3.506   2.197  11.467
 1555SOL    HW216294   3.553   2.292  11.574
 1556SOL     OW16295   3.270   3.076   2.326
 1556SOL    HW116296   3.287   3.014   2.255
 1556SOL    HW216297   3.356   3.111   2.349
 1557SOL     OW16298   3.416   1.076  25.055
 1557SOL    HW116299   3.445   1.145  24.995
 1557SOL    HW216300   3.490   1.015  25.058
 1558SOL     OW16301   4.139   3.506  19.608
 1558SOL    HW116302   4.200   3.556  19.662
 1558SOL    HW216303   4.099   3.443  19.668
 1559SOL     OW16304   1.606   4.226   9.128
 1559SOL    HW116305   1.522   4.227   9.173
 1559SOL    HW216306   1.654   4.153   9.166
 1560SOL     OW16307   0.128   0.064   0.629
 1560SOL    HW116308   0.133   0.016   0.712
 1560SOL    HW216309   0.149   0.154   0.652
 1561SOL     OW16310   4.418   4.667   0.854
 1561SOL    HW116311   4.352   4.598   0.865
 1561SOL    HW216312   4.488   4.644   0.915
 1562SOL     OW16313   4.222   0.296  21.897
 1562SOL    HW116314   4.294   0.342  21.941
 1562SOL    HW216315   4.254   0.280  21.808
 1563SOL     OW16316   3.277   4.707   0.570
 1563SOL    HW116317   3.367   4.685   0.545
 1563SOL    HW216318   3.257   4.645   0.640
 1564SOL     OW16319   2.761   3.907   0.938
 1564SOL    HW116320   2.850   3.939   0.946
 1564SOL    HW216321   2.751   3.886   0.845
 1565SOL     OW16322   2.647   3.494  27.674
 1565SOL    HW116323   2.613   3.545  27.747
 1565SOL    HW216324   2.570   3.469  27.623
 1566SOL     OW16325   2.495   1.336  23.344
 1566SOL    HW116326   2.513   1.247  23.313
 1566SOL    HW216327   2.532   1.393  23.277
 1567SOL     OW16328   0.148   3.190   6.658
 1567SOL    HW116329   0.059   3.224   6.660
 1567SOL    HW216330   0.202   3.264   6.631
 1568SOL     OW16331   4.301   4.397  27.037
 1568SOL    HW116332   4.300   4.464  27.105
 1568SOL    HW216333   4.251   4.324  27.074
 1569SOL     OW16334   1.002   2.224  27.323
 1569SOL    HW116335   0.999   2.130  27.335
 1569SOL    HW216336   0.963   2.261  27.402
 1570SOL     OW16337   2.236   2.784   8.172
 1570SOL    HW116338   2.230   2.879   8.159
 1570SOL    HW216339   2.149   2.758   8.202
 1571SOL     OW16340   1.024   4.293   5.036
 1571SOL    HW116341   0.951   4.351   5.015
 1571SOL    HW216342   1.091   4.314   4.970
 1572SOL     OW16343   1.741   4.352  23.068
 1572SOL    HW116344   1.830   4.324  23.088
 1572SOL    HW216345   1.696   4.273  23.040
 1573SOL     OW16346   4.758   3.769   8.831
 1573SOL    HW116347   4.699   3.821   8.777
 1573SOL    HW216348   4.710   3.756   8.913
 1574SOL     OW16349   0.520   4.571  22.378
 1574SOL    HW116350   0.529   4.549  22.471
 1574SOL    HW216351   0.582   4.513  22.333
 1575SOL     OW16352   3.413   3.319  20.502
 1575SOL    HW116353   3.320   3.326  20.478
 1575SOL    HW216354   3.452   3.400  20.469
 1576SOL     OW16355   0.391   3.883  26.560
 1576SOL    HW116356   0.338   3.918  26.489
 1576SOL    HW216357   0.480   3.886  26.527
 1577SOL     OW16358   3.922   3.498   7.321
 1577SOL    HW116359   3.852   3.553   7.285
 1577SOL    HW216360   4.001   3.529   7.277
 1578SOL     OW16361   1.233   2.681   6.405
 1578SOL    HW116362   1.305   2.667   6.344
 1578SOL    HW216363   1.261   2.755   6.459
 1579SOL     OW16364   0.660   4.716  26.195
 1579SOL    HW116365   0.740   4.688  26.151
 1579SOL    HW216366   0.683   0.020  26.234
 1580SOL     OW16367   2.358   2.018  28.239
 1580SOL    HW116368   2.273   2.061  28.240
 1580SOL    HW216369   2.392   2.029  28.328
 1581SOL     OW16370   2.716   4.158  26.791
 1581SOL    HW116371   2.792   4.127  26.840
 1581SOL    HW216372   2.642   4.141  26.849
 1582SOL     OW16373   2.325   1.036  27.770
 1582SOL    HW116374   2.250   1.010  27.823
 1582SOL    HW216375   2.353   0.955  27.727
 1583SOL     OW16376   2.038   2.952   8.797
 1583SOL    HW116377   2.078   2.913   8.719
 1583SOL    HW216378   2.102   2.940   8.866
 1584SOL     OW16379   3.789   1.510  26.965
 1584SOL    HW116380   3.763   1.499  27.056
 1584SOL    HW216381   3.882   1.530  26.969
 1585SOL     OW16382   4.180   0.922   1.093
 1585SOL    HW116383   4.122   0.878   1.031
 1585SOL    HW216384   4.122   0.955   1.161
 1586SOL     OW16385   0.589   4.561  21.087
 1586SOL    HW116386   0.515   4.622  21.090
 1586SOL    HW216387   0.603   4.545  20.994
 1587SOL     OW16388   4.016   1.087   6.320
 1587SOL    HW116389   3.991   1.081   6.412
 1587SOL    HW216390   4.054   1.175   6.311
 1588SOL     OW16391   2.919   4.183  19.721
 1588SOL    HW116392   2.987   4.121  19.747
 1588SOL    HW216393   2.918   4.179  19.626
 1589SOL     OW16394   0.610   4.704   6.057
 1589SOL    HW116395   0.574   4.640   5.995
 1589SOL    HW216396   0.679   4.656   6.102
 1590SOL     OW16397   2.119   1.216  21.074
 1590SOL    HW116398   2.154   1.299  21.105
 1590SOL    HW216399   2.026   1.232  21.060
 1591SOL     OW16400   2.952   0.675  24.721
 1591SOL    HW116401   3.037   0.667  24.677
 1591SOL    HW216402   2.974   0.688  24.814
 1592SOL     OW16403   3.573   4.196   2.129
 1592SOL    HW116404   3.662   4.164   2.148
 1592SOL    HW216405   3.586   4.265   2.063
 1593SOL     OW16406   0.371   3.312  27.415
 1593SOL    HW116407   0.363   3.280  27.504
 1593SOL    HW216408   0.282   3.335  27.389
 1594SOL     OW16409   3.277   3.358  26.467
 1594SOL    HW116410   3.229   3.350  26.549
 1594SOL    HW216411   3.339   3.429  26.482
 1595SOL     OW16412   3.108   0.229  20.189
 1595SOL    HW116413   3.160   0.309  20.186
 1595SOL    HW216414   3.160   0.164  20.141
 1596SOL     OW16415   3.158   4.518   2.997
 1596SOL    HW116416   3.194   4.605   2.983
 1596SOL    HW216417   3.125   4.491   2.912
 1597SOL     OW16418   4.140   2.633  23.993
 1597SOL    HW116419   4.091   2.606  23.915
 1597SOL    HW216420   4.124   2.565  24.057
 1598SOL     OW16421   3.516   4.554   4.421
 1598SOL    HW116422   3.423   4.543   4.442
 1598SOL    HW216423   3.528   4.649   4.417
 1599SOL     OW16424   0.658   1.178  10.350
 1599SOL    HW116425   0.729   1.228  10.391
 1599SOL    HW216426   0.601   1.154  10.423
 1600SOL     OW16427   1.559   2.841   6.700
 1600SOL    HW116428   1.603   2.786   6.765
 1600SOL    HW216429   1.604   2.925   6.704
 1601SOL     OW16430   3.472   1.791  24.094
 1601SOL    HW116431   3.504   1.741  24.170
 1601SOL    HW216432   3.447   1.876  24.130
 1602SOL     OW16433   0.824   0.847  25.815
 1602SOL    HW116434   0.782   0.764  25.838
 1602SOL    HW216435   0.823   0.898  25.895
 1603SOL     OW16436   2.164   3.088  19.274
 1603SOL    HW116437   2.085   3.120  19.231
 1603SOL    HW216438   2.236   3.126  19.224
 1604SOL     OW16439   0.894   4.090  20.484
 1604SOL    HW116440   0.831   4.098  20.413
 1604SOL    HW216441   0.876   4.165  20.541
 1605SOL     OW16442   0.049   3.049  27.969
 1605SOL    HW116443   0.028   2.964  27.928
 1605SOL    HW216444   0.144   3.050  27.974
 1606SOL     OW16445   1.513   0.888  27.496
 1606SOL    HW116446   1.557   0.845  27.569
 1606SOL    HW216447   1.529   0.981  27.508
 1607SOL     OW16448   3.159   0.768   0.342
 1607SOL    HW116449   3.220   0.725   0.402
 1607SOL    HW216450   3.137   0.701   0.278
 1608SOL     OW16451   2.722   2.369   6.376
 1608SOL    HW116452   2.631   2.341   6.385
 1608SOL    HW216453   2.718   2.465   6.383
 1609SOL     OW16454   0.124   4.631   0.831
 1609SOL    HW116455   0.109   4.561   0.768
 1609SOL    HW216456   0.141   4.587   0.914
 1610SOL     OW16457   0.046   3.560  10.191
 1610SOL    HW116458   0.120   3.557  10.250
 1610SOL    HW216459   4.758   3.605  10.240
 1611SOL     OW16460   1.452   4.413   4.343
 1611SOL    HW116461   1.395   4.473   4.391
 1611SOL    HW216462   1.446   4.330   4.392
 1612SOL     OW16463   4.022   4.687  23.427
 1612SOL    HW116464   3.973   4.763  23.397
 1612SOL    HW216465   4.095   4.723  23.477
 1613SOL     OW16466   4.533   1.881  19.025
 1613SOL    HW116467   4.582   1.964  19.023
 1613SOL    HW216468   4.581   1.823  18.966
 1614SOL     OW16469   2.144   0.386   1.471
 1614SOL    HW116470   2.122   0.478   1.455
 1614SOL    HW216471   2.067   0.338   1.439
 1615SOL     OW16472   2.058   2.971  23.748
 1615SOL    HW116473   2.146   2.941  23.771
 1615SOL    HW216474   2.024   3.011  23.828
 1616SOL     OW16475   0.184   0.441   8.093
 1616SOL    HW116476   0.211   0.403   8.010
 1616SOL    HW216477   0.256   0.421   8.153
 1617SOL     OW16478   3.957   1.983  23.258
 1617SOL    HW116479   3.898   1.921  23.215
 1617SOL    HW216480   3.993   1.934  23.333
 1618SOL     OW16481   0.191   4.313  24.013
 1618SOL    HW116482   0.156   4.382  24.069
 1618SOL    HW216483   0.113   4.266  23.981
 1619SOL     OW16484   2.276   1.879   1.252
 1619SOL    HW116485   2.263   1.815   1.182
 1619SOL    HW216486   2.188   1.896   1.287
 1620SOL     OW16487   2.995   2.359  27.577
 1620SOL    HW116488   3.090   2.354  27.581
 1620SOL    HW216489   2.974   2.449  27.600
 1621SOL     OW16490   3.768   2.403  18.779
 1621SOL    HW116491   3.799   2.313  18.768
 1621SOL    HW216492   3.823   2.439  18.848
 1622SOL     OW16493   1.577   4.609  22.365
 1622SOL    HW116494   1.549   4.556  22.290
 1622SOL    HW216495   1.526   4.575  22.438
 1623SOL     OW16496   1.344   3.728   5.451
 1623SOL    HW116497   1.398   3.794   5.406
 1623SOL    HW216498   1.347   3.754   5.543
 1624SOL     OW16499   0.487   2.834  25.120
 1624SOL    HW116500   0.542   2.770  25.074
 1624SOL    HW216501   0.400   2.822  25.083
 1625SOL     OW16502   1.435   2.117   7.076
 1625SOL    HW116503   1.489   2.070   7.011
 1625SOL    HW216504   1.404   2.194   7.029
 1626SOL     OW16505   1.649   3.739  10.413
 1626SOL    HW116506   1.562   3.778  10.405
 1626SOL    HW216507   1.691   3.758  10.329
 1627SOL     OW16508   4.712   4.690  10.123
 1627SOL    HW116509   4.669   4.621  10.173
 1627SOL    HW216510   0.025   4.671  10.132
 1628SOL     OW16511   2.822   4.416   3.596
 1628SOL    HW116512   2.769   4.353   3.549
 1628SOL    HW216513   2.758   4.473   3.639
 1629SOL     OW16514   4.531   2.392  23.291
 1629SOL    HW116515   4.592   2.463  23.311
 1629SOL    HW216516   4.541   2.378  23.197
 1630SOL     OW16517   2.266   3.700   5.072
 1630SOL    HW116518   2.291   3.747   4.992
 1630SOL    HW216519   2.234   3.616   5.041
 1631SOL     OW16520   4.642   1.060  26.726
 1631SOL    HW116521   4.699   1.129  26.759
 1631SOL    HW216522   4.557   1.078  26.766
 1632SOL     OW16523   3.166   0.102  22.386
 1632SOL    HW116524   3.209   0.162  22.325
 1632SOL    HW216525   3.089   0.151  22.418
 1633SOL     OW16526   3.618   4.383   3.727
 1633SOL    HW116527   3.546   4.404   3.787
 1633SOL    HW216528   3.658   4.304   3.765
 1634SOL     OW16529   4.357   3.321  26.152
 1634SOL    HW116530   4.355   3.349  26.243
 1634SOL    HW216531   4.273   3.277  26.138
 1635SOL     OW16532   1.895   2.876  28.501
 1635SOL    HW116533   1.851   2.959  28.519
 1635SOL    HW216534   1.826   2.810  28.509
 1636SOL     OW16535   4.278   1.374  22.534
 1636SOL    HW116536   4.187   1.396  22.550
 1636SOL    HW216537   4.327   1.452  22.560
 1637SOL     OW16538   4.387   3.122   4.188
 1637SOL    HW116539   4.320   3.185   4.215
 1637SOL    HW216540   4.416   3.081   4.270
 1638SOL     OW16541   2.394   3.057   5.655
 1638SOL    HW116542   2.379   3.056   5.750
 1638SOL    HW216543   2.378   2.967   5.627
 1639SOL     OW16544   3.574   3.607   8.468
 1639SOL    HW116545   3.573   3.627   8.375
 1639SOL    HW216546   3.622   3.680   8.508
 1640SOL     OW16547   2.475   2.096  10.996
 1640SOL    HW116548   2.404   2.048  11.038
 1640SOL    HW216549   2.519   2.142  11.068
 1641SOL     OW16550   1.294   4.402  26.074
 1641SOL    HW116551   1.280   4.307  26.073
 1641SOL    HW216552   1.225   4.437  26.018
 1642SOL     OW16553   4.311   3.226  23.537
 1642SOL    HW116554   4.297   3.314  23.502
 1642SOL    HW216555   4.262   3.169  23.477
 1643SOL     OW16556   0.772   1.691   5.908
 1643SOL    HW116557   0.733   1.645   5.983
 1643SOL    HW216558   0.800   1.621   5.849
 1644SOL     OW16559   3.459   0.445   0.725
 1644SOL    HW116560   3.369   0.415   0.713
 1644SOL    HW216561   3.490   0.464   0.636
 1645SOL     OW16562   1.254   2.714  25.527
 1645SOL    HW116563   1.177   2.770  25.514
 1645SOL    HW216564   1.316   2.770  25.574
 1646SOL     OW16565   1.662   4.207  10.327
 1646SOL    HW116566   1.725   4.137  10.343
 1646SOL    HW216567   1.603   4.204  10.403
 1647SOL     OW16568   2.427   1.004   2.623
 1647SOL    HW116569   2.387   1.073   2.570
 1647SOL    HW216570   2.363   0.985   2.691
 1648SOL     OW16571   0.904   2.727  27.444
 1648SOL    HW116572   0.901   2.770  27.529
 1648SOL    HW216573   0.852   2.784  27.387
 1649SOL     OW16574   0.188   4.393   5.269
 1649SOL    HW116575   0.245   4.382   5.193
 1649SOL    HW216576   0.120   4.328   5.258
 1650SOL     OW16577   3.067   3.696   6.501
 1650SOL    HW116578   3.002   3.664   6.438
 1650SOL    HW216579   3.064   3.633   6.573
 1651SOL     OW16580   0.994   4.163  22.207
 1651SOL    HW116581   0.998   4.206  22.122
 1651SOL    HW216582   1.047   4.218  22.264
 1652SOL     OW16583   1.249   1.908   5.194
 1652SOL    HW116584   1.264   1.828   5.244
 1652SOL    HW216585   1.194   1.962   5.251
 1653SOL     OW16586   0.214   0.848  22.016
 1653SOL    HW116587   0.175   0.804  22.091
 1653SOL    HW216588   0.240   0.935  22.049
 1654SOL     OW16589   1.495   0.405   8.711
 1654SOL    HW116590   1.513   0.338   8.777
 1654SOL    HW216591   1.520   0.487   8.753
 1655SOL     OW16592   3.132   2.396   4.226
 1655SOL    HW116593   3.220   2.371   4.252
 1655SOL    HW216594   3.114   2.344   4.147
 1656SOL     OW16595   3.447   4.055   7.619
 1656SOL    HW116596   3.380   4.095   7.674
 1656SOL    HW216597   3.428   3.961   7.623
 1657SOL     OW16598   0.527   1.067  24.474
 1657SOL    HW116599   0.577   1.103  24.401
 1657SOL    HW216600   0.483   0.991  24.437
 1658SOL     OW16601   0.243   1.169  21.870
 1658SOL    HW116602   0.213   1.198  21.784
 1658SOL    HW216603   0.338   1.159  21.859
 1659SOL     OW16604   2.036   2.972  11.222
 1659SOL    HW116605   2.101   2.902  11.224
 1659SOL    HW216606   2.002   2.978  11.311
 1660SOL     OW16607   0.629   3.038  27.648
 1660SOL    HW116608   0.580   3.005  27.572
 1660SOL    HW216609   0.721   3.027  27.623
 1661SOL     OW16610   3.139   3.556  24.349
 1661SOL    HW116611   3.180   3.527  24.268
 1661SOL    HW216612   3.211   3.560  24.413
 1662SOL     OW16613   4.359   0.643   6.433
 1662SOL    HW116614   4.269   0.663   6.458
 1662SOL    HW216615   4.366   0.673   6.343
 1663SOL     OW16616   4.606   0.811   6.374
 1663SOL    HW116617   4.614   0.871   6.449
 1663SOL    HW216618   4.542   0.853   6.317
 1664SOL     OW16619   1.564   2.436   7.034
 1664SOL    HW116620   1.514   2.436   7.115
 1664SOL    HW216621   1.638   2.378   7.051
 1665SOL     OW16622   3.794   4.028  25.670
 1665SOL    HW116623   3.822   3.947  25.712
 1665SOL    HW216624   3.822   4.020  25.579
 1666SOL     OW16625   3.118   2.466   4.532
 1666SOL    HW116626   3.112   2.524   4.457
 1666SOL    HW216627   3.067   2.389   4.506
 1667SOL     OW16628   3.073   2.763   8.060
 1667SOL    HW116629   3.000   2.797   8.112
 1667SOL    HW216630   3.132   2.838   8.049
 1668SOL     OW16631   4.765   2.094  24.866
 1668SOL    HW116632   4.768   2.143  24.783
 1668SOL    HW216633   0.070   2.052  24.872
 1669SOL     OW16634   2.531   4.422  20.738
 1669SOL    HW116635   2.482   4.370  20.801
 1669SOL    HW216636   2.467   4.481  20.700
 1670SOL     OW16637   4.083   2.864   5.072
 1670SOL    HW116638   3.991   2.852   5.097
 1670SOL    HW216639   4.087   2.953   5.038
 1671SOL     OW16640   4.136   0.843   4.475
 1671SOL    HW116641   4.187   0.782   4.528
 1671SOL    HW216642   4.110   0.912   4.535
 1672SOL     OW16643   4.049   1.973  22.766
 1672SOL    HW116644   4.013   2.024  22.839
 1672SOL    HW216645   4.051   2.035  22.693
 1673SOL     OW16646   4.487   3.995   1.022
 1673SOL    HW116647   4.495   3.999   0.927
 1673SOL    HW216648   4.565   3.946   1.050
 1674SOL     OW16649   2.065   2.094   4.382
 1674SOL    HW116650   2.042   2.028   4.317
 1674SOL    HW216651   1.998   2.086   4.450
 1675SOL     OW16652   3.808   3.082   7.413
 1675SOL    HW116653   3.791   3.097   7.320
 1675SOL    HW216654   3.880   3.141   7.434
 1676SOL     OW16655   1.718   3.699   1.541
 1676SOL    HW116656   1.653   3.751   1.588
 1676SOL    HW216657   1.726   3.619   1.594
 1677SOL     OW16658   1.771   0.738   3.615
 1677SOL    HW116659   1.731   0.683   3.683
 1677SOL    HW216660   1.697   0.776   3.568
 1678SOL     OW16661   3.246   4.494   2.399
 1678SOL    HW116662   3.287   4.431   2.340
 1678SOL    HW216663   3.302   4.495   2.477
 1679SOL     OW16664   3.930   1.348  18.092
 1679SOL    HW116665   3.989   1.274  18.106
 1679SOL    HW216666   3.877   1.352  18.171
 1680SOL     OW16667   3.639   4.002   0.825
 1680SOL    HW116668   3.694   3.983   0.901
 1680SOL    HW216669   3.618   4.095   0.834
 1681SOL     OW16670   3.411   4.317   4.187
 1681SOL    HW116671   3.433   4.269   4.267
 1681SOL    HW216672   3.323   4.350   4.202
 1682SOL     OW16673   4.629   2.859  27.387
 1682SOL    HW116674   4.624   2.952  27.363
 1682SOL    HW216675   4.720   2.847  27.414
 1683SOL     OW16676   2.586   2.551  24.226
 1683SOL    HW116677   2.501   2.515  24.251
 1683SOL    HW216678   2.612   2.604  24.302
 1684SOL     OW16679   0.298   0.701   4.014
 1684SOL    HW116680   0.368   0.637   4.013
 1684SOL    HW216681   0.290   0.727   4.106
 1685SOL     OW16682   3.967   2.783   5.705
 1685SOL    HW116683   4.045   2.829   5.736
 1685SOL    HW216684   3.923   2.755   5.786
 1686SOL     OW16685   2.608   2.425  18.605
 1686SOL    HW116686   2.574   2.348  18.650
 1686SOL    HW216687   2.562   2.499  18.645
 1687SOL     OW16688   1.358   2.638   7.019
 1687SOL    HW116689   1.285   2.698   7.031
 1687SOL    HW216690   1.361   2.622   6.924
 1688SOL     OW16691   3.820   2.887   3.458
 1688SOL    HW116692   3.755   2.941   3.504
 1688SOL    HW216693   3.895   2.945   3.447
 1689SOL     OW16694   4.636   2.947  22.899
 1689SOL    HW116695   4.591   3.027  22.926
 1689SOL    HW216696   4.678   2.915  22.978
 1690SOL     OW16697   0.831   1.572  21.338
 1690SOL    HW116698   0.745   1.537  21.362
 1690SOL    HW216699   0.811   1.644  21.278
 1691SOL     OW16700   3.269   2.855   1.061
 1691SOL    HW116701   3.205   2.918   1.028
 1691SOL    HW216702   3.327   2.907   1.118
 1692SOL     OW16703   1.576   3.478  27.253
 1692SOL    HW116704   1.593   3.553  27.195
 1692SOL    HW216705   1.482   3.477  27.265
 1693SOL     OW16706   4.561   1.261   9.181
 1693SOL    HW116707   4.629   1.249   9.248
 1693SOL    HW216708   4.609   1.298   9.106
 1694SOL     OW16709   2.405   2.639  11.411
 1694SOL    HW116710   2.423   2.557  11.365
 1694SOL    HW216711   2.339   2.615  11.476
 1695SOL     OW16712   2.975   0.594   7.419
 1695SOL    HW116713   2.904   0.654   7.440
 1695SOL    HW216714   3.014   0.573   7.504
 1696SOL     OW16715   4.435   4.001   2.446
 1696SOL    HW116716   4.472   3.930   2.497
 1696SOL    HW216717   4.472   3.990   2.358
 1697SOL     OW16718   2.450   1.900  25.723
 1697SOL    HW116719   2.503   1.826  25.751
 1697SOL    HW216720   2.422   1.943  25.804
 1698SOL     OW16721   3.084   0.025  21.692
 1698SOL    HW116722   3.037   0.099  21.654
 1698SOL    HW216723   3.177   0.049  21.684
 1699SOL     OW16724   1.820   0.227  25.740
 1699SOL    HW116725   1.768   0.211  25.662
 1699SOL    HW216726   1.761   0.209  25.813
 1700SOL     OW16727   0.229   1.820  28.073
 1700SOL    HW116728   0.141   1.860  28.070
 1700SOL    HW216729   0.215   1.731  28.041
 1701SOL     OW16730   0.298   2.826  20.665
 1701SOL    HW116731   0.367   2.849  20.602
 1701SOL    HW216732   0.220   2.811  20.612
 1702SOL     OW16733   1.778   3.508  26.544
 1702SOL    HW116734   1.743   3.596  26.562
 1702SOL    HW216735   1.843   3.494  26.613
 1703SOL     OW16736   0.077   4.505  27.380
 1703SOL    HW116737   0.023   4.488  27.304
 1703SOL    HW216738   0.146   4.438  27.376
 1704SOL     OW16739   1.916   2.688  20.452
 1704SOL    HW116740   1.980   2.722  20.515
 1704SOL    HW216741   1.949   2.601  20.429
 1705SOL     OW16742   2.499   3.763  10.929
 1705SOL    HW116743   2.593   3.773  10.944
 1705SOL    HW216744   2.459   3.826  10.988
 1706SOL     OW16745   1.856   3.347  26.109
 1706SOL    HW116746   1.809   3.425  26.139
 1706SOL    HW216747   1.797   3.307  26.045
 1707SOL     OW16748   1.966   4.349  11.767
 1707SOL    HW116749   2.056   4.376  11.747
 1707SOL    HW216750   1.914   4.429  11.755
 1708SOL     OW16751   4.737   1.582   5.880
 1708SOL    HW116752   4.768   1.491   5.884
 1708SOL    HW216753   4.642   1.575   5.892
 1709SOL     OW16754   0.112   2.386  25.366
 1709SOL    HW116755   0.076   2.468  25.332
 1709SOL    HW216756   0.037   2.339  25.402
 1710SOL     OW16757   0.864   1.692   8.945
 1710SOL    HW116758   0.938   1.659   8.894
 1710SOL    HW216759   0.901   1.713   9.031
 1711SOL     OW16760   0.215   2.597   5.047
 1711SOL    HW116761   0.138   2.552   5.013
 1711SOL    HW216762   0.288   2.559   4.999
 1712SOL     OW16763   4.387   1.602  28.246
 1712SOL    HW116764   4.446   1.619  28.173
 1712SOL    HW216765   4.410   1.514  28.276
 1713SOL     OW16766   2.574   4.378   7.249
 1713SOL    HW116767   2.510   4.313   7.222
 1713SOL    HW216768   2.568   4.447   7.182
 1714SOL     OW16769   1.447   2.058   2.657
 1714SOL    HW116770   1.516   2.124   2.651
 1714SOL    HW216771   1.492   1.974   2.647
 1715SOL     OW16772   1.911   1.905   1.767
 1715SOL    HW116773   1.846   1.937   1.829
 1715SOL    HW216774   1.910   1.970   1.696
 1716SOL     OW16775   2.173   2.198  19.703
 1716SOL    HW116776   2.154   2.266  19.638
 1716SOL    HW216777   2.268   2.198  19.710
 1717SOL     OW16778   4.711   0.248  24.083
 1717SOL    HW116779   4.704   0.320  24.020
 1717SOL    HW216780   4.620   0.229  24.107
 1718SOL     OW16781   3.519   1.978  26.131
 1718SOL    HW116782   3.603   1.936  26.151
 1718SOL    HW216783   3.489   2.012  26.215
 1719SOL     OW16784   4.469   4.361   5.608
 1719SOL    HW116785   4.451   4.444   5.564
 1719SOL    HW216786   4.485   4.385   5.699
 1720SOL     OW16787   1.622   0.085   4.269
 1720SOL    HW116788   1.649   0.040   4.349
 1720SOL    HW216789   1.694   0.144   4.249
 1721SOL     OW16790   4.099   0.733   2.175
 1721SOL    HW116791   4.063   0.822   2.182
 1721SOL    HW216792   4.116   0.707   2.265
 1722SOL     OW16793   4.752   1.398   7.554
 1722SOL    HW116794   4.759   1.420   7.648
 1722SOL    HW216795   0.027   1.321   7.543
 1723SOL     OW16796   2.695   4.763  25.626
 1723SOL    HW116797   2.725   0.071  25.606
 1723SOL    HW216798   2.662   4.769  25.716
 1724SOL     OW16799   2.694   2.230   4.451
 1724SOL    HW116800   2.771   2.226   4.508
 1724SOL    HW216801   2.720   2.285   4.378
 1725SOL     OW16802   2.038   2.631  18.130
 1725SOL    HW116803   2.105   2.678  18.080
 1725SOL    HW216804   1.955   2.669  18.100
 1726SOL     OW16805   3.902   0.757  17.882
 1726SOL    HW116806   3.947   0.800  17.810
 1726SOL    HW216807   3.935   0.667  17.882
 1727SOL     OW16808   2.480   3.625  27.106
 1727SOL    HW116809   2.564   3.622  27.060
 1727SOL    HW216810   2.486   3.555  27.170
 1728SOL     OW16811   2.061   1.364   4.554
 1728SOL    HW116812   2.105   1.281   4.569
 1728SOL    HW216813   2.057   1.374   4.459
 1729SOL     OW16814   3.167   2.116  19.748
 1729SOL    HW116815   3.211   2.065  19.816
 1729SOL    HW216816   3.231   2.184  19.723
 1730SOL     OW16817   3.653   1.613   4.966
 1730SOL    HW116818   3.691   1.660   4.893
 1730SOL    HW216819   3.586   1.671   5.001
 1731SOL     OW16820   2.265   2.262  20.702
 1731SOL    HW116821   2.310   2.225  20.779
 1731SOL    HW216822   2.288   2.355  20.703
 1732SOL     OW16823   0.226   1.328  25.029
 1732SOL    HW116824   0.133   1.348  25.026
 1732SOL    HW216825   0.269   1.412  25.047
 1733SOL     OW16826   4.714   2.849  26.049
 1733SOL    HW116827   4.673   2.935  26.062
 1733SOL    HW216828   0.027   2.866  26.056
 1734SOL     OW16829   0.768   0.941   3.902
 1734SOL    HW116830   0.774   1.005   3.830
 1734SOL    HW216831   0.766   0.994   3.981
 1735SOL     OW16832   2.656   2.335   3.501
 1735SOL    HW116833   2.711   2.308   3.428
 1735SOL    HW216834   2.587   2.268   3.504
 1736SOL     OW16835   0.686   1.864   5.737
 1736SOL    HW116836   0.740   1.815   5.799
 1736SOL    HW216837   0.613   1.897   5.790
 1737SOL     OW16838   4.320   0.021  22.871
 1737SOL    HW116839   4.382   0.093  22.859
 1737SOL    HW216840   4.265   0.050  22.944
 1738SOL     OW16841   1.621   4.527  20.193
 1738SOL    HW116842   1.567   4.455  20.226
 1738SOL    HW216843   1.640   4.580  20.270
 1739SOL     OW16844   2.342   3.146   1.509
 1739SOL    HW116845   2.278   3.177   1.445
 1739SOL    HW216846   2.391   3.078   1.463
 1740SOL     OW16847   3.011   0.406  23.640
 1740SOL    HW116848   2.997   0.497  23.665
 1740SOL    HW216849   2.923   0.366  23.644
 1741SOL     OW16850   1.878   3.363   3.272
 1741SOL    HW116851   1.783   3.371   3.268
 1741SOL    HW216852   1.895   3.271   3.252
 1742SOL     OW16853   0.886   3.552  26.795
 1742SOL    HW116854   0.914   3.620  26.733
 1742SOL    HW216855   0.847   3.484  26.740
 1743SOL     OW16856   3.026   0.847   3.941
 1743SOL    HW116857   2.935   0.818   3.935
 1743SOL    HW216858   3.027   0.931   3.895
 1744SOL     OW16859   4.410   1.162   7.586
 1744SOL    HW116860   4.435   1.180   7.496
 1744SOL    HW216861   4.330   1.212   7.599
 1745SOL     OW16862   3.938   3.471  24.375
 1745SOL    HW116863   3.919   3.400  24.436
 1745SOL    HW216864   4.016   3.514  24.411
 1746SOL     OW16865   2.790   3.774  10.849
 1746SOL    HW116866   2.818   3.683  10.845
 1746SOL    HW216867   2.833   3.809  10.926
 1747SOL     OW16868   2.279   1.637  26.608
 1747SOL    HW116869   2.194   1.677  26.589
 1747SOL    HW216870   2.314   1.686  26.682
 1748SOL     OW16871   3.975   4.399  27.073
 1748SOL    HW116872   4.039   4.327  27.074
 1748SOL    HW216873   3.977   4.432  26.983
 1749SOL     OW16874   2.400   1.150  23.937
 1749SOL    HW116875   2.480   1.174  23.889
 1749SOL    HW216876   2.427   1.148  24.029
 1750SOL     OW16877   1.948   1.374   7.354
 1750SOL    HW116878   1.895   1.452   7.369
 1750SOL    HW216879   1.899   1.323   7.289
 1751SOL     OW16880   4.469   3.116  24.171
 1751SOL    HW116881   4.391   3.082  24.215
 1751SOL    HW216882   4.541   3.064  24.206
 1752SOL     OW16883   0.790   0.012  23.802
 1752SOL    HW116884   0.800   0.064  23.881
 1752SOL    HW216885   0.703   4.754  23.810
 1753SOL     OW16886   1.136   2.203   7.840
 1753SOL    HW116887   1.066   2.196   7.905
 1753SOL    HW216888   1.212   2.234   7.890
 1754SOL     OW16889   0.771   3.233  19.995
 1754SOL    HW116890   0.818   3.298  20.047
 1754SOL    HW216891   0.803   3.247  19.906
 1755SOL     OW16892   1.524   1.055  19.273
 1755SOL    HW116893   1.604   1.044  19.326
 1755SOL    HW216894   1.556   1.075  19.185
 1756SOL     OW16895   2.271   2.799   5.650
 1756SOL    HW116896   2.321   2.720   5.629
 1756SOL    HW216897   2.236   2.783   5.737
 1757SOL     OW16898   3.262   3.937   9.842
 1757SOL    HW116899   3.249   3.847   9.811
 1757SOL    HW216900   3.179   3.981   9.822
 1758SOL     OW16901   2.537   0.939  22.424
 1758SOL    HW116902   2.619   0.900  22.455
 1758SOL    HW216903   2.547   1.033  22.441
 1759SOL     OW16904   0.154   1.889  21.395
 1759SOL    HW116905   0.139   1.928  21.482
 1759SOL    HW216906   0.177   1.798  21.413
 1760SOL     OW16907   0.789   3.829   7.781
 1760SOL    HW116908   0.729   3.869   7.719
 1760SOL    HW216909   0.750   3.743   7.800
 1761SOL     OW16910   1.833   3.669  25.487
 1761SOL    HW116911   1.820   3.655  25.393
 1761SOL    HW216912   1.824   3.763  25.499
 1762SOL     OW16913   2.356   3.289  24.323
 1762SOL    HW116914   2.318   3.339  24.395
 1762SOL    HW216915   2.451   3.302  24.331
 1763SOL     OW16916   3.663   2.300  20.773
 1763SOL    HW116917   3.598   2.261  20.833
 1763SOL    HW216918   3.671   2.390  20.802
 1764SOL     OW16919   2.267   4.090  27.653
 1764SOL    HW116920   2.357   4.116  27.670
 1764SOL    HW216921   2.237   4.152  27.586
 1765SOL     OW16922   0.334   0.055   6.652
 1765SOL    HW116923   0.377   4.752   6.638
 1765SOL    HW216924   0.371   0.088   6.734
 1766SOL     OW16925   2.882   3.400  24.348
 1766SOL    HW116926   2.976   3.420  24.348
 1766SOL    HW216927   2.877   3.308  24.325
 1767SOL     OW16928   1.586   2.904  28.385
 1767SOL    HW116929   1.573   2.881  28.477
 1767SOL    HW216930   1.612   2.822  28.343
 1768SOL     OW16931   4.678   4.063  18.875
 1768SOL    HW116932   4.733   4.046  18.799
 1768SOL    HW216933   4.599   4.012  18.860
 1769SOL     OW16934   4.058   1.373   7.863
 1769SOL    HW116935   3.967   1.404   7.861
 1769SOL    HW216936   4.094   1.410   7.943
 1770SOL     OW16937   2.096   4.668   3.221
 1770SOL    HW116938   2.164   4.679   3.154
 1770SOL    HW216939   2.013   4.677   3.172
 1771SOL     OW16940   3.231   3.268   0.975
 1771SOL    HW116941   3.224   3.325   0.898
 1771SOL    HW216942   3.148   3.220   0.975
 1772SOL     OW16943   4.198   0.474   7.943
 1772SOL    HW116944   4.138   0.548   7.944
 1772SOL    HW216945   4.275   0.504   7.993
 1773SOL     OW16946   4.116   3.597  16.592
 1773SOL    HW116947   4.045   3.594  16.528
 1773SOL    HW216948   4.172   3.669  16.563
 1774SOL     OW16949   2.956   4.236   8.213
 1774SOL    HW116950   2.898   4.232   8.136
 1774SOL    HW216951   2.939   4.322   8.252
 1775SOL     OW16952   1.744   1.368  11.064
 1775SOL    HW116953   1.834   1.386  11.038
 1775SOL    HW216954   1.749   1.347  11.157
 1776SOL     OW16955   4.502   2.741  16.286
 1776SOL    HW116956   4.422   2.765  16.239
 1776SOL    HW216957   4.529   2.659  16.247
 1777SOL     OW16958   0.408   0.820   7.514
 1777SOL    HW116959   0.358   0.901   7.511
 1777SOL    HW216960   0.438   0.807   7.424
 1778SOL     OW16961   2.783   3.640   8.457
 1778SOL    HW116962   2.792   3.659   8.364
 1778SOL    HW216963   2.712   3.576   8.462
 1779SOL     OW16964   0.678   3.456  27.942
 1779SOL    HW116965   0.669   3.498  27.857
 1779SOL    HW216966   0.640   3.369  27.931
 1780SOL     OW16967   3.886   1.827   5.930
 1780SOL    HW116968   3.943   1.877   5.872
 1780SOL    HW216969   3.924   1.739   5.931
 1781SOL     OW16970   1.956   1.497  21.686
 1781SOL    HW116971   2.046   1.498  21.654
 1781SOL    HW216972   1.924   1.409  21.666
 1782SOL     OW16973   4.085   3.377  11.662
 1782SOL    HW116974   4.120   3.289  11.676
 1782SOL    HW216975   4.034   3.371  11.582
 1783SOL     OW16976   1.583   1.718   3.609
 1783SOL    HW116977   1.545   1.652   3.552
 1783SOL    HW216978   1.678   1.707   3.598
 1784SOL     OW16979   4.526   1.958   0.828
 1784SOL    HW116980   4.518   2.020   0.901
 1784SOL    HW216981   4.528   2.014   0.750
 1785SOL     OW16982   1.399   3.652   9.643
 1785SOL    HW116983   1.342   3.613   9.709
 1785SOL    HW216984   1.340   3.688   9.577
 1786SOL     OW16985   0.534   0.297   2.936
 1786SOL    HW116986   0.466   0.339   2.884
 1786SOL    HW216987   0.543   0.352   3.014
 1787SOL     OW16988   0.117   4.004  22.933
 1787SOL    HW116989   0.212   4.019  22.931
 1787SOL    HW216990   0.083   4.079  22.982
 1788SOL     OW16991   2.336   3.300   5.948
 1788SOL    HW116992   2.242   3.311   5.935
 1788SOL    HW216993   2.345   3.275   6.040
 1789SOL     OW16994   2.488   2.834  20.223
 1789SOL    HW116995   2.404   2.849  20.179
 1789SOL    HW216996   2.501   2.740  20.219
 1790SOL     OW16997   2.837   2.604  22.437
 1790SOL    HW116998   2.814   2.685  22.484
 1790SOL    HW216999   2.933   2.605  22.434
 1791SOL     OW17000   2.753   1.987  25.143
 1791SOL    HW117001   2.704   2.015  25.220
 1791SOL    HW217002   2.838   1.959  25.178
 1792SOL     OW17003   4.434   2.628  22.376
 1792SOL    HW117004   4.373   2.618  22.303
 1792SOL    HW217005   4.386   2.680  22.441
 1793SOL     OW17006   1.182   1.421  24.207
 1793SOL    HW117007   1.151   1.332  24.190
 1793SOL    HW217008   1.255   1.410  24.268
 1794SOL     OW17009   4.203   3.567   6.489
 1794SOL    HW117010   4.267   3.564   6.561
 1794SOL    HW217011   4.195   3.660   6.468
 1795SOL     OW17012   1.581   4.613  27.221
 1795SOL    HW117013   1.660   4.612  27.167
 1795SOL    HW217014   1.510   4.599  27.159
 1796SOL     OW17015   4.219   2.899   3.816
 1796SOL    HW117016   4.145   2.927   3.870
 1796SOL    HW217017   4.296   2.935   3.860
 1797SOL     OW17018   3.741   0.861   1.732
 1797SOL    HW117019   3.679   0.934   1.736
 1797SOL    HW217020   3.800   0.883   1.661
 1798SOL     OW17021   3.347   1.443   0.758
 1798SOL    HW117022   3.408   1.465   0.689
 1798SOL    HW217023   3.388   1.370   0.804
 1799SOL     OW17024   0.461   0.484  25.962
 1799SOL    HW117025   0.387   0.521  26.010
 1799SOL    HW217026   0.527   0.466  26.030
 1800SOL     OW17027   1.248   0.857   5.726
 1800SOL    HW117028   1.234   0.763   5.723
 1800SOL    HW217029   1.290   0.878   5.643
 1801SOL     OW17030   0.701   3.127   7.328
 1801SOL    HW117031   0.614   3.121   7.288
 1801SOL    HW217032   0.715   3.041   7.367
 1802SOL     OW17033   1.590   1.881  20.606
 1802SOL    HW117034   1.590   1.968  20.645
 1802SOL    HW217035   1.518   1.836  20.649
 1803SOL     OW17036   1.851   0.011  13.185
 1803SOL    HW117037   1.921   0.043  13.242
 1803SOL    HW217038   1.896   4.768  13.104
 1804SOL     OW17039   0.216   3.096   2.802
 1804SOL    HW117040   0.282   3.117   2.869
 1804SOL    HW217041   0.231   3.160   2.733
 1805SOL     OW17042   4.378   3.609   6.720
 1805SOL    HW117043   4.353   3.641   6.807
 1805SOL    HW217044   4.463   3.650   6.703
 1806SOL     OW17045   1.868   4.256  21.005
 1806SOL    HW117046   1.943   4.283  20.953
 1806SOL    HW217047   1.902   4.250  21.094
 1807SOL     OW17048   1.682   2.288   7.436
 1807SOL    HW117049   1.726   2.373   7.430
 1807SOL    HW217050   1.589   2.310   7.438
 1808SOL     OW17051   1.898   1.724   8.033
 1808SOL    HW117052   1.882   1.629   8.030
 1808SOL    HW217053   1.993   1.732   8.030
 1809SOL     OW17054   3.514   4.244   4.875
 1809SOL    HW117055   3.598   4.198   4.885
 1809SOL    HW217056   3.513   4.271   4.783
 1810SOL     OW17057   0.997   0.843  23.840
 1810SOL    HW117058   1.055   0.896  23.894
 1810SOL    HW217059   0.910   0.856  23.878
 1811SOL     OW17060   3.202   1.142   3.396
 1811SOL    HW117061   3.278   1.101   3.355
 1811SOL    HW217062   3.219   1.236   3.392
 1812SOL     OW17063   0.253   2.770  24.738
 1812SOL    HW117064   0.285   2.858  24.758
 1812SOL    HW217065   0.314   2.712  24.785
 1813SOL     OW17066   1.493   0.677   4.826
 1813SOL    HW117067   1.398   0.687   4.819
 1813SOL    HW217068   1.512   0.596   4.777
 1814SOL     OW17069   0.146   2.785   4.383
 1814SOL    HW117070   0.226   2.822   4.420
 1814SOL    HW217071   0.085   2.782   4.457
 1815SOL     OW17072   0.819   3.727   2.724
 1815SOL    HW117073   0.784   3.656   2.670
 1815SOL    HW217074   0.826   3.689   2.812
 1816SOL     OW17075   0.858   4.076  23.542
 1816SOL    HW117076   0.843   4.143  23.476
 1816SOL    HW217077   0.787   4.087  23.605
 1817SOL     OW17078   1.855   1.804  21.593
 1817SOL    HW117079   1.815   1.757  21.520
 1817SOL    HW217080   1.801   1.882  21.604
 1818SOL     OW17081   2.720   1.804   7.562
 1818SOL    HW117082   2.766   1.887   7.548
 1818SOL    HW217083   2.785   1.749   7.606
 1819SOL     OW17084   0.368   0.311   6.878
 1819SOL    HW117085   0.315   0.266   6.945
 1819SOL    HW217086   0.349   0.404   6.891
 1820SOL     OW17087   0.746   3.850  21.635
 1820SOL    HW117088   0.809   3.794  21.589
 1820SOL    HW217089   0.671   3.793  21.653
 1821SOL     OW17090   2.309   4.323   8.088
 1821SOL    HW117091   2.242   4.375   8.044
 1821SOL    HW217092   2.346   4.382   8.153
 1822SOL     OW17093   2.794   4.067   7.423
 1822SOL    HW117094   2.788   4.118   7.342
 1822SOL    HW217095   2.726   4.103   7.480
 1823SOL     OW17096   3.389   2.565  27.208
 1823SOL    HW117097   3.479   2.588  27.188
 1823SOL    HW217098   3.337   2.608  27.140
 1824SOL     OW17099   4.490   4.215  20.801
 1824SOL    HW117100   4.556   4.273  20.841
 1824SOL    HW217101   4.410   4.232  20.850
 1825SOL     OW17102   3.906   3.437  22.167
 1825SOL    HW117103   3.985   3.435  22.221
 1825SOL    HW217104   3.897   3.529  22.142
 1826SOL     OW17105   4.538   1.366   0.123
 1826SOL    HW117106   4.471   1.302   0.100
 1826SOL    HW217107   4.523   1.439   0.064
 1827SOL     OW17108   0.234   2.649   0.594
 1827SOL    HW117109   0.288   2.699   0.533
 1827SOL    HW217110   0.254   2.558   0.574
 1828SOL     OW17111   3.388   4.773  10.919
 1828SOL    HW117112   3.342   4.695  10.888
 1828SOL    HW217113   3.364   4.779  11.011
 1829SOL     OW17114   3.753   3.213  25.231
 1829SOL    HW117115   3.737   3.122  25.255
 1829SOL    HW217116   3.844   3.229  25.256
 1830SOL     OW17117   0.672   2.856   0.350
 1830SOL    HW117118   0.760   2.818   0.355
 1830SOL    HW217119   0.687   2.950   0.341
 1831SOL     OW17120   3.508   4.088   7.360
 1831SOL    HW117121   3.518   4.004   7.316
 1831SOL    HW217122   3.480   4.066   7.449
 1832SOL     OW17123   1.409   2.903   8.714
 1832SOL    HW117124   1.390   2.865   8.628
 1832SOL    HW217125   1.476   2.969   8.697
 1833SOL     OW17126   1.871   1.159  27.396
 1833SOL    HW117127   1.888   1.078  27.444
 1833SOL    HW217128   1.934   1.221  27.431
 1834SOL     OW17129   0.799   3.632  22.097
 1834SOL    HW117130   0.753   3.656  22.017
 1834SOL    HW217131   0.891   3.653  22.080
 1835SOL     OW17132   1.331   0.230   2.832
 1835SOL    HW117133   1.370   0.147   2.858
 1835SOL    HW217134   1.272   0.207   2.760
 1836SOL     OW17135   2.989   2.466  25.504
 1836SOL    HW117136   2.946   2.531  25.449
 1836SOL    HW217137   3.062   2.433  25.451
 1837SOL     OW17138   2.129   0.683  19.530
 1837SOL    HW117139   2.183   0.622  19.580
 1837SOL    HW217140   2.191   0.745  19.492
 1838SOL     OW17141   0.375   3.638  19.986
 1838SOL    HW117142   0.446   3.701  19.988
 1838SOL    HW217143   0.396   3.580  19.913
 1839SOL     OW17144   1.546   4.747  23.375
 1839SOL    HW117145   1.479   4.682  23.393
 1839SOL    HW217146   1.529   4.776  23.285
 1840SOL     OW17147   1.738   4.053  10.644
 1840SOL    HW117148   1.677   3.981  10.659
 1840SOL    HW217149   1.748   4.056  10.549
 1841SOL     OW17150   3.629   3.265  24.966
 1841SOL    HW117151   3.662   3.259  25.055
 1841SOL    HW217152   3.539   3.295  24.976
 1842SOL     OW17153   1.987   1.380  22.157
 1842SOL    HW117154   2.012   1.362  22.248
 1842SOL    HW217155   2.022   1.467  22.139
 1843SOL     OW17156   1.362   1.504   4.556
 1843SOL    HW117157   1.373   1.490   4.650
 1843SOL    HW217158   1.269   1.485   4.540
 1844SOL     OW17159   4.427   0.924   3.171
 1844SOL    HW117160   4.419   1.003   3.119
 1844SOL    HW217161   4.339   0.909   3.206
 1845SOL     OW17162   2.839   0.594   5.638
 1845SOL    HW117163   2.915   0.573   5.693
 1845SOL    HW217164   2.820   0.686   5.658
 1846SOL     OW17165   3.473   3.730  24.890
 1846SOL    HW117166   3.487   3.789  24.815
 1846SOL    HW217167   3.527   3.654  24.871
 1847SOL     OW17168   4.500   2.113   0.611
 1847SOL    HW117169   4.536   2.190   0.654
 1847SOL    HW217170   4.461   2.146   0.530
 1848SOL     OW17171   0.007   2.136   9.235
 1848SOL    HW117172   0.034   2.112   9.324
 1848SOL    HW217173   4.700   2.100   9.227
 1849SOL     OW17174   2.185   4.355   2.035
 1849SOL    HW117175   2.255   4.298   2.066
 1849SOL    HW217176   2.205   4.441   2.073
 1850SOL     OW17177   2.134   0.647  26.650
 1850SOL    HW117178   2.207   0.590  26.624
 1850SOL    HW217179   2.171   0.705  26.716
 1851SOL     OW17180   0.533   2.091   7.712
 1851SOL    HW117181   0.453   2.135   7.740
 1851SOL    HW217182   0.602   2.154   7.731
 1852SOL     OW17183   0.028   3.356  27.918
 1852SOL    HW117184   0.018   3.266  27.947
 1852SOL    HW217185   0.052   3.349  27.825
 1853SOL     OW17186   2.078   0.975  27.955
 1853SOL    HW117187   1.993   0.990  27.913
 1853SOL    HW217188   2.066   0.895  28.006
 1854SOL     OW17189   4.105   3.163  26.115
 1854SOL    HW117190   4.070   3.174  26.204
 1854SOL    HW217191   4.065   3.083  26.083
 1855SOL     OW17192   1.448   4.132  11.600
 1855SOL    HW117193   1.478   4.083  11.676
 1855SOL    HW217194   1.487   4.218  11.610
 1856SOL     OW17195   0.039   3.996   2.400
 1856SOL    HW117196   4.743   3.949   2.369
 1856SOL    HW217197   0.054   4.064   2.334
 1857SOL     OW17198   3.642   3.794   4.766
 1857SOL    HW117199   3.722   3.820   4.719
 1857SOL    HW217200   3.672   3.731   4.831
 1858SOL     OW17201   3.655   2.477   1.347
 1858SOL    HW117202   3.637   2.443   1.434
 1858SOL    HW217203   3.611   2.417   1.288
 1859SOL     OW17204   0.829   0.052  11.788
 1859SOL    HW117205   0.889   4.770  11.749
 1859SOL    HW217206   0.752   0.051  11.732
 1860SOL     OW17207   1.351   4.630   0.604
 1860SOL    HW117208   1.412   4.557   0.591
 1860SOL    HW217209   1.315   4.647   0.517
 1861SOL     OW17210   2.794   1.393   2.086
 1861SOL    HW117211   2.719   1.378   2.143
 1861SOL    HW217212   2.859   1.434   2.143
 1862SOL     OW17213   0.385   3.117   0.560
 1862SOL    HW117214   0.441   3.179   0.605
 1862SOL    HW217215   0.313   3.170   0.526
 1863SOL     OW17216   4.402   4.707  25.858
 1863SOL    HW117217   4.408   4.701  25.954
 1863SOL    HW217218   4.315   4.673  25.838
 1864SOL     OW17219   2.325   4.611  22.319
 1864SOL    HW117220   2.235   4.582  22.304
 1864SOL    HW217221   2.347   4.577  22.406
 1865SOL     OW17222   1.151   3.904  21.874
 1865SOL    HW117223   1.186   3.993  21.879
 1865SOL    HW217224   1.056   3.917  21.867
 1866SOL     OW17225   2.487   1.130  22.952
 1866SOL    HW117226   2.548   1.127  22.879
 1866SOL    HW217227   2.459   1.221  22.958
 1867SOL     OW17228   3.628   1.068   3.841
 1867SOL    HW117229   3.668   1.037   3.922
 1867SOL    HW217230   3.670   1.017   3.772
 1868SOL     OW17231   2.567   2.173  22.293
 1868SOL    HW117232   2.641   2.196  22.237
 1868SOL    HW217233   2.604   2.169  22.381
 1869SOL     OW17234   3.109   3.615   6.948
 1869SOL    HW117235   3.115   3.545   6.883
 1869SOL    HW217236   3.122   3.696   6.897
 1870SOL     OW17237   0.137   2.965   4.055
 1870SOL    HW117238   0.186   2.886   4.078
 1870SOL    HW217239   0.201   3.036   4.062
 1871SOL     OW17240   3.821   1.032   4.344
 1871SOL    HW117241   3.735   1.064   4.372
 1871SOL    HW217242   3.882   1.070   4.407
 1872SOL     OW17243   1.689   1.587   9.176
 1872SOL    HW117244   1.722   1.638   9.102
 1872SOL    HW217245   1.596   1.576   9.158
 1873SOL     OW17246   1.418   1.135  23.806
 1873SOL    HW117247   1.349   1.117  23.742
 1873SOL    HW217248   1.498   1.101  23.766
 1874SOL     OW17249   0.616   1.540   8.124
 1874SOL    HW117250   0.686   1.524   8.188
 1874SOL    HW217251   0.606   1.635   8.123
 1875SOL     OW17252   0.835   2.598  12.874
 1875SOL    HW117253   0.761   2.539  12.888
 1875SOL    HW217254   0.889   2.588  12.952
 1876SOL     OW17255   0.638   0.463  26.179
 1876SOL    HW117256   0.595   0.540  26.218
 1876SOL    HW217257   0.727   0.465  26.215
 1877SOL     OW17258   2.068   2.038   9.150
 1877SOL    HW117259   2.009   2.042   9.225
 1877SOL    HW217260   2.060   1.949   9.116
 1878SOL     OW17261   3.788   3.687   0.168
 1878SOL    HW117262   3.716   3.654   0.221
 1878SOL    HW217263   3.864   3.687   0.227
 1879SOL     OW17264   3.543   1.364   1.822
 1879SOL    HW117265   3.482   1.400   1.758
 1879SOL    HW217266   3.588   1.441   1.858
 1880SOL     OW17267   0.665   2.706   4.481
 1880SOL    HW117268   0.662   2.648   4.557
 1880SOL    HW217269   0.738   2.765   4.498
 1881SOL     OW17270   1.819   1.065  18.333
 1881SOL    HW117271   1.827   0.991  18.273
 1881SOL    HW217272   1.741   1.045  18.385
 1882SOL     OW17273   0.860   0.571  25.215
 1882SOL    HW117274   0.786   0.588  25.274
 1882SOL    HW217275   0.933   0.550  25.274
 1883SOL     OW17276   2.908   1.642   8.120
 1883SOL    HW117277   2.981   1.702   8.132
 1883SOL    HW217278   2.862   1.641   8.204
 1884SOL     OW17279   2.984   4.458   1.138
 1884SOL    HW117280   2.966   4.530   1.198
 1884SOL    HW217281   2.909   4.399   1.148
 1885SOL     OW17282   1.224   1.366   3.539
 1885SOL    HW117283   1.140   1.410   3.526
 1885SOL    HW217284   1.240   1.373   3.633
 1886SOL     OW17285   0.266   1.923  18.112
 1886SOL    HW117286   0.277   1.862  18.038
 1886SOL    HW217287   0.353   1.956  18.129
 1887SOL     OW17288   0.736   0.174  26.305
 1887SOL    HW117289   0.687   0.257  26.307
 1887SOL    HW217290   0.827   0.200  26.317
 1888SOL     OW17291   3.048   1.067   2.899
 1888SOL    HW117292   2.954   1.088   2.901
 1888SOL    HW217293   3.069   1.064   2.805
 1889SOL     OW17294   4.517   1.591  28.033
 1889SOL    HW117295   4.464   1.512  28.041
 1889SOL    HW217296   4.607   1.561  28.044
 1890SOL     OW17297   1.981   2.737   8.206
 1890SOL    HW117298   1.993   2.672   8.137
 1890SOL    HW217299   1.969   2.820   8.160
 1891SOL     OW17300   0.153   1.593   6.586
 1891SOL    HW117301   0.214   1.520   6.576
 1891SOL    HW217302   0.076   1.555   6.629
 1892SOL     OW17303   0.747   3.943   2.546
 1892SOL    HW117304   0.785   3.901   2.623
 1892SOL    HW217305   0.762   4.037   2.560
 1893SOL     OW17306   3.971   1.298  26.663
 1893SOL    HW117307   4.062   1.268  26.664
 1893SOL    HW217308   3.930   1.251  26.736
 1894SOL     OW17309   2.993   0.318   5.990
 1894SOL    HW117310   3.082   0.329   6.023
 1894SOL    HW217311   2.941   0.296   6.067
 1895SOL     OW17312   0.422   0.734  20.806
 1895SOL    HW117313   0.382   0.714  20.721
 1895SOL    HW217314   0.431   0.829  20.806
 1896SOL     OW17315   3.365   3.865  10.947
 1896SOL    HW117316   3.409   3.799  11.001
 1896SOL    HW217317   3.323   3.924  11.009
 1897SOL     OW17318   3.310   1.520   4.068
 1897SOL    HW117319   3.291   1.467   3.991
 1897SOL    HW217320   3.251   1.486   4.136
 1898SOL     OW17321   4.238   4.742   1.074
 1898SOL    HW117322   4.318   4.758   1.024
 1898SOL    HW217323   4.225   0.040   1.126
 1899SOL     OW17324   2.523   3.446  19.050
 1899SOL    HW117325   2.552   3.465  18.960
 1899SOL    HW217326   2.493   3.530  19.084
 1900SOL     OW17327   3.200   2.854  24.848
 1900SOL    HW117328   3.132   2.846  24.914
 1900SOL    HW217329   3.236   2.766  24.839
 1901SOL     OW17330   3.318   0.182  25.329
 1901SOL    HW117331   3.267   0.187  25.248
 1901SOL    HW217332   3.354   0.270  25.340
 1902SOL     OW17333   3.598   2.794  21.756
 1902SOL    HW117334   3.607   2.832  21.843
 1902SOL    HW217335   3.686   2.799  21.719
 1903SOL     OW17336   3.864   0.372   4.726
 1903SOL    HW117337   3.804   0.359   4.652
 1903SOL    HW217338   3.838   0.455   4.765
 1904SOL     OW17339   0.936   4.135  11.286
 1904SOL    HW117340   0.919   4.172  11.372
 1904SOL    HW217341   0.918   4.206  11.225
 1905SOL     OW17342   2.904   3.268  10.332
 1905SOL    HW117343   2.888   3.188  10.283
 1905SOL    HW217344   2.962   3.242  10.404
 1906SOL     OW17345   3.066   0.487   1.676
 1906SOL    HW117346   3.144   0.480   1.731
 1906SOL    HW217347   3.093   0.542   1.602
 1907SOL     OW17348   4.300   0.527  22.937
 1907SOL    HW117349   4.253   0.593  22.886
 1907SOL    HW217350   4.258   0.444  22.914
 1908SOL     OW17351   4.741   2.887  28.510
 1908SOL    HW117352   0.041   2.837  28.503
 1908SOL    HW217353   4.716   2.879   0.080
 1909SOL     OW17354   4.692   2.559  27.953
 1909SOL    HW117355   4.718   2.622  28.020
 1909SOL    HW217356   4.690   2.475  27.999
 1910SOL     OW17357   2.911   3.457   4.517
 1910SOL    HW117358   2.897   3.547   4.546
 1910SOL    HW217359   2.824   3.427   4.491
 1911SOL     OW17360   3.855   0.148   6.330
 1911SOL    HW117361   3.832   0.125   6.420
 1911SOL    HW217362   3.797   0.222   6.309
 1912SOL     OW17363   3.539   2.512  11.878
 1912SOL    HW117364   3.528   2.487  11.970
 1912SOL    HW217365   3.545   2.429  11.831
 1913SOL     OW17366   3.125   0.490   7.220
 1913SOL    HW117367   3.098   0.531   7.302
 1913SOL    HW217368   3.185   0.553   7.181
 1914SOL     OW17369   3.278   1.446   2.372
 1914SOL    HW117370   3.238   1.360   2.375
 1914SOL    HW217371   3.369   1.431   2.397
 1915SOL     OW17372   4.639   0.353   1.619
 1915SOL    HW117373   4.584   0.275   1.612
 1915SOL    HW217374   4.624   0.384   1.708
 1916SOL     OW17375   4.013   3.159  26.670
 1916SOL    HW117376   3.930   3.155  26.719
 1916SOL    HW217377   4.074   3.107  26.723
 1917SOL     OW17378   2.874   2.776   4.830
 1917SOL    HW117379   2.920   2.692   4.827
 1917SOL    HW217380   2.940   2.841   4.806
 1918SOL     OW17381   0.140   1.238  19.509
 1918SOL    HW117382   0.064   1.207  19.559
 1918SOL    HW217383   0.125   1.203  19.421
 1919SOL     OW17384   1.083   2.012  19.792
 1919SOL    HW117385   1.169   2.006  19.832
 1919SOL    HW217386   1.038   1.932  19.820
 1920SOL     OW17387   2.947   4.599   9.479
 1920SOL    HW117388   2.869   4.639   9.440
 1920SOL    HW217389   2.965   4.523   9.424
 1921SOL     OW17390   0.321   3.603   2.626
 1921SOL    HW117391   0.381   3.613   2.552
 1921SOL    HW217392   0.236   3.632   2.593
 1922SOL     OW17393   0.416   3.017   5.469
 1922SOL    HW117394   0.333   2.985   5.432
 1922SOL    HW217395   0.467   3.043   5.392
 1923SOL     OW17396   3.805   2.044  19.915
 1923SOL    HW117397   3.851   2.020  19.834
 1923SOL    HW217398   3.791   2.139  19.906
 1924SOL     OW17399   2.462   2.983   1.330
 1924SOL    HW117400   2.549   2.942   1.326
 1924SOL    HW217401   2.401   2.911   1.317
 1925SOL     OW17402   3.316   1.183  27.009
 1925SOL    HW117403   3.349   1.150  26.925
 1925SOL    HW217404   3.307   1.104  27.063
 1926SOL     OW17405   1.651   0.936  11.449
 1926SOL    HW117406   1.702   0.943  11.529
 1926SOL    HW217407   1.713   0.957  11.379
 1927SOL     OW17408   0.406   2.210  18.475
 1927SOL    HW117409   0.337   2.243  18.419
 1927SOL    HW217410   0.369   2.131  18.515
 1928SOL     OW17411   1.406   3.910   6.340
 1928SOL    HW117412   1.366   3.987   6.300
 1928SOL    HW217413   1.481   3.946   6.389
 1929SOL     OW17414   0.772   3.952   4.749
 1929SOL    HW117415   0.845   3.985   4.803
 1929SOL    HW217416   0.780   3.856   4.754
 1930SOL     OW17417   3.582   3.258   3.643
 1930SOL    HW117418   3.490   3.268   3.618
 1930SOL    HW217419   3.591   3.312   3.722
 1931SOL     OW17420   3.126   4.450  24.623
 1931SOL    HW117421   3.181   4.400  24.562
 1931SOL    HW217422   3.173   4.532  24.635
 1932SOL     OW17423   0.140   0.747   2.911
 1932SOL    HW117424   0.060   0.785   2.947
 1932SOL    HW217425   0.110   0.695   2.836
 1933SOL     OW17426   2.142   3.814  27.573
 1933SOL    HW117427   2.138   3.719  27.582
 1933SOL    HW217428   2.233   3.836  27.590
 1934SOL     OW17429   0.289   1.627   1.481
 1934SOL    HW117430   0.298   1.591   1.393
 1934SOL    HW217431   0.255   1.715   1.468
 1935SOL     OW17432   0.084   0.499  28.133
 1935SOL    HW117433   0.131   0.565  28.082
 1935SOL    HW217434   0.046   0.439  28.068
 1936SOL     OW17435   0.063   4.694   0.244
 1936SOL    HW117436   0.084   4.687   0.151
 1936SOL    HW217437   4.758   4.736   0.245
 1937SOL     OW17438   3.604   0.199   2.613
 1937SOL    HW117439   3.571   0.281   2.574
 1937SOL    HW217440   3.545   0.132   2.578
 1938SOL     OW17441   3.858   3.077  24.253
 1938SOL    HW117442   3.865   3.039  24.166
 1938SOL    HW217443   3.948   3.102  24.275
 1939SOL     OW17444   0.203   3.947  24.176
 1939SOL    HW117445   0.120   3.992  24.160
 1939SOL    HW217446   0.188   3.858  24.144
 1940SOL     OW17447   1.702   1.524  22.251
 1940SOL    HW117448   1.618   1.491  22.285
 1940SOL    HW217449   1.699   1.502  22.157
 1941SOL     OW17450   3.807   0.880   1.997
 1941SOL    HW117451   3.719   0.900   2.031
 1941SOL    HW217452   3.799   0.889   1.902
 1942SOL     OW17453   4.579   0.007   1.215
 1942SOL    HW117454   4.568   0.096   1.180
 1942SOL    HW217455   4.611   4.737   1.140
 1943SOL     OW17456   4.742   3.340  23.996
 1943SOL    HW117457   4.664   3.298  24.033
 1943SOL    HW217458   0.030   3.276  24.009
 1944SOL     OW17459   1.626   2.718   7.117
 1944SOL    HW117460   1.705   2.681   7.078
 1944SOL    HW217461   1.556   2.660   7.089
 1945SOL     OW17462   3.425   2.959  23.819
 1945SOL    HW117463   3.416   2.926  23.730
 1945SOL    HW217464   3.519   2.952  23.838
 1946SOL     OW17465   1.573   4.131   5.801
 1946SOL    HW117466   1.488   4.148   5.844
 1946SOL    HW217467   1.600   4.046   5.835
 1947SOL     OW17468   4.464   1.957   8.664
 1947SOL    HW117469   4.503   1.929   8.581
 1947SOL    HW217470   4.376   1.988   8.639
 1948SOL     OW17471   1.351   0.787  22.523
 1948SOL    HW117472   1.294   0.748  22.457
 1948SOL    HW217473   1.435   0.799  22.478
 1949SOL     OW17474   2.487   4.170   4.534
 1949SOL    HW117475   2.529   4.111   4.597
 1949SOL    HW217476   2.535   4.156   4.452
 1950SOL     OW17477   3.774   1.713   4.734
 1950SOL    HW117478   3.748   1.657   4.662
 1950SOL    HW217479   3.832   1.779   4.695
 1951SOL     OW17480   0.185   0.886  27.334
 1951SOL    HW117481   0.182   0.811  27.274
 1951SOL    HW217482   0.264   0.870  27.386
 1952SOL     OW17483   0.804   4.780  21.059
 1952SOL    HW117484   0.806   4.691  21.022
 1952SOL    HW217485   0.778   4.767  21.150
 1953SOL     OW17486   3.328   2.602   9.735
 1953SOL    HW117487   3.342   2.638   9.823
 1953SOL    HW217488   3.327   2.507   9.749
 1954SOL     OW17489   0.166   4.501  20.190
 1954SOL    HW117490   0.147   4.431  20.127
 1954SOL    HW217491   0.108   4.573  20.164
 1955SOL     OW17492   1.726   0.645  12.125
 1955SOL    HW117493   1.657   0.679  12.183
 1955SOL    HW217494   1.732   0.552  12.147
 1956SOL     OW17495   1.996   1.409  23.739
 1956SOL    HW117496   1.994   1.504  23.743
 1956SOL    HW217497   1.913   1.382  23.779
 1957SOL     OW17498   2.514   0.575   9.756
 1957SOL    HW117499   2.557   0.656   9.783
 1957SOL    HW217500   2.466   0.547   9.834
 1958SOL     OW17501   4.175   2.066  16.536
 1958SOL    HW117502   4.093   2.061  16.486
 1958SOL    HW217503   4.182   1.981  16.579
 1959SOL     OW17504   1.734   4.101  18.276
 1959SOL    HW117505   1.715   4.088  18.183
 1959SOL    HW217506   1.714   4.193  18.292
 1960SOL     OW17507   1.655   3.143   6.431
 1960SOL    HW117508   1.563   3.115   6.433
 1960SOL    HW217509   1.652   3.236   6.454
 1961SOL     OW17510   3.434   2.046  28.154
 1961SOL    HW117511   3.348   2.052  28.113
 1961SOL    HW217512   3.442   2.125  28.207
 1962SOL     OW17513   3.983   0.674   7.172
 1962SOL    HW117514   4.069   0.664   7.213
 1962SOL    HW217515   3.962   0.587   7.138
 1963SOL     OW17516   1.466   2.264  24.720
 1963SOL    HW117517   1.450   2.206  24.645
 1963SOL    HW217518   1.441   2.211  24.796
 1964SOL     OW17519   2.358   4.775  28.102
 1964SOL    HW117520   2.404   4.702  28.062
 1964SOL    HW217521   2.334   4.745  28.190
 1965SOL     OW17522   1.725   3.052  24.529
 1965SOL    HW117523   1.761   3.032  24.616
 1965SOL    HW217524   1.676   3.133  24.541
 1966SOL     OW17525   2.966   2.722   8.795
 1966SOL    HW117526   2.916   2.699   8.717
 1966SOL    HW217527   2.998   2.810   8.778
 1967SOL     OW17528   3.198   1.903  27.648
 1967SOL    HW117529   3.263   1.960  27.688
 1967SOL    HW217530   3.156   1.956  27.580
 1968SOL     OW17531   1.644   2.855  12.099
 1968SOL    HW117532   1.605   2.860  12.186
 1968SOL    HW217533   1.738   2.845  12.115
 1969SOL     OW17534   2.858   1.255   0.506
 1969SOL    HW117535   2.814   1.247   0.591
 1969SOL    HW217536   2.951   1.255   0.529
 1970SOL     OW17537   4.147   3.499  22.299
 1970SOL    HW117538   4.138   3.417  22.348
 1970SOL    HW217539   4.241   3.511  22.288
 1971SOL     OW17540   0.768   2.320   3.254
 1971SOL    HW117541   0.728   2.257   3.195
 1971SOL    HW217542   0.696   2.377   3.282
 1972SOL     OW17543   4.162   4.497   5.597
 1972SOL    HW117544   4.238   4.547   5.626
 1972SOL    HW217545   4.091   4.525   5.655
 1973SOL     OW17546   4.496   0.244  22.868
 1973SOL    HW117547   4.536   0.297  22.799
 1973SOL    HW217548   4.486   0.305  22.941
 1974SOL     OW17549   0.924   1.118   8.516
 1974SOL    HW117550   1.014   1.140   8.540
 1974SOL    HW217551   0.909   1.163   8.433
 1975SOL     OW17552   1.256   0.686  26.587
 1975SOL    HW117553   1.177   0.634  26.597
 1975SOL    HW217554   1.225   0.777  26.585
 1976SOL     OW17555   2.982   0.651  27.014
 1976SOL    HW117556   2.922   0.584  26.983
 1976SOL    HW217557   2.993   0.632  27.107
 1977SOL     OW17558   2.564   3.965  20.113
 1977SOL    HW117559   2.509   3.913  20.055
 1977SOL    HW217560   2.509   4.038  20.141
 1978SOL     OW17561   2.315   1.550  23.946
 1978SOL    HW117562   2.262   1.478  23.978
 1978SOL    HW217563   2.329   1.531  23.853
 1979SOL     OW17564   2.307   3.056  22.797
 1979SOL    HW117565   2.374   3.062  22.865
 1979SOL    HW217566   2.317   2.968  22.761
 1980SOL     OW17567   3.103   0.092  24.195
 1980SOL    HW117568   3.105   0.040  24.275
 1980SOL    HW217569   3.178   0.152  24.203
 1981SOL     OW17570   1.347   2.782  26.131
 1981SOL    HW117571   1.268   2.835  26.126
 1981SOL    HW217572   1.418   2.843  26.114
 1982SOL     OW17573   1.607   2.413  12.810
 1982SOL    HW117574   1.691   2.367  12.809
 1982SOL    HW217575   1.591   2.432  12.902
 1983SOL     OW17576   0.972   2.385   4.675
 1983SOL    HW117577   1.013   2.388   4.761
 1983SOL    HW217578   0.935   2.297   4.668
 1984SOL     OW17579   2.238   1.876   5.016
 1984SOL    HW117580   2.187   1.936   5.070
 1984SOL    HW217581   2.327   1.882   5.050
 1985SOL     OW17582   0.146   0.394  26.243
 1985SOL    HW117583   0.222   0.352  26.203
 1985SOL    HW217584   0.176   0.483  26.263
 1986SOL     OW17585   3.516   0.990   4.368
 1986SOL    HW117586   3.499   1.015   4.277
 1986SOL    HW217587   3.533   0.896   4.364
 1987SOL     OW17588   0.778   2.908  24.781
 1987SOL    HW117589   0.724   2.975  24.739
 1987SOL    HW217590   0.760   2.917  24.874
 1988SOL     OW17591   0.429   4.003  20.298
 1988SOL    HW117592   0.439   4.058  20.220
 1988SOL    HW217593   0.497   4.034  20.358
 1989SOL     OW17594   1.797   3.094  20.488
 1989SOL    HW117595   1.744   3.088  20.567
 1989SOL    HW217596   1.770   3.018  20.435
 1990SOL     OW17597   1.633   4.241  28.227
 1990SOL    HW117598   1.551   4.238  28.176
 1990SOL    HW217599   1.702   4.230  28.161
 1991SOL     OW17600   1.367   2.306   2.345
 1991SOL    HW117601   1.446   2.354   2.318
 1991SOL    HW217602   1.365   2.313   2.440
 1992SOL     OW17603   1.257   3.015  25.700
 1992SOL    HW117604   1.232   3.012  25.608
 1992SOL    HW217605   1.351   3.029  25.700
 1993SOL     OW17606   0.665   2.872   0.034
 1993SOL    HW117607   0.678   2.946   0.093
 1993SOL    HW217608   0.574   2.844   0.050
 1994SOL     OW17609   3.153   1.208   2.411
 1994SOL    HW117610   3.072   1.220   2.462
 1994SOL    HW217611   3.122   1.185   2.323
 1995SOL     OW17612   4.024   3.181  24.499
 1995SOL    HW117613   3.984   3.094  24.508
 1995SOL    HW217614   3.981   3.235  24.564
 1996SOL     OW17615   2.074   3.277  25.344
 1996SOL    HW117616   2.162   3.316  25.338
 1996SOL    HW217617   2.051   3.287  25.437
 1997SOL     OW17618   2.530   4.435   2.235
 1997SOL    HW117619   2.495   4.353   2.269
 1997SOL    HW217620   2.452   4.484   2.208
 1998SOL     OW17621   4.277   2.880   1.598
 1998SOL    HW117622   4.259   2.892   1.691
 1998SOL    HW217623   4.291   2.969   1.565
 1999SOL     OW17624   0.949   1.624   4.818
 1999SOL    HW117625   0.857   1.606   4.840
 1999SOL    HW217626   0.995   1.543   4.840
 2000SOL     OW17627   4.444   2.136   1.856
 2000SOL    HW117628   4.398   2.206   1.902
 2000SOL    HW217629   4.527   2.127   1.903
 2001SOL     OW17630   1.481   0.444  12.382
 2001SOL    HW117631   1.540   0.485  12.446
 2001SOL    HW217632   1.478   0.505  12.309
 2002SOL     OW17633   0.041   4.025   2.081
 2002SOL    HW117634   0.060   4.034   1.988
 2002SOL    HW217635   0.058   3.933   2.100
 2003SOL     OW17636   2.491   1.674  24.462
 2003SOL    HW117637   2.476   1.730  24.386
 2003SOL    HW217638   2.404   1.661  24.500
 2004SOL     OW17639   1.091   2.870   8.010
 2004SOL    HW117640   1.036   2.942   8.043
 2004SOL    HW217641   1.108   2.816   8.088
 2005SOL     OW17642   3.395   4.527  11.825
 2005SOL    HW117643   3.484   4.562  11.818
 2005SOL    HW217644   3.402   4.457  11.890
 2006SOL     OW17645   0.097   1.821  22.368
 2006SOL    HW117646   0.154   1.830  22.292
 2006SOL    HW217647   0.079   1.727  22.373
 2007SOL     OW17648   0.233   3.063  23.016
 2007SOL    HW117649   0.318   3.043  23.056
 2007SOL    HW217650   0.254   3.126  22.947
 2008SOL     OW17651   2.016   0.457   3.039
 2008SOL    HW117652   2.029   0.362   3.050
 2008SOL    HW217653   2.004   0.468   2.945
 2009SOL     OW17654   3.426   2.773  11.829
 2009SOL    HW117655   3.511   2.809  11.806
 2009SOL    HW217656   3.445   2.683  11.858
 2010SOL     OW17657   1.700   0.599  27.282
 2010SOL    HW117658   1.633   0.657  27.244
 2010SOL    HW217659   1.656   0.515  27.292
 2011SOL     OW17660   1.617   4.684  13.110
 2011SOL    HW117661   1.699   4.714  13.150
 2011SOL    HW217662   1.565   4.764  13.099
 2012SOL     OW17663   0.804   3.532  23.580
 2012SOL    HW117664   0.824   3.574  23.497
 2012SOL    HW217665   0.890   3.522  23.622
 2013SOL     OW17666   2.571   3.123   4.596
 2013SOL    HW117667   2.527   3.064   4.536
 2013SOL    HW217668   2.553   3.087   4.683
 2014SOL     OW17669   2.996   2.091   6.420
 2014SOL    HW117670   2.962   2.081   6.331
 2014SOL    HW217671   2.918   2.080   6.476
 2015SOL     OW17672   0.255   1.189   1.641
 2015SOL    HW117673   0.161   1.174   1.648
 2015SOL    HW217674   0.276   1.169   1.550
 2016SOL     OW17675   3.830   3.550   2.207
 2016SOL    HW117676   3.924   3.571   2.202
 2016SOL    HW217677   3.790   3.605   2.140
 2017SOL     OW17678   4.495   0.981  12.560
 2017SOL    HW117679   4.527   1.046  12.623
 2017SOL    HW217680   4.401   0.979  12.573
 2018SOL     OW17681   2.046   3.881  20.152
 2018SOL    HW117682   2.120   3.847  20.101
 2018SOL    HW217683   1.970   3.833  20.119
 2019SOL     OW17684   0.273   1.515  11.616
 2019SOL    HW117685   0.310   1.603  11.622
 2019SOL    HW217686   0.348   1.457  11.602
 2020SOL     OW17687   0.833   2.380  20.941
 2020SOL    HW117688   0.864   2.337  20.862
 2020SOL    HW217689   0.858   2.322  21.013
 2021SOL     OW17690   1.857   0.621  28.355
 2021SOL    HW117691   1.807   0.561  28.411
 2021SOL    HW217692   1.938   0.637  28.402
 2022SOL     OW17693   2.727   3.351  26.482
 2022SOL    HW117694   2.635   3.327  26.480
 2022SOL    HW217695   2.762   3.319  26.398
 2023SOL     OW17696   4.464   2.962  11.538
 2023SOL    HW117697   4.441   2.975  11.446
 2023SOL    HW217698   4.502   3.045  11.566
 2024SOL     OW17699   0.014   0.601   2.714
 2024SOL    HW117700   4.757   0.537   2.654
 2024SOL    HW217701   4.726   0.666   2.726
 2025SOL     OW17702   1.713   1.843   7.838
 2025SOL    HW117703   1.714   1.926   7.885
 2025SOL    HW217704   1.768   1.785   7.890
 2026SOL     OW17705   1.289   0.462   4.659
 2026SOL    HW117706   1.324   0.395   4.719
 2026SOL    HW217707   1.225   0.510   4.712
 2027SOL     OW17708   2.511   0.830  23.105
 2027SOL    HW117709   2.493   0.791  23.190
 2027SOL    HW217710   2.434   0.884  23.086
 2028SOL     OW17711   0.960   3.754   5.537
 2028SOL    HW117712   0.958   3.673   5.487
 2028SOL    HW217713   1.043   3.751   5.584
 2029SOL     OW17714   0.865   3.581  26.309
 2029SOL    HW117715   0.784   3.611  26.351
 2029SOL    HW217716   0.882   3.495  26.347
 2030SOL     OW17717   2.308   2.257  22.066
 2030SOL    HW117718   2.288   2.164  22.072
 2030SOL    HW217719   2.349   2.279  22.150
 2031SOL     OW17720   4.203   3.883  11.779
 2031SOL    HW117721   4.276   3.840  11.823
 2031SOL    HW217722   4.137   3.896  11.847
 2032SOL     OW17723   0.974   0.511   3.803
 2032SOL    HW117724   0.955   0.460   3.881
 2032SOL    HW217725   0.926   0.593   3.814
 2033SOL     OW17726   2.068   1.108  21.751
 2033SOL    HW117727   2.151   1.153  21.735
 2033SOL    HW217728   2.092   1.016  21.762
 2034SOL     OW17729   3.329   2.689   0.543
 2034SOL    HW117730   3.324   2.740   0.624
 2034SOL    HW217731   3.401   2.629   0.557
 2035SOL     OW17732   0.115   3.842   1.214
 2035SOL    HW117733   0.134   3.791   1.293
 2035SOL    HW217734   0.131   3.933   1.240
 2036SOL     OW17735   2.429   1.957  20.776
 2036SOL    HW117736   2.525   1.959  20.773
 2036SOL    HW217737   2.401   1.984  20.689
 2037SOL     OW17738   0.674   3.141   8.419
 2037SOL    HW117739   0.673   3.222   8.469
 2037SOL    HW217740   0.759   3.102   8.438
 2038SOL     OW17741   0.290   3.819  27.849
 2038SOL    HW117742   0.312   3.729  27.872
 2038SOL    HW217743   0.194   3.821  27.846
 2039SOL     OW17744   0.771   3.583  18.446
 2039SOL    HW117745   0.823   3.635  18.508
 2039SOL    HW217746   0.681   3.595  18.475
 2040SOL     OW17747   0.001   2.823  20.912
 2040SOL    HW117748   4.712   2.788  20.967
 2040SOL    HW217749   0.072   2.759  20.920
 2041SOL     OW17750   3.958   3.102  11.208
 2041SOL    HW117751   3.925   3.027  11.258
 2041SOL    HW217752   4.045   3.074  11.178
 2042SOL     OW17753   0.104   2.112  22.003
 2042SOL    HW117754   0.184   2.113  22.055
 2042SOL    HW217755   0.113   2.187  21.945
 2043SOL     OW17756   3.955   3.516   1.657
 2043SOL    HW117757   3.920   3.578   1.593
 2043SOL    HW217758   4.024   3.564   1.703
 2044SOL     OW17759   3.861   2.824   5.262
 2044SOL    HW117760   3.803   2.875   5.318
 2044SOL    HW217761   3.867   2.739   5.306
 2045SOL     OW17762   1.270   2.764  23.770
 2045SOL    HW117763   1.271   2.669  23.761
 2045SOL    HW217764   1.360   2.791  23.753
 2046SOL     OW17765   0.273   4.191  20.925
 2046SOL    HW117766   0.213   4.221  20.993
 2046SOL    HW217767   0.218   4.141  20.865
 2047SOL     OW17768   0.742   1.837  28.308
 2047SOL    HW117769   0.790   1.756  28.292
 2047SOL    HW217770   0.668   1.834  28.247
 2048SOL     OW17771   2.109   3.915  12.286
 2048SOL    HW117772   2.083   3.929  12.195
 2048SOL    HW217773   2.049   3.969  12.337
 2049SOL     OW17774   3.677   4.096   3.214
 2049SOL    HW117775   3.611   4.036   3.247
 2049SOL    HW217776   3.758   4.045   3.213
 2050SOL     OW17777   1.776   2.761  24.053
 2050SOL    HW117778   1.755   2.670  24.032
 2050SOL    HW217779   1.743   2.773  24.142
 2051SOL     OW17780   1.745   0.763   4.785
 2051SOL    HW117781   1.748   0.773   4.689
 2051SOL    HW217782   1.653   0.747   4.805
 2052SOL     OW17783   4.320   2.824   9.580
 2052SOL    HW117784   4.245   2.785   9.625
 2052SOL    HW217785   4.311   2.918   9.595
 2053SOL     OW17786   0.815   2.102  19.951
 2053SOL    HW117787   0.861   2.035  19.901
 2053SOL    HW217788   0.760   2.147  19.886
 2054SOL     OW17789   4.333   4.637  26.387
 2054SOL    HW117790   4.357   4.581  26.460
 2054SOL    HW217791   4.244   4.612  26.364
 2055SOL     OW17792   2.744   0.775   7.403
 2055SOL    HW117793   2.660   0.746   7.365
 2055SOL    HW217794   2.755   0.864   7.371
 2056SOL     OW17795   4.645   0.155   5.337
 2056SOL    HW117796   4.665   0.133   5.428
 2056SOL    HW217797   4.601   0.240   5.343
 2057SOL     OW17798   3.468   1.670   9.686
 2057SOL    HW117799   3.469   1.630   9.773
 2057SOL    HW217800   3.559   1.694   9.669
 2058SOL     OW17801   0.525   4.589   1.540
 2058SOL    HW117802   0.528   4.636   1.457
 2058SOL    HW217803   0.432   4.569   1.552
 2059SOL     OW17804   3.927   0.823   2.825
 2059SOL    HW117805   3.887   0.764   2.761
 2059SOL    HW217806   3.865   0.895   2.834
 2060SOL     OW17807   2.965   0.138  19.975
 2060SOL    HW117808   2.986   0.191  19.898
 2060SOL    HW217809   3.006   0.184  20.048
 2061SOL     OW17810   0.264   2.333  20.099
 2061SOL    HW117811   0.330   2.403  20.098
 2061SOL    HW217812   0.315   2.253  20.090
 2062SOL     OW17813   2.226   3.407   8.923
 2062SOL    HW117814   2.245   3.412   9.017
 2062SOL    HW217815   2.257   3.491   8.889
 2063SOL     OW17816   1.607   0.908   0.529
 2063SOL    HW117817   1.632   0.989   0.573
 2063SOL    HW217818   1.511   0.910   0.528
 2064SOL     OW17819   1.357   3.660   0.306
 2064SOL    HW117820   1.408   3.727   0.353
 2064SOL    HW217821   1.270   3.698   0.298
 2065SOL     OW17822   4.534   2.115   3.984
 2065SOL    HW117823   4.553   2.023   4.003
 2065SOL    HW217824   4.583   2.133   3.903
 2066SOL     OW17825   3.999   4.327   1.623
 2066SOL    HW117826   3.921   4.372   1.654
 2066SOL    HW217827   4.066   4.346   1.689
 2067SOL     OW17828   3.572   3.226  10.818
 2067SOL    HW117829   3.635   3.159  10.843
 2067SOL    HW217830   3.587   3.297  10.880
 2068SOL     OW17831   0.499   2.458  20.808
 2068SOL    HW117832   0.541   2.543  20.791
 2068SOL    HW217833   0.517   2.441  20.900
 2069SOL     OW17834   3.478   0.678   4.087
 2069SOL    HW117835   3.484   0.592   4.047
 2069SOL    HW217836   3.420   0.665   4.162
 2070SOL     OW17837   3.652   1.366  28.005
 2070SOL    HW117838   3.678   1.450  28.042
 2070SOL    HW217839   3.575   1.385  27.952
 2071SOL     OW17840   2.330   2.501   5.274
 2071SOL    HW117841   2.420   2.481   5.249
 2071SOL    HW217842   2.288   2.529   5.192
 2072SOL     OW17843   1.341   3.776   1.262
 2072SOL    HW117844   1.297   3.698   1.297
 2072SOL    HW217845   1.295   3.849   1.304
 2073SOL     OW17846   3.129   2.322   7.540
 2073SOL    HW117847   3.204   2.340   7.597
 2073SOL    HW217848   3.053   2.332   7.597
 2074SOL     OW17849   0.310   0.641  25.757
 2074SOL    HW117850   0.358   0.695  25.819
 2074SOL    HW217851   0.313   0.553  25.794
 2075SOL     OW17852   3.729   4.360  12.112
 2075SOL    HW117853   3.740   4.349  12.207
 2075SOL    HW217854   3.818   4.355  12.077
 2076SOL     OW17855   2.192   2.730  11.250
 2076SOL    HW117856   2.233   2.742  11.165
 2076SOL    HW217857   2.260   2.688  11.303
 2077SOL     OW17858   3.167   1.013  24.096
 2077SOL    HW117859   3.207   0.926  24.098
 2077SOL    HW217860   3.158   1.033  24.003
 2078SOL     OW17861   0.829   2.871  12.878
 2078SOL    HW117862   0.900   2.857  12.816
 2078SOL    HW217863   0.792   2.784  12.892
 2079SOL     OW17864   1.336   0.097   0.067
 2079SOL    HW117865   1.367   0.144  28.512
 2079SOL    HW217866   1.256   0.142   0.091
 2080SOL     OW17867   2.559   4.716  24.988
 2080SOL    HW117868   2.527   4.627  24.974
 2080SOL    HW217869   2.617   4.709  25.064
 2081SOL     OW17870   1.765   0.217   2.873
 2081SOL    HW117871   1.730   0.172   2.796
 2081SOL    HW217872   1.705   0.291   2.886
 2082SOL     OW17873   1.141   2.419   0.711
 2082SOL    HW117874   1.193   2.483   0.661
 2082SOL    HW217875   1.117   2.353   0.646
 2083SOL     OW17876   1.068   4.363  26.912
 2083SOL    HW117877   1.047   4.329  26.825
 2083SOL    HW217878   1.009   4.315  26.971
 2084SOL     OW17879   3.955   3.280  11.418
 2084SOL    HW117880   3.952   3.213  11.486
 2084SOL    HW217881   3.951   3.230  11.336
 2085SOL     OW17882   0.041   3.311  20.773
 2085SOL    HW117883   4.756   3.249  20.743
 2085SOL    HW217884   0.006   3.345  20.856
 2086SOL     OW17885   0.429   1.896  20.863
 2086SOL    HW117886   0.413   1.953  20.939
 2086SOL    HW217887   0.417   1.808  20.897
 2087SOL     OW17888   3.588   0.039  13.150
 2087SOL    HW117889   3.654   0.009  13.213
 2087SOL    HW217890   3.634   0.103  13.095
 2088SOL     OW17891   0.106   3.729  12.018
 2088SOL    HW117892   0.111   3.774  12.102
 2088SOL    HW217893   0.040   3.778  11.969
 2089SOL     OW17894   3.361   4.214  25.186
 2089SOL    HW117895   3.390   4.181  25.101
 2089SOL    HW217896   3.440   4.251  25.226
 2090SOL     OW17897   2.119   2.538  21.323
 2090SOL    HW117898   2.068   2.457  21.321
 2090SOL    HW217899   2.065   2.601  21.276
 2091SOL     OW17900   4.325   1.696  25.654
 2091SOL    HW117901   4.352   1.759  25.588
 2091SOL    HW217902   4.275   1.630  25.606
 2092SOL     OW17903   4.659   1.570  22.249
 2092SOL    HW117904   4.616   1.487  22.228
 2092SOL    HW217905   4.727   1.546  22.312
 2093SOL     OW17906   1.868   0.435  11.929
 2093SOL    HW117907   1.844   0.445  12.021
 2093SOL    HW217908   1.963   0.439  11.928
 2094SOL     OW17909   2.934   1.654   7.660
 2094SOL    HW117910   2.996   1.594   7.619
 2094SOL    HW217911   2.916   1.616   7.746
 2095SOL     OW17912   4.300   1.367  26.600
 2095SOL    HW117913   4.258   1.447  26.569
 2095SOL    HW217914   4.375   1.397  26.650
 2096SOL     OW17915   1.301   3.434  28.397
 2096SOL    HW117916   1.328   3.501  28.460
 2096SOL    HW217917   1.296   3.353  28.449
 2097SOL     OW17918   2.314   2.828  23.781
 2097SOL    HW117919   2.368   2.905  23.761
 2097SOL    HW217920   2.355   2.789  23.858
 2098SOL     OW17921   3.046   3.974  10.420
 2098SOL    HW117922   3.126   4.000  10.374
 2098SOL    HW217923   3.067   3.989  10.513
 2099SOL     OW17924   4.304   2.532  11.978
 2099SOL    HW117925   4.274   2.617  12.009
 2099SOL    HW217926   4.387   2.517  12.022
 2100SOL     OW17927   3.333   3.891   0.561
 2100SOL    HW117928   3.262   3.842   0.519
 2100SOL    HW217929   3.399   3.825   0.581
 2101SOL     OW17930   1.998   2.345   4.146
 2101SOL    HW117931   2.062   2.316   4.212
 2101SOL    HW217932   2.021   2.296   4.067
 2102SOL     OW17933   1.221   1.636  17.524
 2102SOL    HW117934   1.160   1.707  17.504
 2102SOL    HW217935   1.308   1.672  17.503
 2103SOL     OW17936   1.855   1.151   1.633
 2103SOL    HW117937   1.799   1.224   1.610
 2103SOL    HW217938   1.908   1.183   1.706
 2104SOL     OW17939   2.737   1.637  11.727
 2104SOL    HW117940   2.790   1.603  11.799
 2104SOL    HW217941   2.721   1.561  11.671
 2105SOL     OW17942   1.267   1.039   5.347
 2105SOL    HW117943   1.298   1.121   5.385
 2105SOL    HW217944   1.314   0.971   5.395
 2106SOL     OW17945   3.644   1.131   4.852
 2106SOL    HW117946   3.590   1.204   4.883
 2106SOL    HW217947   3.698   1.168   4.782
 2107SOL     OW17948   1.952   3.195   8.369
 2107SOL    HW117949   2.014   3.267   8.379
 2107SOL    HW217950   1.887   3.210   8.438
 2108SOL     OW17951   4.741   0.576   5.300
 2108SOL    HW117952   4.754   0.555   5.393
 2108SOL    HW217953   4.735   0.672   5.298
 2109SOL     OW17954   4.444   4.300  27.970
 2109SOL    HW117955   4.464   4.277  27.879
 2109SOL    HW217956   4.367   4.247  27.991
 2110SOL     OW17957   2.545   4.534  18.867
 2110SOL    HW117958   2.489   4.609  18.887
 2110SOL    HW217959   2.506   4.495  18.789
 2111SOL     OW17960   1.191   2.363   1.157
 2111SOL    HW117961   1.175   2.455   1.134
 2111SOL    HW217962   1.121   2.315   1.114
 2112SOL     OW17963   4.730   3.377   0.434
 2112SOL    HW117964   0.026   3.362   0.379
 2112SOL    HW217965   4.663   3.408   0.373
 2113SOL     OW17966   2.126   4.297   4.835
 2113SOL    HW117967   2.111   4.348   4.915
 2113SOL    HW217968   2.202   4.243   4.855
 2114SOL     OW17969   3.785   4.035  21.668
 2114SOL    HW117970   3.843   4.101  21.707
 2114SOL    HW217971   3.786   3.963  21.731
 2115SOL     OW17972   4.061   4.673  28.454
 2115SOL    HW117973   4.122   4.693  28.383
 2115SOL    HW217974   3.982   4.642  28.411
 2116SOL     OW17975   0.529   0.678  26.286
 2116SOL    HW117976   0.480   0.744  26.237
 2116SOL    HW217977   0.578   0.728  26.352
 2117SOL     OW17978   1.569   3.673   3.563
 2117SOL    HW117979   1.503   3.610   3.592
 2117SOL    HW217980   1.530   3.758   3.581
 2118SOL     OW17981   4.698   1.851  10.941
 2118SOL    HW117982   4.640   1.835  11.016
 2118SOL    HW217983   4.778   1.803  10.963
 2119SOL     OW17984   2.899   2.782  24.510
 2119SOL    HW117985   2.888   2.793  24.604
 2119SOL    HW217986   2.984   2.823  24.491
 2120SOL     OW17987   3.616   1.300  10.271
 2120SOL    HW117988   3.623   1.314  10.366
 2120SOL    HW217989   3.706   1.311  10.239
 2121SOL     OW17990   1.132   4.395   8.275
 2121SOL    HW117991   1.138   4.321   8.335
 2121SOL    HW217992   1.191   4.373   8.203
 2122SOL     OW17993   1.799   3.152   3.634
 2122SOL    HW117994   1.761   3.064   3.639
 2122SOL    HW217995   1.725   3.209   3.610
 2123SOL     OW17996   0.960   4.440   1.442
 2123SOL    HW117997   0.874   4.446   1.400
 2123SOL    HW217998   1.015   4.502   1.393
 2124SOL     OW17999   2.003   3.313   3.497
 2124SOL    HW118000   1.939   3.265   3.550
 2124SOL    HW218001   1.954   3.339   3.419
 2125SOL     OW18002   3.997   2.992  11.913
 2125SOL    HW118003   4.087   2.967  11.893
 2125SOL    HW218004   3.946   2.913  11.900
 2126SOL     OW18005   1.317   3.628  27.956
 2126SOL    HW118006   1.242   3.599  28.008
 2126SOL    HW218007   1.380   3.659  28.021
 2127SOL     OW18008   3.337   0.008  10.044
 2127SOL    HW118009   3.370   0.076  10.103
 2127SOL    HW218010   3.351   4.707  10.091
 2128SOL     OW18011   2.819   0.541   8.714
 2128SOL    HW118012   2.885   0.557   8.781
 2128SOL    HW218013   2.843   0.600   8.642
 2129SOL     OW18014   0.035   0.675  19.938
 2129SOL    HW118015   0.048   0.637  20.025
 2129SOL    HW218016   0.081   0.759  19.942
 2130SOL     OW18017   1.139   3.450  11.874
 2130SOL    HW118018   1.115   3.539  11.900
 2130SOL    HW218019   1.205   3.424  11.939
 2131SOL     OW18020   3.677   4.564   6.577
 2131SOL    HW118021   3.599   4.620   6.581
 2131SOL    HW218022   3.643   4.476   6.592
 2132SOL     OW18023   2.925   2.910  10.103
 2132SOL    HW118024   2.894   2.820  10.107
 2132SOL    HW218025   2.949   2.931  10.193
 2133SOL     OW18026   4.521   3.178   6.154
 2133SOL    HW118027   4.474   3.188   6.237
 2133SOL    HW218028   4.518   3.265   6.115
 2134SOL     OW18029   0.106   1.840   9.423
 2134SOL    HW118030   0.048   1.799   9.359
 2134SOL    HW218031   0.053   1.907   9.465
 2135SOL     OW18032   1.920   1.429   9.612
 2135SOL    HW118033   1.888   1.340   9.596
 2135SOL    HW218034   1.888   1.480   9.537
 2136SOL     OW18035   4.002   1.458   8.584
 2136SOL    HW118036   4.057   1.399   8.533
 2136SOL    HW218037   4.060   1.530   8.610
 2137SOL     OW18038   1.025   3.660  25.641
 2137SOL    HW118039   1.071   3.612  25.572
 2137SOL    HW218040   0.932   3.642  25.625
 2138SOL     OW18041   1.516   2.355  20.598
 2138SOL    HW118042   1.555   2.427  20.550
 2138SOL    HW218043   1.434   2.336  20.551
 2139SOL     OW18044   1.181   4.519   1.909
 2139SOL    HW118045   1.270   4.554   1.921
 2139SOL    HW218046   1.171   4.514   1.814
 2140SOL     OW18047   2.701   4.162  12.734
 2140SOL    HW118048   2.774   4.132  12.788
 2140SOL    HW218049   2.643   4.086  12.728
 2141SOL     OW18050   2.444   4.022  13.030
 2141SOL    HW118051   2.399   4.014  13.114
 2141SOL    HW218052   2.515   4.084  13.046
 2142SOL     OW18053   2.155   2.814  27.927
 2142SOL    HW118054   2.206   2.827  28.007
 2142SOL    HW218055   2.219   2.819  27.857
 2143SOL     OW18056   3.676   3.471  13.027
 2143SOL    HW118057   3.685   3.394  12.971
 2143SOL    HW218058   3.749   3.464  13.089
 2144SOL     OW18059   3.363   4.391  12.076
 2144SOL    HW118060   3.419   4.441  12.136
 2144SOL    HW218061   3.278   4.388  12.120
 2145SOL     OW18062   3.528   3.660  11.058
 2145SOL    HW118063   3.584   3.700  11.124
 2145SOL    HW218064   3.565   3.573  11.044
 2146SOL     OW18065   2.269   1.876  12.805
 2146SOL    HW118066   2.265   1.796  12.858
 2146SOL    HW218067   2.340   1.927  12.844
 2147SOL     OW18068   2.593   3.453  13.150
 2147SOL    HW118069   2.683   3.421  13.146
 2147SOL    HW218070   2.566   3.438  13.240
 2148SOL     OW18071   0.246   0.350  11.203
 2148SOL    HW118072   0.261   0.287  11.273
 2148SOL    HW218073   0.312   0.417  11.217
 2149SOL     OW18074   4.523   3.875   4.336
 2149SOL    HW118075   4.554   3.786   4.320
 2149SOL    HW218076   4.591   3.914   4.392
 2150SOL     OW18077   2.052   4.117  13.381
 2150SOL    HW118078   2.014   4.072  13.305
 2150SOL    HW218079   1.992   4.190  13.397
 2151SOL     OW18080   2.370   3.410  13.642
 2151SOL    HW118081   2.287   3.422  13.596
 2151SOL    HW218082   2.345   3.382  13.730
 2152SOL     OW18083   1.002   1.665  10.818
 2152SOL    HW118084   1.006   1.733  10.750
 2152SOL    HW218085   0.941   1.700  10.883
 2153SOL     OW18086   1.808   2.186  21.766
 2153SOL    HW118087   1.798   2.192  21.861
 2153SOL    HW218088   1.845   2.270  21.741
 2154SOL     OW18089   2.484   3.623  12.973
 2154SOL    HW118090   2.465   3.542  13.021
 2154SOL    HW218091   2.499   3.688  13.042
 2155SOL     OW18092   3.697   3.231  12.925
 2155SOL    HW118093   3.736   3.222  12.838
 2155SOL    HW218094   3.617   3.179  12.921
 2156SOL     OW18095   0.487   1.351  11.705
 2156SOL    HW118096   0.420   1.352  11.775
 2156SOL    HW218097   0.569   1.364  11.752
 2157SOL     OW18098   3.577   4.763  12.369
 2157SOL    HW118099   3.528   0.044  12.422
 2157SOL    HW218100   3.638   0.036  12.319
 2158SOL     OW18101   1.518   0.980  13.168
 2158SOL    HW118102   1.560   0.945  13.247
 2158SOL    HW218103   1.578   1.048  13.138
 2159SOL     OW18104   3.248   3.224  12.876
 2159SOL    HW118105   3.301   3.304  12.868
 2159SOL    HW218106   3.310   3.152  12.863
 2160SOL     OW18107   4.206   0.396  26.687
 2160SOL    HW118108   4.115   0.377  26.706
 2160SOL    HW218109   4.214   0.382  26.592
 2161SOL     OW18110   2.546   3.458  12.553
 2161SOL    HW118111   2.553   3.549  12.523
 2161SOL    HW218112   2.574   3.461  12.645
 2162SOL     OW18113   1.745   3.513  13.513
 2162SOL    HW118114   1.793   3.460  13.451
 2162SOL    HW218115   1.673   3.457  13.543
 2163SOL     OW18116   2.259   3.664  12.843
 2163SOL    HW118117   2.219   3.716  12.913
 2163SOL    HW218118   2.351   3.658  12.868
 2164SOL     OW18119   2.226   0.963  22.526
 2164SOL    HW118120   2.149   0.979  22.580
 2164SOL    HW218121   2.273   1.046  22.526
 2165SOL     OW18122   2.635   3.821  12.574
 2165SOL    HW118123   2.596   3.789  12.493
 2165SOL    HW218124   2.561   3.856  12.623
 2166SOL     OW18125   3.049   3.540  28.187
 2166SOL    HW118126   3.114   3.483  28.145
 2166SOL    HW218127   3.090   3.627  28.186
 2167SOL     OW18128   0.271   4.756   9.573
 2167SOL    HW118129   0.312   4.780   9.490
 2167SOL    HW218130   0.177   4.770   9.558
 2168SOL     OW18131   3.768   4.559  13.065
 2168SOL    HW118132   3.785   4.605  13.147
 2168SOL    HW218133   3.802   4.617  12.998
 2169SOL     OW18134   2.307   3.983  13.273
 2169SOL    HW118135   2.250   4.026  13.337
 2169SOL    HW218136   2.350   3.913  13.323
 2170SOL     OW18137   2.009   3.405  11.110
 2170SOL    HW118138   2.100   3.432  11.121
 2170SOL    HW218139   1.977   3.393  11.199
 2171SOL     OW18140   2.722   3.730  13.750
 2171SOL    HW118141   2.720   3.732  13.846
 2171SOL    HW218142   2.734   3.821  13.724
 2172SOL     OW18143   0.639   2.623   1.872
 2172SOL    HW118144   0.562   2.680   1.861
 2172SOL    HW218145   0.698   2.674   1.927
 2173SOL     OW18146   2.803   3.555  13.356
 2173SOL    HW118147   2.739   3.510  13.410
 2173SOL    HW218148   2.821   3.494  13.284
 2174SOL     OW18149   3.104   0.163  11.928
 2174SOL    HW118150   3.096   0.203  12.014
 2174SOL    HW218151   3.138   0.233  11.872
 2175SOL     OW18152   0.412   2.599  12.373
 2175SOL    HW118153   0.349   2.665  12.404
 2175SOL    HW218154   0.431   2.547  12.451
 2176SOL     OW18155   4.444   0.677   8.726
 2176SOL    HW118156   4.534   0.655   8.752
 2176SOL    HW218157   4.418   0.606   8.667
 2177SOL     OW18158   2.384   4.088  12.500
 2177SOL    HW118159   2.368   4.090  12.406
 2177SOL    HW218160   2.313   4.034  12.536
 2178SOL     OW18161   2.264   4.154  13.557
 2178SOL    HW118162   2.297   4.083  13.613
 2178SOL    HW218163   2.176   4.126  13.532
 2179SOL     OW18164   2.744   4.762  12.618
 2179SOL    HW118165   2.795   0.060  12.639
 2179SOL    HW218166   2.803   4.689  12.636
 2180SOL     OW18167   3.812   4.380  12.428
 2180SOL    HW118168   3.857   4.329  12.496
 2180SOL    HW218169   3.719   4.375  12.451
 2181SOL     OW18170   2.177   3.779  13.123
 2181SOL    HW118171   2.115   3.848  13.102
 2181SOL    HW218172   2.241   3.821  13.180
 2182SOL     OW18173   1.904   0.193  12.580
 2182SOL    HW118174   1.872   0.254  12.646
 2182SOL    HW218175   1.859   0.111  12.600
 2183SOL     OW18176   2.908   3.841  12.514
 2183SOL    HW118177   2.816   3.850  12.538
 2183SOL    HW218178   2.927   3.919  12.461
 2184SOL     OW18179   3.323   0.868  11.275
 2184SOL    HW118180   3.304   0.820  11.356
 2184SOL    HW218181   3.318   0.960  11.301
 2185SOL     OW18182   3.384   1.874   0.513
 2185SOL    HW118183   3.329   1.952   0.501
 2185SOL    HW218184   3.334   1.819   0.574
 2186SOL     OW18185   4.259   3.579  12.387
 2186SOL    HW118186   4.215   3.538  12.313
 2186SOL    HW218187   4.215   3.544  12.464
 2187SOL     OW18188   3.859   0.794   9.300
 2187SOL    HW118189   3.771   0.791   9.336
 2187SOL    HW218190   3.847   0.817   9.208
 2188SOL     OW18191   3.326   2.347   0.612
 2188SOL    HW118192   3.244   2.353   0.662
 2188SOL    HW218193   3.394   2.373   0.674
 2189SOL     OW18194   2.573   2.563  14.120
 2189SOL    HW118195   2.667   2.549  14.109
 2189SOL    HW218196   2.532   2.502  14.058
 2190SOL     OW18197   2.124   3.632  12.247
 2190SOL    HW118198   2.215   3.652  12.226
 2190SOL    HW218199   2.084   3.718  12.264
 2191SOL     OW18200   1.921   0.744  11.319
 2191SOL    HW118201   2.009   0.779  11.309
 2191SOL    HW218202   1.908   0.687  11.243
 2192SOL     OW18203   3.365   3.660  12.563
 2192SOL    HW118204   3.421   3.583  12.563
 2192SOL    HW218205   3.344   3.675  12.655
 2193SOL     OW18206   3.267   4.502  11.194
 2193SOL    HW118207   3.206   4.505  11.268
 2193SOL    HW218208   3.286   4.593  11.174
 2194SOL     OW18209   2.171   0.683  13.421
 2194SOL    HW118210   2.202   0.654  13.508
 2194SOL    HW218211   2.104   0.619  13.397
 2195SOL     OW18212   2.627   2.976   7.233
 2195SOL    HW118213   2.569   2.921   7.180
 2195SOL    HW218214   2.615   3.064   7.197
 2196SOL     OW18215   3.204   1.129   7.363
 2196SOL    HW118216   3.132   1.189   7.381
 2196SOL    HW218217   3.237   1.156   7.278
 2197SOL     OW18218   3.240   3.188  12.261
 2197SOL    HW118219   3.279   3.275  12.266
 2197SOL    HW218220   3.275   3.142  12.337
 2198SOL     OW18221   2.928   3.662  13.576
 2198SOL    HW118222   2.867   3.677  13.648
 2198SOL    HW218223   2.873   3.646  13.500
 2199SOL     OW18224   2.473   2.387  27.386
 2199SOL    HW118225   2.488   2.296  27.362
 2199SOL    HW218226   2.510   2.395  27.474
 2200SOL     OW18227   3.158   0.753  14.497
 2200SOL    HW118228   3.229   0.769  14.558
 2200SOL    HW218229   3.108   0.834  14.496
 2201SOL     OW18230   3.526   4.508  13.694
 2201SOL    HW118231   3.474   4.493  13.773
 2201SOL    HW218232   3.529   4.603  13.686
 2202SOL     OW18233   3.326   4.078  14.100
 2202SOL    HW118234   3.407   4.124  14.078
 2202SOL    HW218235   3.319   4.087  14.196
 2203SOL     OW18236   1.771   0.286  14.053
 2203SOL    HW118237   1.706   0.355  14.040
 2203SOL    HW218238   1.855   0.333  14.057
 2204SOL     OW18239   2.738   0.240  14.190
 2204SOL    HW118240   2.734   0.215  14.098
 2204SOL    HW218241   2.829   0.269  14.203
 2205SOL     OW18242   1.174   4.196  13.984
 2205SOL    HW118243   1.098   4.156  14.027
 2205SOL    HW218244   1.135   4.252  13.915
 2206SOL     OW18245   2.500   4.427  14.268
 2206SOL    HW118246   2.437   4.367  14.228
 2206SOL    HW218247   2.447   4.485  14.323
 2207SOL     OW18248   2.769   3.625  12.385
 2207SOL    HW118249   2.813   3.692  12.437
 2207SOL    HW218250   2.676   3.643  12.396
 2208SOL     OW18251   2.259   3.848  13.997
 2208SOL    HW118252   2.227   3.897  14.073
 2208SOL    HW218253   2.331   3.796  14.030
 2209SOL     OW18254   3.732   3.844  14.056
 2209SOL    HW118255   3.711   3.884  13.971
 2209SOL    HW218256   3.699   3.906  14.121
 2210SOL     OW18257   2.799   3.545  14.196
 2210SOL    HW118258   2.831   3.479  14.134
 2210SOL    HW218259   2.746   3.496  14.259
 2211SOL     OW18260   2.132   3.618  13.928
 2211SOL    HW118261   2.185   3.696  13.947
 2211SOL    HW218262   2.044   3.652  13.911
 2212SOL     OW18263   1.913   1.707  14.335
 2212SOL    HW118264   2.001   1.720  14.301
 2212SOL    HW218265   1.886   1.621  14.301
 2213SOL     OW18266   2.273   0.368  14.218
 2213SOL    HW118267   2.190   0.347  14.261
 2213SOL    HW218268   2.275   0.464  14.214
 2214SOL     OW18269   2.381   0.829  13.281
 2214SOL    HW118270   2.328   0.771  13.336
 2214SOL    HW218271   2.468   0.827  13.322
 2215SOL     OW18272   2.724   0.728  14.581
 2215SOL    HW118273   2.713   0.666  14.653
 2215SOL    HW218274   2.763   0.675  14.511
 2216SOL     OW18275   4.115   0.172  12.834
 2216SOL    HW118276   4.072   0.192  12.751
 2216SOL    HW218277   4.123   0.256  12.879
 2217SOL     OW18278   2.493   3.696  12.383
 2217SOL    HW118279   2.413   3.677  12.431
 2217SOL    HW218280   2.464   3.715  12.294
 2218SOL     OW18281   3.802   3.462  14.965
 2218SOL    HW118282   3.846   3.377  14.962
 2218SOL    HW218283   3.755   3.467  14.882
 2219SOL     OW18284   3.197   4.403  14.135
 2219SOL    HW118285   3.106   4.382  14.111
 2219SOL    HW218286   3.226   4.326  14.184
 2220SOL     OW18287   2.986   3.093  12.251
 2220SOL    HW118288   3.077   3.114  12.230
 2220SOL    HW218289   2.983   3.092  12.347
 2221SOL     OW18290   4.144   4.691  12.386
 2221SOL    HW118291   4.101   4.616  12.345
 2221SOL    HW218292   4.198   4.653  12.455
 2222SOL     OW18293   0.949   4.090  14.107
 2222SOL    HW118294   0.896   4.117  14.181
 2222SOL    HW218295   0.888   4.086  14.033
 2223SOL     OW18296   1.982   2.807  14.418
 2223SOL    HW118297   2.008   2.887  14.463
 2223SOL    HW218298   2.033   2.807  14.338
 2224SOL     OW18299   3.196   0.138  14.364
 2224SOL    HW118300   3.236   0.156  14.279
 2224SOL    HW218301   3.102   0.132  14.346
 2225SOL     OW18302   4.076   3.925  13.037
 2225SOL    HW118303   4.042   3.927  13.127
 2225SOL    HW218304   4.109   3.836  13.027
 2226SOL     OW18305   0.217   0.495  13.512
 2226SOL    HW118306   0.197   0.517  13.603
 2226SOL    HW218307   0.312   0.494  13.509
 2227SOL     OW18308   2.477   3.698  14.083
 2227SOL    HW118309   2.563   3.735  14.066
 2227SOL    HW218310   2.492   3.604  14.092
 2228SOL     OW18311   2.454   3.928  12.776
 2228SOL    HW118312   2.466   3.941  12.870
 2228SOL    HW218313   2.374   3.977  12.756
 2229SOL     OW18314   2.683   4.717  13.974
 2229SOL    HW118315   2.670   0.030  13.979
 2229SOL    HW218316   2.606   4.684  13.928
 2230SOL     OW18317   3.242   4.742  14.578
 2230SOL    HW118318   3.211   0.006  14.499
 2230SOL    HW218319   3.248   4.650  14.552
 2231SOL     OW18320   3.552   4.242  14.015
 2231SOL    HW118321   3.494   4.309  13.978
 2231SOL    HW218322   3.622   4.233  13.950
 2232SOL     OW18323   4.019   4.138  12.867
 2232SOL    HW118324   4.098   4.186  12.891
 2232SOL    HW218325   4.014   4.067  12.932
 2233SOL     OW18326   3.420   3.544  13.662
 2233SOL    HW118327   3.443   3.567  13.752
 2233SOL    HW218328   3.333   3.583  13.649
 2234SOL     OW18329   1.558   4.173  14.870
 2234SOL    HW118330   1.491   4.224  14.916
 2234SOL    HW218331   1.539   4.082  14.894
 2235SOL     OW18332   2.506   3.086  14.270
 2235SOL    HW118333   2.421   3.085  14.225
 2235SOL    HW218334   2.535   2.994  14.268
 2236SOL     OW18335   3.507   4.181  14.450
 2236SOL    HW118336   3.440   4.123  14.415
 2236SOL    HW218337   3.503   4.169  14.545
 2237SOL     OW18338   3.973   3.737  13.817
 2237SOL    HW118339   3.958   3.683  13.895
 2237SOL    HW218340   3.911   3.809  13.826
 2238SOL     OW18341   3.746   3.994  13.839
 2238SOL    HW118342   3.697   3.971  13.761
 2238SOL    HW218343   3.746   4.089  13.841
 2239SOL     OW18344   3.183   3.657  13.683
 2239SOL    HW118345   3.173   3.684  13.774
 2239SOL    HW218346   3.094   3.661  13.647
 2240SOL     OW18347   2.187   4.294  14.342
 2240SOL    HW118348   2.235   4.247  14.274
 2240SOL    HW218349   2.253   4.319  14.406
 2241SOL     OW18350   2.237   2.596  14.460
 2241SOL    HW118351   2.314   2.541  14.445
 2241SOL    HW218352   2.175   2.570  14.393
 2242SOL     OW18353   2.981   3.986  13.668
 2242SOL    HW118354   2.889   4.009  13.653
 2242SOL    HW218355   3.029   4.034  13.600
 2243SOL     OW18356   1.952   1.350   2.579
 2243SOL    HW118357   1.917   1.382   2.496
 2243SOL    HW218358   1.930   1.257   2.580
 2244SOL     OW18359   2.129   0.776  14.099
 2244SOL    HW118360   2.158   0.703  14.153
 2244SOL    HW218361   2.209   0.811  14.060
 2245SOL     OW18362   2.595   3.726  14.842
 2245SOL    HW118363   2.632   3.752  14.926
 2245SOL    HW218364   2.650   3.769  14.777
 2246SOL     OW18365   2.512   3.427  14.042
 2246SOL    HW118366   2.541   3.377  14.118
 2246SOL    HW218367   2.575   3.405  13.973
 2247SOL     OW18368   2.568   3.791  13.167
 2247SOL    HW118369   2.537   3.871  13.124
 2247SOL    HW218370   2.625   3.822  13.237
 2248SOL     OW18371   3.636   0.264  14.228
 2248SOL    HW118372   3.558   0.235  14.276
 2248SOL    HW218373   3.602   0.322  14.160
 2249SOL     OW18374   2.640   3.468  12.799
 2249SOL    HW118375   2.585   3.511  12.864
 2249SOL    HW218376   2.729   3.498  12.820
 2250SOL     OW18377   2.808   4.616  14.950
 2250SOL    HW118378   2.860   4.696  14.961
 2250SOL    HW218379   2.855   4.550  15.000
 2251SOL     OW18380   3.528   4.345  12.468
 2251SOL    HW118381   3.434   4.328  12.471
 2251SOL    HW218382   3.562   4.304  12.548
 2252SOL     OW18383   3.942   4.132  11.307
 2252SOL    HW118384   3.883   4.204  11.287
 2252SOL    HW218385   3.928   4.114  11.401
 2253SOL     OW18386   2.035   4.510  14.268
 2253SOL    HW118387   1.983   4.495  14.189
 2253SOL    HW218388   2.054   4.422  14.301
 2254SOL     OW18389   2.184   3.952  12.620
 2254SOL    HW118390   2.223   3.866  12.609
 2254SOL    HW218391   2.107   3.952  12.563
 2255SOL     OW18392   2.288   3.138  14.105
 2255SOL    HW118393   2.317   3.223  14.072
 2255SOL    HW218394   2.193   3.140  14.093
 2256SOL     OW18395   3.377   4.424  13.905
 2256SOL    HW118396   3.326   4.402  13.983
 2256SOL    HW218397   3.312   4.438  13.837
 2257SOL     OW18398   2.286   3.377  13.918
 2257SOL    HW118399   2.222   3.447  13.932
 2257SOL    HW218400   2.363   3.406  13.967
 2258SOL     OW18401   3.396   3.794  14.101
 2258SOL    HW118402   3.377   3.771  14.192
 2258SOL    HW218403   3.371   3.886  14.094
 2259SOL     OW18404   2.393   0.765  13.985
 2259SOL    HW118405   2.439   0.771  14.068
 2259SOL    HW218406   2.444   0.702  13.934
 2260SOL     OW18407   3.387   3.753  12.833
 2260SOL    HW118408   3.328   3.808  12.884
 2260SOL    HW218409   3.433   3.815  12.776
 2261SOL     OW18410   3.668   4.139  14.247
 2261SOL    HW118411   3.624   4.163  14.166
 2261SOL    HW218412   3.610   4.170  14.317
 2262SOL     OW18413   1.871   0.094  14.247
 2262SOL    HW118414   1.829   0.155  14.186
 2262SOL    HW218415   1.948   0.141  14.279
 2263SOL     OW18416   3.143   3.659  14.275
 2263SOL    HW118417   3.101   3.636  14.359
 2263SOL    HW218418   3.129   3.581  14.221
 2264SOL     OW18419   4.180   3.728  13.654
 2264SOL    HW118420   4.257   3.748  13.709
 2264SOL    HW218421   4.105   3.749  13.709
 2265SOL     OW18422   2.576   3.391  13.420
 2265SOL    HW118423   2.581   3.299  13.448
 2265SOL    HW218424   2.515   3.431  13.482
 2266SOL     OW18425   2.085   1.118  13.203
 2266SOL    HW118426   2.166   1.117  13.254
 2266SOL    HW218427   2.040   1.038  13.230
 2267SOL     OW18428   1.832   3.130  15.590
 2267SOL    HW118429   1.780   3.057  15.622
 2267SOL    HW218430   1.919   3.092  15.575
 2268SOL     OW18431   4.619   2.232  14.729
 2268SOL    HW118432   4.632   2.264  14.639
 2268SOL    HW218433   4.579   2.306  14.775
 2269SOL     OW18434   1.605   4.470  15.196
 2269SOL    HW118435   1.694   4.449  15.168
 2269SOL    HW218436   1.616   4.531  15.269
 2270SOL     OW18437   3.000   3.671  15.825
 2270SOL    HW118438   3.063   3.690  15.895
 2270SOL    HW218439   2.925   3.632  15.870
 2271SOL     OW18440   2.578   0.067  15.085
 2271SOL    HW118441   2.511   0.126  15.050
 2271SOL    HW218442   2.621   0.031  15.008
 2272SOL     OW18443   2.356   4.437  15.767
 2272SOL    HW118444   2.351   4.453  15.673
 2272SOL    HW218445   2.268   4.458  15.799
 2273SOL     OW18446   1.732   3.291  15.397
 2273SOL    HW118447   1.787   3.247  15.462
 2273SOL    HW218448   1.754   3.248  15.314
 2274SOL     OW18449   2.131   4.461  15.922
 2274SOL    HW118450   2.163   4.438  16.009
 2274SOL    HW218451   2.043   4.423  15.918
 2275SOL     OW18452   0.124   0.249  14.764
 2275SOL    HW118453   0.047   0.245  14.821
 2275SOL    HW218454   0.092   0.221  14.678
 2276SOL     OW18455   1.947   0.521  15.324
 2276SOL    HW118456   1.897   0.486  15.398
 2276SOL    HW218457   1.912   0.476  15.248
 2277SOL     OW18458   2.504   4.632  15.923
 2277SOL    HW118459   2.433   4.678  15.966
 2277SOL    HW218460   2.461   4.566  15.868
 2278SOL     OW18461   1.782   3.561  15.888
 2278SOL    HW118462   1.814   3.645  15.855
 2278SOL    HW218463   1.804   3.499  15.818
 2279SOL     OW18464   4.523   2.327  15.877
 2279SOL    HW118465   4.542   2.241  15.916
 2279SOL    HW218466   4.511   2.308  15.783
 2280SOL     OW18467   3.453   4.203  16.199
 2280SOL    HW118468   3.484   4.137  16.137
 2280SOL    HW218469   3.512   4.278  16.185
 2281SOL     OW18470   2.610   0.072  14.821
 2281SOL    HW118471   2.670   0.143  14.800
 2281SOL    HW218472   2.581   0.039  14.736
 2282SOL     OW18473   2.361   4.063  14.966
 2282SOL    HW118474   2.355   3.991  14.903
 2282SOL    HW218475   2.308   4.033  15.040
 2283SOL     OW18476   3.225   0.042  15.706
 2283SOL    HW118477   3.132   0.019  15.713
 2283SOL    HW218478   3.229   0.134  15.732
 2284SOL     OW18479   2.465   3.175  16.018
 2284SOL    HW118480   2.379   3.134  16.015
 2284SOL    HW218481   2.527   3.102  16.009
 2285SOL     OW18482   2.463   3.913  16.294
 2285SOL    HW118483   2.494   3.999  16.264
 2285SOL    HW218484   2.450   3.863  16.213
 2286SOL     OW18485   3.516   4.022  15.986
 2286SOL    HW118486   3.550   3.933  15.979
 2286SOL    HW218487   3.585   4.077  15.949
 2287SOL     OW18488   3.444   4.326  16.454
 2287SOL    HW118489   3.437   4.282  16.369
 2287SOL    HW218490   3.425   4.418  16.436
 2288SOL     OW18491   3.012   4.219  17.419
 2288SOL    HW118492   2.949   4.268  17.367
 2288SOL    HW218493   3.097   4.242  17.382
 2289SOL     OW18494   2.625   4.105  15.846
 2289SOL    HW118495   2.572   4.167  15.895
 2289SOL    HW218496   2.705   4.153  15.824
 2290SOL     OW18497   4.126   3.423  15.871
 2290SOL    HW118498   4.035   3.424  15.843
 2290SOL    HW218499   4.130   3.483  15.945
 2291SOL     OW18500   2.200   0.416  15.460
 2291SOL    HW118501   2.162   0.482  15.518
 2291SOL    HW218502   2.125   0.373  15.419
 2292SOL     OW18503   2.317   0.121  15.307
 2292SOL    HW118504   2.384   0.187  15.288
 2292SOL    HW218505   2.354   0.039  15.273
 2293SOL     OW18506   2.091   0.270  15.067
 2293SOL    HW118507   2.103   0.217  15.145
 2293SOL    HW218508   2.005   0.310  15.078
 2294SOL     OW18509   2.151   1.319  15.468
 2294SOL    HW118510   2.239   1.339  15.436
 2294SOL    HW218511   2.118   1.401  15.503
 2295SOL     OW18512   3.946   0.276  16.624
 2295SOL    HW118513   3.922   0.358  16.666
 2295SOL    HW218514   3.873   0.257  16.565
 2296SOL     OW18515   4.114   3.540  14.891
 2296SOL    HW118516   4.208   3.551  14.900
 2296SOL    HW218517   4.098   3.448  14.914
 2297SOL     OW18518   2.268   4.344  16.151
 2297SOL    HW118519   2.310   4.352  16.237
 2297SOL    HW218520   2.179   4.312  16.171
 2298SOL     OW18521   2.945   4.768  15.802
 2298SOL    HW118522   2.959   0.012  15.893
 2298SOL    HW218523   2.864   4.717  15.802
 2299SOL     OW18524   3.940   1.382  16.282
 2299SOL    HW118525   3.888   1.345  16.353
 2299SOL    HW218526   3.884   1.377  16.205
 2300SOL     OW18527   1.445   4.397  14.984
 2300SOL    HW118528   1.479   4.446  14.909
 2300SOL    HW218529   1.505   4.418  15.055
 2301SOL     OW18530   2.794   0.295  15.825
 2301SOL    HW118531   2.710   0.316  15.785
 2301SOL    HW218532   2.786   0.202  15.849
 2302SOL     OW18533   2.270   4.775  15.562
 2302SOL    HW118534   2.271   0.062  15.495
 2302SOL    HW218535   2.361   4.761  15.585
 2303SOL     OW18536   1.032   0.278  17.311
 2303SOL    HW118537   0.959   0.216  17.301
 2303SOL    HW218538   1.044   0.316  17.224
 2304SOL     OW18539   2.303   4.739  16.038
 2304SOL    HW118540   2.272   4.766  16.125
 2304SOL    HW218541   2.266   0.023  15.978
 2305SOL     OW18542   2.357   3.861  14.782
 2305SOL    HW118543   2.319   3.802  14.716
 2305SOL    HW218544   2.447   3.828  14.793
 2306SOL     OW18545   2.033   4.489  16.306
 2306SOL    HW118546   2.040   4.396  16.331
 2306SOL    HW218547   2.097   4.533  16.363
 2307SOL     OW18548   4.080   3.604  16.072
 2307SOL    HW118549   4.135   3.678  16.099
 2307SOL    HW218550   4.106   3.533  16.131
 2308SOL     OW18551   1.873   1.116  15.828
 2308SOL    HW118552   1.791   1.116  15.778
 2308SOL    HW218553   1.935   1.069  15.771
 2309SOL     OW18554   0.730   4.702  15.844
 2309SOL    HW118555   0.691   4.684  15.759
 2309SOL    HW218556   0.822   4.718  15.826
 2310SOL     OW18557   4.356   2.402  17.941
 2310SOL    HW118558   4.415   2.472  17.967
 2310SOL    HW218559   4.353   2.343  18.016
 2311SOL     OW18560   2.523   3.444  16.004
 2311SOL    HW118561   2.490   3.359  16.031
 2311SOL    HW218562   2.618   3.436  16.007
 2312SOL     OW18563   2.979   3.239  16.322
 2312SOL    HW118564   2.997   3.176  16.392
 2312SOL    HW218565   2.906   3.292  16.355
 2313SOL     OW18566   2.579   4.546  14.823
 2313SOL    HW118567   2.585   4.603  14.746
 2313SOL    HW218568   2.664   4.555  14.866
 2314SOL     OW18569   1.885   4.396  15.248
 2314SOL    HW118570   1.914   4.339  15.319
 2314SOL    HW218571   1.956   4.394  15.184
 2315SOL     OW18572   2.043   0.142  15.350
 2315SOL    HW118573   2.138   0.156  15.345
 2315SOL    HW218574   2.032   0.048  15.339
 2316SOL     OW18575   3.131   3.261  16.860
 2316SOL    HW118576   3.094   3.193  16.916
 2316SOL    HW218577   3.182   3.316  16.919
 2317SOL     OW18578   2.780   3.877  16.080
 2317SOL    HW118579   2.744   3.873  16.169
 2317SOL    HW218580   2.703   3.876  16.023
 2318SOL     OW18581   4.227   3.344  15.643
 2318SOL    HW118582   4.238   3.432  15.605
 2318SOL    HW218583   4.174   3.359  15.721
 2319SOL     OW18584   3.145   4.174  16.228
 2319SOL    HW118585   3.238   4.187  16.211
 2319SOL    HW218586   3.126   4.086  16.193
 2320SOL     OW18587   0.936   0.598   1.439
 2320SOL    HW118588   0.998   0.576   1.370
 2320SOL    HW218589   0.853   0.611   1.394
 2321SOL     OW18590   4.724   1.399  16.468
 2321SOL    HW118591   4.713   1.436  16.380
 2321SOL    HW218592   4.638   1.366  16.491
 2322SOL     OW18593   1.639   2.860  18.218
 2322SOL    HW118594   1.717   2.901  18.180
 2322SOL    HW218595   1.566   2.905  18.176
 2323SOL     OW18596   2.167   3.348  15.302
 2323SOL    HW118597   2.177   3.261  15.263
 2323SOL    HW218598   2.254   3.367  15.339
 2324SOL     OW18599   0.912   4.555  16.894
 2324SOL    HW118600   0.956   4.515  16.820
 2324SOL    HW218601   0.952   4.642  16.901
 2325SOL     OW18602   3.504   0.230  17.396
 2325SOL    HW118603   3.509   0.279  17.477
 2325SOL    HW218604   3.493   0.296  17.328
 2326SOL     OW18605   3.548   3.659  15.188
 2326SOL    HW118606   3.508   3.611  15.116
 2326SOL    HW218607   3.624   3.703  15.150
 2327SOL     OW18608   2.940   4.758  18.152
 2327SOL    HW118609   2.921   4.665  18.137
 2327SOL    HW218610   2.925   4.770  18.246
 2328SOL     OW18611   0.390   0.089  21.402
 2328SOL    HW118612   0.398   4.778  21.426
 2328SOL    HW218613   0.310   0.093  21.349
 2329SOL     OW18614   4.683   2.350   0.729
 2329SOL    HW118615   4.704   2.328   0.820
 2329SOL    HW218616   4.750   2.304   0.678
 2330SOL     OW18617   4.366   2.200  19.445
 2330SOL    HW118618   4.324   2.117  19.422
 2330SOL    HW218619   4.391   2.190  19.537
 2331SOL     OW18620   2.898   4.596  17.014
 2331SOL    HW118621   2.808   4.566  16.998
 2331SOL    HW218622   2.888   4.666  17.079
 2332SOL     OW18623   0.528   4.118  20.542
 2332SOL    HW118624   0.523   4.150  20.632
 2332SOL    HW218625   0.547   4.196  20.490
 2333SOL     OW18626   0.657   0.140  16.032
 2333SOL    HW118627   0.644   0.191  15.952
 2333SOL    HW218628   0.687   0.054  16.001
 2334SOL     OW18629   3.142   4.454  16.985
 2334SOL    HW118630   3.092   4.373  16.978
 2334SOL    HW218631   3.080   4.518  17.022
 2335SOL     OW18632   1.448   1.273  16.339
 2335SOL    HW118633   1.379   1.231  16.287
 2335SOL    HW218634   1.419   1.261  16.430
 2336SOL     OW18635   1.555   3.354  14.748
 2336SOL    HW118636   1.490   3.409  14.704
 2336SOL    HW218637   1.517   3.266  14.747
 2337SOL     OW18638   3.093   2.894  25.295
 2337SOL    HW118639   3.122   2.968  25.243
 2337SOL    HW218640   3.169   2.870  25.348
 2338SOL     OW18641   3.426   4.713  16.630
 2338SOL    HW118642   3.494   4.773  16.599
 2338SOL    HW218643   3.469   4.627  16.632
 2339SOL     OW18644   1.907   0.343  16.892
 2339SOL    HW118645   1.849   0.322  16.965
 2339SOL    HW218646   1.989   0.298  16.913
 2340SOL     OW18647   3.340   3.933  15.792
 2340SOL    HW118648   3.397   3.920  15.716
 2340SOL    HW218649   3.395   3.979  15.855
 2341SOL     OW18650   0.952   2.776  23.574
 2341SOL    HW118651   1.034   2.792  23.528
 2341SOL    HW218652   0.953   2.838  23.647
 2342SOL     OW18653   4.101   2.151   9.415
 2342SOL    HW118654   4.097   2.195   9.330
 2342SOL    HW218655   4.034   2.196   9.467
 2343SOL     OW18656   2.867   4.258  17.673
 2343SOL    HW118657   2.949   4.239  17.718
 2343SOL    HW218658   2.893   4.281  17.584
 2344SOL     OW18659   3.856   0.811  15.833
 2344SOL    HW118660   3.864   0.858  15.750
 2344SOL    HW218661   3.763   0.788  15.838
 2345SOL     OW18662   4.302   1.280  17.144
 2345SOL    HW118663   4.364   1.210  17.126
 2345SOL    HW218664   4.217   1.246  17.117
 2346SOL     OW18665   0.686   1.058  16.965
 2346SOL    HW118666   0.678   1.066  16.870
 2346SOL    HW218667   0.631   1.129  16.999
 2347SOL     OW18668   3.750   0.506  16.693
 2347SOL    HW118669   3.717   0.544  16.612
 2347SOL    HW218670   3.808   0.573  16.728
 2348SOL     OW18671   3.635   4.698  18.248
 2348SOL    HW118672   3.546   4.703  18.216
 2348SOL    HW218673   3.672   0.004  18.231
 2349SOL     OW18674   2.835   0.128  17.433
 2349SOL    HW118675   2.751   0.173  17.446
 2349SOL    HW218676   2.889   0.156  17.507
 2350SOL     OW18677   1.979   3.506   1.231
 2350SOL    HW118678   1.907   3.568   1.244
 2350SOL    HW218679   1.974   3.448   1.307
 2351SOL     OW18680   2.877   0.058  16.856
 2351SOL    HW118681   2.903   0.107  16.778
 2351SOL    HW218682   2.952   0.065  16.915
 2352SOL     OW18683   2.561   3.857  15.914
 2352SOL    HW118684   2.545   3.943  15.874
 2352SOL    HW218685   2.539   3.794  15.845
 2353SOL     OW18686   1.521   1.479  18.326
 2353SOL    HW118687   1.520   1.426  18.246
 2353SOL    HW218688   1.441   1.532  18.320
 2354SOL     OW18689   3.773   0.737  18.718
 2354SOL    HW118690   3.695   0.687  18.739
 2354SOL    HW218691   3.825   0.679  18.662
 2355SOL     OW18692   0.825   1.898  16.715
 2355SOL    HW118693   0.915   1.890  16.746
 2355SOL    HW218694   0.832   1.886  16.620
 2356SOL     OW18695   3.306   3.435  16.972
 2356SOL    HW118696   3.397   3.441  16.946
 2356SOL    HW218697   3.307   3.449  17.067
 2357SOL     OW18698   2.708   3.867  16.385
 2357SOL    HW118699   2.757   3.947  16.370
 2357SOL    HW218700   2.619   3.888  16.358
 2358SOL     OW18701   1.335   0.463   0.531
 2358SOL    HW118702   1.308   0.552   0.553
 2358SOL    HW218703   1.420   0.474   0.487
 2359SOL     OW18704   2.208   3.663  17.000
 2359SOL    HW118705   2.282   3.721  16.982
 2359SOL    HW218706   2.160   3.659  16.917
 2360SOL     OW18707   2.572   4.776  15.586
 2360SOL    HW118708   2.624   0.044  15.523
 2360SOL    HW218709   2.581   4.684  15.559
 2361SOL     OW18710   3.339   3.938  27.996
 2361SOL    HW118711   3.421   3.981  27.972
 2361SOL    HW218712   3.347   3.850  27.959
 2362SOL     OW18713   0.138   2.491  17.163
 2362SOL    HW118714   0.187   2.564  17.200
 2362SOL    HW218715   0.164   2.489  17.071
 2363SOL     OW18716   4.343   3.686  17.796
 2363SOL    HW118717   4.378   3.774  17.812
 2363SOL    HW218718   4.257   3.702  17.757
 2364SOL     OW18719   1.267   2.700   5.656
 2364SOL    HW118720   1.258   2.677   5.563
 2364SOL    HW218721   1.359   2.681   5.676
 2365SOL     OW18722   3.485   3.572  16.631
 2365SOL    HW118723   3.537   3.542  16.557
 2365SOL    HW218724   3.398   3.590  16.594
 2366SOL     OW18725   3.750   4.455  17.561
 2366SOL    HW118726   3.770   4.361  17.561
 2366SOL    HW218727   3.799   4.490  17.635
 2367SOL     OW18728   1.820   3.383  15.671
 2367SOL    HW118729   1.884   3.413  15.607
 2367SOL    HW218730   1.816   3.288  15.658
 2368SOL     OW18731   3.524   1.578   7.048
 2368SOL    HW118732   3.518   1.516   7.120
 2368SOL    HW218733   3.515   1.664   7.089
 2369SOL     OW18734   2.420   3.695  16.099
 2369SOL    HW118735   2.452   3.759  16.035
 2369SOL    HW218736   2.442   3.610  16.060
 2370SOL     OW18737   2.380   1.776  15.221
 2370SOL    HW118738   2.362   1.807  15.132
 2370SOL    HW218739   2.420   1.851  15.265
 2371SOL     OW18740   4.646   2.819  16.495
 2371SOL    HW118741   4.587   2.791  16.424
 2371SOL    HW218742   4.733   2.796  16.464
 2372SOL     OW18743   2.657   3.549  18.507
 2372SOL    HW118744   2.572   3.579  18.477
 2372SOL    HW218745   2.682   3.479  18.447
 2373SOL     OW18746   1.596   3.882  17.717
 2373SOL    HW118747   1.524   3.823  17.737
 2373SOL    HW218748   1.659   3.828  17.670
 2374SOL     OW18749   4.427   2.724   2.067
 2374SOL    HW118750   4.411   2.635   2.099
 2374SOL    HW218751   4.490   2.761   2.128
 2375SOL     OW18752   3.831   1.114  15.930
 2375SOL    HW118753   3.828   1.124  15.835
 2375SOL    HW218754   3.839   1.204  15.963
 2376SOL     OW18755   4.339   3.689  15.826
 2376SOL    HW118756   4.291   3.771  15.830
 2376SOL    HW218757   4.329   3.660  15.735
 2377SOL     OW18758   2.234   4.264  16.966
 2377SOL    HW118759   2.162   4.292  17.022
 2377SOL    HW218760   2.200   4.272  16.877
 2378SOL     OW18761   3.687   2.881  19.207
 2378SOL    HW118762   3.691   2.816  19.138
 2378SOL    HW218763   3.661   2.833  19.285
 2379SOL     OW18764   3.247   0.391   9.278
 2379SOL    HW118765   3.261   0.297   9.268
 2379SOL    HW218766   3.303   0.416   9.352
 2380SOL     OW18767   2.450   1.834  22.559
 2380SOL    HW118768   2.539   1.867  22.553
 2380SOL    HW218769   2.445   1.764  22.494
 2381SOL     OW18770   3.640   0.949  16.046
 2381SOL    HW118771   3.714   0.994  16.005
 2381SOL    HW218772   3.607   0.891  15.977
 2382SOL     OW18773   2.625   0.058  18.905
 2382SOL    HW118774   2.660   0.137  18.863
 2382SOL    HW218775   2.693   4.773  18.893
 2383SOL     OW18776   0.242   2.815  18.144
 2383SOL    HW118777   0.217   2.902  18.115
 2383SOL    HW218778   0.319   2.828  18.199
 2384SOL     OW18779   3.746   3.372   7.606
 2384SOL    HW118780   3.767   3.344   7.695
 2384SOL    HW218781   3.759   3.294   7.552
 2385SOL     OW18782   4.019   2.046  18.500
 2385SOL    HW118783   4.067   2.001  18.430
 2385SOL    HW218784   4.059   2.014  18.581
 2386SOL     OW18785   1.884   0.003  18.205
 2386SOL    HW118786   1.801   4.746  18.230
 2386SOL    HW218787   1.861   0.081  18.155
 2387SOL     OW18788   3.095   4.162  17.789
 2387SOL    HW118789   3.187   4.175  17.811
 2387SOL    HW218790   3.097   4.095  17.720
 2388SOL     OW18791   0.368   3.008  16.695
 2388SOL    HW118792   0.328   3.093  16.677
 2388SOL    HW218793   0.458   3.016  16.663
 2389SOL     OW18794   0.169   4.272  18.746
 2389SOL    HW118795   0.168   4.273  18.842
 2389SOL    HW218796   0.156   4.180  18.723
 2390SOL     OW18797   2.871   1.908   4.395
 2390SOL    HW118798   2.885   1.937   4.486
 2390SOL    HW218799   2.883   1.813   4.398
 2391SOL     OW18800   1.163   0.675  17.086
 2391SOL    HW118801   1.102   0.602  17.079
 2391SOL    HW218802   1.108   0.752  17.101
 2392SOL     OW18803   3.646   0.043  17.238
 2392SOL    HW118804   3.595   0.109  17.287
 2392SOL    HW218805   3.687   4.771  17.306
 2393SOL     OW18806   0.974   2.569   4.484
 2393SOL    HW118807   0.968   2.509   4.559
 2393SOL    HW218808   1.012   2.516   4.414
 2394SOL     OW18809   3.665   3.807  15.936
 2394SOL    HW118810   3.743   3.825  15.883
 2394SOL    HW218811   3.693   3.741  15.999
 2395SOL     OW18812   1.292   4.466  17.518
 2395SOL    HW118813   1.234   4.535  17.549
 2395SOL    HW218814   1.380   4.496  17.540
 2396SOL     OW18815   2.657   1.103  17.111
 2396SOL    HW118816   2.586   1.043  17.086
 2396SOL    HW218817   2.736   1.061  17.077
 2397SOL     OW18818   0.275   4.700   2.660
 2397SOL    HW118819   0.292   4.671   2.750
 2397SOL    HW218820   0.338   4.652   2.607
 2398SOL     OW18821   4.699   2.103  26.743
 2398SOL    HW118822   4.669   2.132  26.829
 2398SOL    HW218823   4.619   2.082  26.696
 2399SOL     OW18824   2.664   2.631   6.398
 2399SOL    HW118825   2.661   2.722   6.426
 2399SOL    HW218826   2.626   2.632   6.310
 2400SOL     OW18827   4.147   1.023   5.942
 2400SOL    HW118828   4.090   0.973   6.001
 2400SOL    HW218829   4.098   1.103   5.924
 2401SOL     OW18830   1.179   3.544  25.438
 2401SOL    HW118831   1.178   3.476  25.372
 2401SOL    HW218832   1.121   3.612  25.404
 2402SOL     OW18833   0.105   3.298  21.357
 2402SOL    HW118834   0.184   3.296  21.410
 2402SOL    HW218835   0.118   3.372  21.297
 2403SOL     OW18836   2.127   4.751  17.222
 2403SOL    HW118837   2.109   4.750  17.316
 2403SOL    HW218838   2.084   0.050  17.190
 2404SOL     OW18839   1.719   0.109   7.118
 2404SOL    HW118840   1.754   0.130   7.032
 2404SOL    HW218841   1.732   0.188   7.170
 2405SOL     OW18842   1.544   3.742   7.727
 2405SOL    HW118843   1.525   3.775   7.639
 2405SOL    HW218844   1.468   3.689   7.750
 2406SOL     OW18845   2.631   3.026   5.538
 2406SOL    HW118846   2.587   2.975   5.470
 2406SOL    HW218847   2.560   3.069   5.586
 2407SOL     OW18848   0.184   3.769   2.972
 2407SOL    HW118849   0.146   3.809   3.050
 2407SOL    HW218850   0.255   3.829   2.946
 2408SOL     OW18851   3.490   0.755  21.978
 2408SOL    HW118852   3.421   0.708  21.931
 2408SOL    HW218853   3.478   0.847  21.953
 2409SOL     OW18854   2.549   3.255   8.218
 2409SOL    HW118855   2.538   3.287   8.307
 2409SOL    HW218856   2.634   3.289   8.190
 2410SOL     OW18857   2.865   3.866  18.384
 2410SOL    HW118858   2.796   3.857  18.318
 2410SOL    HW218859   2.873   3.960  18.397
 2411SOL     OW18860   4.141   2.562   0.170
 2411SOL    HW118861   4.153   2.637   0.227
 2411SOL    HW218862   4.094   2.596   0.094
 2412SOL     OW18863   1.999   2.025  24.719
 2412SOL    HW118864   1.995   2.043  24.813
 2412SOL    HW218865   1.911   1.996  24.696
 2413SOL     OW18866   3.556   0.418  10.740
 2413SOL    HW118867   3.539   0.469  10.819
 2413SOL    HW218868   3.544   0.480  10.668
 2414SOL     OW18869   0.506   2.846  17.292
 2414SOL    HW118870   0.500   2.941  17.293
 2414SOL    HW218871   0.564   2.826  17.218
 2415SOL     OW18872   0.119   4.275  16.881
 2415SOL    HW118873   0.059   4.350  16.885
 2415SOL    HW218874   0.094   4.228  16.802
 2416SOL     OW18875   0.357   1.125   4.929
 2416SOL    HW118876   0.328   1.161   4.846
 2416SOL    HW218877   0.382   1.035   4.908
 2417SOL     OW18878   1.997   0.175   8.232
 2417SOL    HW118879   1.952   0.246   8.187
 2417SOL    HW218880   1.945   0.159   8.311
 2418SOL     OW18881   1.457   4.513   5.777
 2418SOL    HW118882   1.473   4.518   5.683
 2418SOL    HW218883   1.544   4.504   5.815
 2419SOL     OW18884   0.882   2.528   3.798
 2419SOL    HW118885   0.815   2.594   3.776
 2419SOL    HW218886   0.957   2.580   3.829
 2420SOL     OW18887   4.671   3.658  25.697
 2420SOL    HW118888   4.621   3.622  25.770
 2420SOL    HW218889   4.762   3.632  25.715
 2421SOL     OW18890   4.232   0.229   2.994
 2421SOL    HW118891   4.191   0.315   2.983
 2421SOL    HW218892   4.315   0.236   2.947
 2422SOL     OW18893   0.944   2.969  19.578
 2422SOL    HW118894   0.959   3.064  19.573
 2422SOL    HW218895   0.871   2.953  19.518
 2423SOL     OW18896   0.819   0.370   0.899
 2423SOL    HW118897   0.890   0.433   0.910
 2423SOL    HW218898   0.863   0.285   0.892
 2424SOL     OW18899   0.392   3.875  19.657
 2424SOL    HW118900   0.374   3.880  19.564
 2424SOL    HW218901   0.488   3.866  19.663
 2425SOL     OW18902   2.658   3.348  27.120
 2425SOL    HW118903   2.655   3.397  27.202
 2425SOL    HW218904   2.580   3.292  27.123
 2426SOL     OW18905   0.985   3.243   7.319
 2426SOL    HW118906   0.923   3.312   7.342
 2426SOL    HW218907   0.933   3.162   7.319
 2427SOL     OW18908   2.856   2.197  18.386
 2427SOL    HW118909   2.842   2.114  18.339
 2427SOL    HW218910   2.930   2.238  18.341
 2428SOL     OW18911   3.615   3.206  26.554
 2428SOL    HW118912   3.583   3.296  26.559
 2428SOL    HW218913   3.630   3.182  26.646
 2429SOL     OW18914   0.711   1.531  24.979
 2429SOL    HW118915   0.736   1.622  24.961
 2429SOL    HW218916   0.788   1.492  25.020
 2430SOL     OW18917   3.283   0.792   2.396
 2430SOL    HW118918   3.197   0.759   2.371
 2430SOL    HW218919   3.340   0.714   2.397
 2431SOL     OW18920   3.384   3.096  21.930
 2431SOL    HW118921   3.295   3.124  21.907
 2431SOL    HW218922   3.433   3.103  21.848
 2432SOL     OW18923   0.742   1.993   3.592
 2432SOL    HW118924   0.713   1.985   3.683
 2432SOL    HW218925   0.816   1.932   3.585
 2433SOL     OW18926   2.499   2.932  21.724
 2433SOL    HW118927   2.490   2.839  21.743
 2433SOL    HW218928   2.510   2.974  21.809
 2434SOL     OW18929   2.208   2.271  12.611
 2434SOL    HW118930   2.171   2.194  12.570
 2434SOL    HW218931   2.175   2.268  12.701
 2435SOL     OW18932   3.703   3.974  22.525
 2435SOL    HW118933   3.787   3.996  22.485
 2435SOL    HW218934   3.700   4.025  22.606
 2436SOL     OW18935   3.265   4.465  27.420
 2436SOL    HW118936   3.202   4.394  27.410
 2436SOL    HW218937   3.349   4.420  27.431
 2437SOL     OW18938   4.634   0.486  18.372
 2437SOL    HW118939   4.569   0.533  18.423
 2437SOL    HW218940   4.603   0.493  18.281
 2438SOL     OW18941   2.014   1.312   7.602
 2438SOL    HW118942   1.923   1.309   7.629
 2438SOL    HW218943   2.011   1.323   7.507
 2439SOL     OW18944   0.985   2.607  21.012
 2439SOL    HW118945   0.921   2.540  20.989
 2439SOL    HW218946   1.053   2.559  21.060
 2440SOL     OW18947   4.147   4.227   5.557
 2440SOL    HW118948   4.056   4.215   5.586
 2440SOL    HW218949   4.163   4.321   5.569
 2441SOL     OW18950   0.985   2.643   7.799
 2441SOL    HW118951   1.016   2.637   7.889
 2441SOL    HW218952   1.053   2.694   7.753
 2442SOL     OW18953   3.701   1.008  18.650
 2442SOL    HW118954   3.715   0.919  18.683
 2442SOL    HW218955   3.733   1.005  18.559
 2443SOL     OW18956   3.215   0.386  23.423
 2443SOL    HW118957   3.168   0.416  23.500
 2443SOL    HW218958   3.184   0.296  23.409
 2444SOL     OW18959   3.973   4.044  22.445
 2444SOL    HW118960   3.973   4.131  22.486
 2444SOL    HW218961   4.014   4.058  22.360
 2445SOL     OW18962   4.573   3.406   6.901
 2445SOL    HW118963   4.562   3.465   6.827
 2445SOL    HW218964   4.543   3.321   6.869
 2446SOL     OW18965   4.380   4.103  28.445
 2446SOL    HW118966   4.364   4.010  28.461
 2446SOL    HW218967   4.475   4.108  28.428
 2447SOL     OW18968   3.293   2.616  26.485
 2447SOL    HW118969   3.198   2.621  26.474
 2447SOL    HW218970   3.309   2.525  26.512
 2448SOL     OW18971   0.911   0.851   8.366
 2448SOL    HW118972   0.863   0.771   8.388
 2448SOL    HW218973   0.898   0.908   8.442
 2449SOL     OW18974   1.041   1.066   6.955
 2449SOL    HW118975   0.975   0.998   6.964
 2449SOL    HW218976   0.996   1.147   6.977
 2450SOL     OW18977   3.863   0.835  28.059
 2450SOL    HW118978   3.914   0.759  28.085
 2450SOL    HW218979   3.873   0.841  27.964
 2451SOL     OW18980   0.044   4.104  17.102
 2451SOL    HW118981   0.106   4.152  17.047
 2451SOL    HW218982   4.742   4.108  17.053
 2452SOL     OW18983   0.300   4.746  20.082
 2452SOL    HW118984   0.383   4.710  20.050
 2452SOL    HW218985   0.309   0.059  20.070
 2453SOL     OW18986   2.492   1.106  25.723
 2453SOL    HW118987   2.445   1.037  25.676
 2453SOL    HW218988   2.453   1.105  25.811
 2454SOL     OW18989   3.168   3.192  27.560
 2454SOL    HW118990   3.075   3.188  27.539
 2454SOL    HW218991   3.212   3.173  27.476
 2455SOL     OW18992   1.403   0.732   9.740
 2455SOL    HW118993   1.366   0.820   9.753
 2455SOL    HW218994   1.329   0.673   9.752
 2456SOL     OW18995   1.355   3.935  10.178
 2456SOL    HW118996   1.337   3.898  10.091
 2456SOL    HW218997   1.324   4.025  10.173
 2457SOL     OW18998   2.074   3.996  22.785
 2457SOL    HW118999   2.106   4.086  22.795
 2457SOL    HW219000   2.107   3.968  22.699
 2458SOL     OW19001   1.461   3.588  25.314
 2458SOL    HW119002   1.497   3.500  25.304
 2458SOL    HW219003   1.389   3.592  25.251
 2459SOL     OW19004   2.759   4.660   0.911
 2459SOL    HW119005   2.700   4.586   0.925
 2459SOL    HW219006   2.757   4.675   0.816
 2460SOL     OW19007   2.438   0.160  21.883
 2460SOL    HW119008   2.504   0.155  21.952
 2460SOL    HW219009   2.480   0.122  21.806
 2461SOL     OW19010   1.461   2.932   2.682
 2461SOL    HW119011   1.473   2.837   2.683
 2461SOL    HW219012   1.519   2.963   2.613
 2462SOL     OW19013   1.343   0.334  24.278
 2462SOL    HW119014   1.267   0.276  24.284
 2462SOL    HW219015   1.344   0.362  24.187
 2463SOL     OW19016   0.859   2.255   8.892
 2463SOL    HW119017   0.878   2.179   8.948
 2463SOL    HW219018   0.775   2.233   8.851
 2464SOL     OW19019   1.929   0.771  17.417
 2464SOL    HW119020   1.925   0.866  17.404
 2464SOL    HW219021   1.870   0.736  17.350
 2465SOL     OW19022   1.814   4.264   8.484
 2465SOL    HW119023   1.901   4.294   8.457
 2465SOL    HW219024   1.815   4.270   8.579
 2466SOL     OW19025   3.864   2.793   2.046
 2466SOL    HW119026   3.914   2.835   1.976
 2466SOL    HW219027   3.862   2.701   2.023
 2467SOL     OW19028   2.656   2.647  26.379
 2467SOL    HW119029   2.593   2.713  26.351
 2467SOL    HW219030   2.710   2.630  26.301
 2468SOL     OW19031   2.939   1.451   5.392
 2468SOL    HW119032   2.981   1.460   5.478
 2468SOL    HW219033   2.857   1.499   5.401
 2469SOL     OW19034   2.551   0.787   5.994
 2469SOL    HW119035   2.506   0.708   5.964
 2469SOL    HW219036   2.643   0.763   5.996
 2470SOL     OW19037   2.517   1.687   5.959
 2470SOL    HW119038   2.612   1.695   5.948
 2470SOL    HW219039   2.506   1.642   6.043
 2471SOL     OW19040   0.859   0.167   8.545
 2471SOL    HW119041   0.781   0.127   8.507
 2471SOL    HW219042   0.889   0.229   8.478
 2472SOL     OW19043   3.650   4.525   2.133
 2472SOL    HW119044   3.627   4.618   2.133
 2472SOL    HW219045   3.699   4.512   2.052
 2473SOL     OW19046   0.106   4.438  22.240
 2473SOL    HW119047   0.089   4.433  22.334
 2473SOL    HW219048   0.047   4.508  22.209
 2474SOL     OW19049   4.765   2.316  24.211
 2474SOL    HW119050   4.684   2.266  24.210
 2474SOL    HW219051   4.781   2.335  24.304
 2475SOL     OW19052   0.979   0.028   1.902
 2475SOL    HW119053   0.889   0.051   1.879
 2475SOL    HW219054   0.973   4.722   1.941
 2476SOL     OW19055   1.669   4.547   3.285
 2476SOL    HW119056   1.659   4.621   3.344
 2476SOL    HW219057   1.714   4.583   3.209
 2477SOL     OW19058   3.828   2.766  22.651
 2477SOL    HW119059   3.775   2.805  22.581
 2477SOL    HW219060   3.764   2.724  22.708
 2478SOL     OW19061   1.989   0.540   8.860
 2478SOL    HW119062   2.067   0.516   8.911
 2478SOL    HW219063   2.023   0.562   8.773
 2479SOL     OW19064   2.578   3.980   4.719
 2479SOL    HW119065   2.672   3.976   4.701
 2479SOL    HW219066   2.569   3.947   4.808
 2480SOL     OW19067   3.772   4.183   4.985
 2480SOL    HW119068   3.795   4.253   5.046
 2480SOL    HW219069   3.856   4.153   4.950
 2481SOL     OW19070   3.102   0.969   0.884
 2481SOL    HW119071   3.036   1.031   0.916
 2481SOL    HW219072   3.055   0.916   0.819
 2482SOL     OW19073   2.929   1.426   5.722
 2482SOL    HW119074   2.889   1.418   5.809
 2482SOL    HW219075   2.977   1.509   5.725
 2483SOL     OW19076   2.719   0.395   1.133
 2483SOL    HW119077   2.796   0.357   1.090
 2483SOL    HW219078   2.750   0.421   1.219
 2484SOL     OW19079   1.292   2.979   6.098
 2484SOL    HW119080   1.258   2.911   6.040
 2484SOL    HW219081   1.352   2.933   6.157
 2485SOL     OW19082   0.678   3.746  27.826
 2485SOL    HW119083   0.690   3.773  27.735
 2485SOL    HW219084   0.763   3.709  27.851
 2486SOL     OW19085   1.367   0.481  27.019
 2486SOL    HW119086   1.317   0.537  27.079
 2486SOL    HW219087   1.309   0.468  26.944
 2487SOL     OW19088   4.591   3.103   6.853
 2487SOL    HW119089   4.525   3.049   6.898
 2487SOL    HW219090   4.610   3.056   6.772
 2488SOL     OW19091   4.633   2.432  19.557
 2488SOL    HW119092   4.567   2.492  19.521
 2488SOL    HW219093   4.648   2.466  19.646
 2489SOL     OW19094   3.624   3.823  17.971
 2489SOL    HW119095   3.645   3.739  17.930
 2489SOL    HW219096   3.540   3.847  17.934
 2490SOL     OW19097   0.395   1.879  15.919
 2490SOL    HW119098   0.400   1.853  15.828
 2490SOL    HW219099   0.485   1.897  15.945
 2491SOL     OW19100   4.353   1.784  18.383
 2491SOL    HW119101   4.264   1.820  18.378
 2491SOL    HW219102   4.346   1.697  18.343
 2492SOL     OW19103   1.596   1.266  27.766
 2492SOL    HW119104   1.621   1.216  27.844
 2492SOL    HW219105   1.553   1.344  27.801
 2493SOL     OW19106   1.045   4.055   9.452
 2493SOL    HW119107   1.044   4.135   9.399
 2493SOL    HW219108   0.955   4.024   9.451
 2494SOL     OW19109   0.548   2.819  22.777
 2494SOL    HW119110   0.583   2.892  22.828
 2494SOL    HW219111   0.536   2.854  22.689
 2495SOL     OW19112   0.695   4.638  27.882
 2495SOL    HW119113   0.742   4.650  27.964
 2495SOL    HW219114   0.641   4.560  27.896
 2496SOL     OW19115   1.549   0.772   1.061
 2496SOL    HW119116   1.642   0.795   1.063
 2496SOL    HW219117   1.538   0.727   0.978
 2497SOL     OW19118   0.832   0.481  19.985
 2497SOL    HW119119   0.863   0.399  20.024
 2497SOL    HW219120   0.775   0.520  20.051
 2498SOL     OW19121   4.074   2.264  18.931
 2498SOL    HW119122   3.999   2.221  18.890
 2498SOL    HW219123   4.037   2.335  18.982
 2499SOL     OW19124   1.570   1.328  21.458
 2499SOL    HW119125   1.571   1.241  21.498
 2499SOL    HW219126   1.646   1.330  21.400
 2500SOL     OW19127   2.678   0.766   4.020
 2500SOL    HW119128   2.718   0.770   3.933
 2500SOL    HW219129   2.586   0.787   4.006
 2501SOL     OW19130   2.487   1.789  19.386
 2501SOL    HW119131   2.509   1.724  19.452
 2501SOL    HW219132   2.484   1.872  19.434
 2502SOL     OW19133   0.674   2.310  28.477
 2502SOL    HW119134   0.700   2.331   0.044
 2502SOL    HW219135   0.730   2.366  28.422
 2503SOL     OW19136   1.920   1.319   3.059
 2503SOL    HW119137   1.861   1.376   3.108
 2503SOL    HW219138   1.932   1.242   3.114
 2504SOL     OW19139   3.338   0.073   2.730
 2504SOL    HW119140   3.370   0.030   2.651
 2504SOL    HW219141   3.261   0.122   2.701
 2505SOL     OW19142   1.641   3.123  20.758
 2505SOL    HW119143   1.710   3.126  20.825
 2505SOL    HW219144   1.626   3.030  20.743
 2506SOL     OW19145   3.595   1.255  23.705
 2506SOL    HW119146   3.650   1.210  23.641
 2506SOL    HW219147   3.656   1.285  23.772
 2507SOL     OW19148   3.819   0.407  10.675
 2507SOL    HW119149   3.729   0.419  10.703
 2507SOL    HW219150   3.851   0.495  10.656
 2508SOL     OW19151   1.764   0.971  23.428
 2508SOL    HW119152   1.701   0.959  23.357
 2508SOL    HW219153   1.748   1.061  23.458
 2509SOL     OW19154   3.775   0.355  16.913
 2509SOL    HW119155   3.869   0.365  16.930
 2509SOL    HW219156   3.759   0.410  16.836
 2510SOL     OW19157   3.576   0.070   5.596
 2510SOL    HW119158   3.527   0.152   5.583
 2510SOL    HW219159   3.662   0.088   5.560
 2511SOL     OW19160   0.842   2.570  19.276
 2511SOL    HW119161   0.748   2.563  19.261
 2511SOL    HW219162   0.851   2.581  19.371
 2512SOL     OW19163   0.722   0.119   5.639
 2512SOL    HW119164   0.766   0.047   5.686
 2512SOL    HW219165   0.740   0.102   5.547
 2513SOL     OW19166   0.941   1.516  26.213
 2513SOL    HW119167   0.851   1.484  26.219
 2513SOL    HW219168   0.944   1.564  26.131
 2514SOL     OW19169   3.760   1.389  20.844
 2514SOL    HW119170   3.725   1.461  20.791
 2514SOL    HW219171   3.838   1.361  20.797
 2515SOL     OW19172   4.537   3.513  11.049
 2515SOL    HW119173   4.598   3.469  11.109
 2515SOL    HW219174   4.514   3.446  10.985
 2516SOL     OW19175   4.588   3.745  26.254
 2516SOL    HW119176   4.663   3.697  26.220
 2516SOL    HW219177   4.594   3.832  26.212
 2517SOL     OW19178   1.046   2.166  22.844
 2517SOL    HW119179   1.090   2.098  22.895
 2517SOL    HW219180   1.016   2.121  22.765
 2518SOL     OW19181   3.400   4.191   1.431
 2518SOL    HW119182   3.362   4.136   1.362
 2518SOL    HW219183   3.495   4.187   1.416
 2519SOL     OW19184   1.612   2.372  25.497
 2519SOL    HW119185   1.615   2.350  25.590
 2519SOL    HW219186   1.582   2.292  25.454
 2520SOL     OW19187   2.088   2.398  20.983
 2520SOL    HW119188   2.094   2.429  21.073
 2520SOL    HW219189   2.093   2.303  20.989
 2521SOL     OW19190   3.096   4.236  21.656
 2521SOL    HW119191   3.046   4.303  21.609
 2521SOL    HW219192   3.029   4.184  21.701
 2522SOL     OW19193   1.421   1.968  23.167
 2522SOL    HW119194   1.387   1.943  23.253
 2522SOL    HW219195   1.346   2.003  23.120
 2523SOL     OW19196   4.709   4.368  10.925
 2523SOL    HW119197   4.692   4.462  10.935
 2523SOL    HW219198   4.683   4.331  11.010
 2524SOL     OW19199   2.996   2.342   3.708
 2524SOL    HW119200   2.967   2.259   3.670
 2524SOL    HW219201   3.044   2.384   3.637
 2525SOL     OW19202   2.952   0.650  25.329
 2525SOL    HW119203   3.009   0.727  25.337
 2525SOL    HW219204   2.876   0.671  25.384
 2526SOL     OW19205   1.579   4.293   6.722
 2526SOL    HW119206   1.661   4.315   6.678
 2526SOL    HW219207   1.603   4.223   6.783
 2527SOL     OW19208   1.449   3.087   9.332
 2527SOL    HW119209   1.445   2.992   9.322
 2527SOL    HW219210   1.358   3.116   9.328
 2528SOL     OW19211   1.624   4.540   0.296
 2528SOL    HW119212   1.541   4.532   0.249
 2528SOL    HW219213   1.674   4.606   0.247
 2529SOL     OW19214   3.518   0.736   0.692
 2529SOL    HW119215   3.547   0.793   0.762
 2529SOL    HW219216   3.492   0.655   0.736
 2530SOL     OW19217   0.059   0.684   6.113
 2530SOL    HW119218   0.060   0.597   6.153
 2530SOL    HW219219   4.759   0.685   6.061
 2531SOL     OW19220   2.846   1.960   1.872
 2531SOL    HW119221   2.802   1.880   1.901
 2531SOL    HW219222   2.919   1.929   1.817
 2532SOL     OW19223   2.055   2.433  25.637
 2532SOL    HW119224   2.004   2.353  25.624
 2532SOL    HW219225   2.146   2.406  25.628
 2533SOL     OW19226   2.128   4.735  25.445
 2533SOL    HW119227   2.058   4.678  25.412
 2533SOL    HW219228   2.139   4.710  25.537
 2534SOL     OW19229   4.117   1.112  26.333
 2534SOL    HW119230   4.031   1.085  26.301
 2534SOL    HW219231   4.130   1.060  26.412
 2535SOL     OW19232   0.552   2.860  11.346
 2535SOL    HW119233   0.523   2.895  11.431
 2535SOL    HW219234   0.581   2.770  11.366
 2536SOL     OW19235   1.285   0.397   2.590
 2536SOL    HW119236   1.348   0.333   2.556
 2536SOL    HW219237   1.201   0.351   2.589
 2537SOL     OW19238   3.168   1.152  23.863
 2537SOL    HW119239   3.082   1.129  23.827
 2537SOL    HW219240   3.227   1.147  23.788
 2538SOL     OW19241   0.757   4.740  17.044
 2538SOL    HW119242   0.772   4.680  16.971
 2538SOL    HW219243   0.668   4.771  17.032
 2539SOL     OW19244   1.732   0.935   7.051
 2539SOL    HW119245   1.693   0.848   7.043
 2539SOL    HW219246   1.711   0.961   7.141
 2540SOL     OW19247   1.873   4.400   1.229
 2540SOL    HW119248   1.877   4.480   1.282
 2540SOL    HW219249   1.852   4.331   1.292
 2541SOL     OW19250   2.008   2.258  10.665
 2541SOL    HW119251   2.092   2.263  10.621
 2541SOL    HW219252   2.024   2.294  10.752
 2542SOL     OW19253   4.059   4.646   1.821
 2542SOL    HW119254   4.125   4.590   1.861
 2542SOL    HW219255   4.066   4.628   1.727
 2543SOL     OW19256   4.031   1.276  18.679
 2543SOL    HW119257   4.038   1.218  18.755
 2543SOL    HW219258   4.108   1.332  18.684
 2544SOL     OW19259   1.685   1.233   8.943
 2544SOL    HW119260   1.769   1.236   8.989
 2544SOL    HW219261   1.621   1.258   9.010
 2545SOL     OW19262   0.456   4.628  22.930
 2545SOL    HW119263   0.533   4.573  22.949
 2545SOL    HW219264   0.382   4.572  22.954
 2546SOL     OW19265   3.130   0.891  23.175
 2546SOL    HW119266   3.142   0.831  23.101
 2546SOL    HW219267   3.095   0.971  23.135
 2547SOL     OW19268   1.303   2.088   5.886
 2547SOL    HW119269   1.281   2.083   5.793
 2547SOL    HW219270   1.342   2.003   5.906
 2548SOL     OW19271   4.195   2.662   3.099
 2548SOL    HW119272   4.246   2.690   3.023
 2548SOL    HW219273   4.185   2.567   3.087
 2549SOL     OW19274   0.449   3.371  22.469
 2549SOL    HW119275   0.532   3.384  22.514
 2549SOL    HW219276   0.404   3.456  22.477
 2550SOL     OW19277   1.643   0.708   1.852
 2550SOL    HW119278   1.612   0.626   1.812
 2550SOL    HW219279   1.578   0.773   1.825
 2551SOL     OW19280   3.412   1.949   1.536
 2551SOL    HW119281   3.414   1.861   1.499
 2551SOL    HW219282   3.403   2.007   1.461
 2552SOL     OW19283   4.139   2.573  19.888
 2552SOL    HW119284   4.136   2.533  19.801
 2552SOL    HW219285   4.061   2.627  19.892
 2553SOL     OW19286   1.186   0.593  23.417
 2553SOL    HW119287   1.237   0.582  23.497
 2553SOL    HW219288   1.243   0.642  23.358
 2554SOL     OW19289   0.224   1.973   4.665
 2554SOL    HW119290   0.211   1.984   4.570
 2554SOL    HW219291   0.146   1.926   4.694
 2555SOL     OW19292   2.289   4.383  19.451
 2555SOL    HW119293   2.252   4.441  19.518
 2555SOL    HW219294   2.281   4.432  19.369
 2556SOL     OW19295   2.223   1.731   0.437
 2556SOL    HW119296   2.277   1.789   0.491
 2556SOL    HW219297   2.274   1.651   0.428
 2557SOL     OW19298   3.418   3.396  19.056
 2557SOL    HW119299   3.379   3.476  19.090
 2557SOL    HW219300   3.443   3.417  18.966
 2558SOL     OW19301   1.747   2.839   1.258
 2558SOL    HW119302   1.824   2.894   1.246
 2558SOL    HW219303   1.762   2.795   1.342
 2559SOL     OW19304   4.297   1.572  23.382
 2559SOL    HW119305   4.366   1.532  23.436
 2559SOL    HW219306   4.218   1.525  23.407
 2560SOL     OW19307   4.623   2.153  28.261
 2560SOL    HW119308   4.577   2.076  28.293
 2560SOL    HW219309   4.714   2.140  28.289
 2561SOL     OW19310   1.852   2.955  18.072
 2561SOL    HW119311   1.925   3.013  18.051
 2561SOL    HW219312   1.817   2.929  17.986
 2562SOL     OW19313   4.192   3.694   8.275
 2562SOL    HW119314   4.137   3.722   8.202
 2562SOL    HW219315   4.237   3.773   8.303
 2563SOL     OW19316   0.068   4.525  20.691
 2563SOL    HW119317   0.009   4.460  20.729
 2563SOL    HW219318   0.134   4.540  20.759
 2564SOL     OW19319   2.638   2.719  23.268
 2564SOL    HW119320   2.550   2.745  23.295
 2564SOL    HW219321   2.692   2.796  23.282
 2565SOL     OW19322   1.397   0.405   0.051
 2565SOL    HW119323   1.331   0.371  28.513
 2565SOL    HW219324   1.346   0.435   0.127
 2566SOL     OW19325   1.170   2.882  23.399
 2566SOL    HW119326   1.198   2.795  23.370
 2566SOL    HW219327   1.250   2.922  23.434
 2567SOL     OW19328   4.005   1.775  20.786
 2567SOL    HW119329   4.070   1.793  20.854
 2567SOL    HW219330   3.921   1.778  20.832
 2568SOL     OW19331   1.951   1.482   7.023
 2568SOL    HW119332   1.913   1.489   6.936
 2568SOL    HW219333   1.891   1.426   7.072
 2569SOL     OW19334   0.216   1.531  22.149
 2569SOL    HW119335   0.302   1.565  22.175
 2569SOL    HW219336   0.164   1.610  22.133
 2570SOL     OW19337   0.829   3.002   7.109
 2570SOL    HW119338   0.898   2.973   7.170
 2570SOL    HW219339   0.765   3.046   7.165
 2571SOL     OW19340   0.937   4.201   6.612
 2571SOL    HW119341   0.898   4.190   6.699
 2571SOL    HW219342   1.029   4.175   6.624
 2572SOL     OW19343   3.836   0.874  27.400
 2572SOL    HW119344   3.836   0.956  27.352
 2572SOL    HW219345   3.749   0.869  27.440
 2573SOL     OW19346   2.793   2.768  22.651
 2573SOL    HW119347   2.758   2.851  22.684
 2573SOL    HW219348   2.850   2.737  22.721
 2574SOL     OW19349   3.315   1.485   7.359
 2574SOL    HW119350   3.295   1.570   7.319
 2574SOL    HW219351   3.330   1.426   7.286
 2575SOL     OW19352   4.409   1.444  11.395
 2575SOL    HW119353   4.340   1.507  11.414
 2575SOL    HW219354   4.400   1.377  11.463
 2576SOL     OW19355   2.747   3.961   8.086
 2576SOL    HW119356   2.660   3.952   8.046
 2576SOL    HW219357   2.731   4.010   8.166
 2577SOL     OW19358   3.573   1.513  17.616
 2577SOL    HW119359   3.571   1.421  17.644
 2577SOL    HW219360   3.565   1.509  17.521
 2578SOL     OW19361   2.986   0.309  28.429
 2578SOL    HW119362   3.039   0.376  28.387
 2578SOL    HW219363   2.923   0.282  28.362
 2579SOL     OW19364   3.453   2.343  21.949
 2579SOL    HW119365   3.544   2.340  21.976
 2579SOL    HW219366   3.406   2.296  22.018
 2580SOL     OW19367   2.380   4.551  26.454
 2580SOL    HW119368   2.375   4.478  26.393
 2580SOL    HW219369   2.462   4.596  26.433
 2581SOL     OW19370   3.024   3.630  19.448
 2581SOL    HW119371   2.993   3.552  19.494
 2581SOL    HW219372   3.107   3.651  19.491
 2582SOL     OW19373   3.566   1.844  20.797
 2582SOL    HW119374   3.591   1.877  20.710
 2582SOL    HW219375   3.630   1.882  20.857
 2583SOL     OW19376   4.212   2.136  23.759
 2583SOL    HW119377   4.160   2.131  23.839
 2583SOL    HW219378   4.160   2.089  23.694
 2584SOL     OW19379   4.415   4.596  26.714
 2584SOL    HW119380   4.389   4.688  26.711
 2584SOL    HW219381   4.340   4.548  26.680
 2585SOL     OW19382   0.883   2.185  26.728
 2585SOL    HW119383   0.842   2.220  26.649
 2585SOL    HW219384   0.971   2.160  26.701
 2586SOL     OW19385   0.009   0.548   7.881
 2586SOL    HW119386   4.697   0.531   7.897
 2586SOL    HW219387   0.053   0.515   7.960
 2587SOL     OW19388   3.881   1.072  23.622
 2587SOL    HW119389   3.813   1.096  23.559
 2587SOL    HW219390   3.836   1.019  23.687
 2588SOL     OW19391   4.553   0.578   2.074
 2588SOL    HW119392   4.571   0.522   2.150
 2588SOL    HW219393   4.510   0.655   2.111
 2589SOL     OW19394   2.931   4.009  23.855
 2589SOL    HW119395   2.917   4.102  23.869
 2589SOL    HW219396   3.025   3.996  23.871
 2590SOL     OW19397   1.638   1.673  19.336
 2590SOL    HW119398   1.710   1.610  19.343
 2590SOL    HW219399   1.668   1.750  19.383
 2591SOL     OW19400   3.176   4.030   1.805
 2591SOL    HW119401   3.172   4.123   1.827
 2591SOL    HW219402   3.214   4.027   1.717
 2592SOL     OW19403   0.764   2.758  20.458
 2592SOL    HW119404   0.852   2.757  20.497
 2592SOL    HW219405   0.778   2.731  20.367
 2593SOL     OW19406   3.989   3.499  20.059
 2593SOL    HW119407   4.036   3.578  20.085
 2593SOL    HW219408   3.943   3.525  19.979
 2594SOL     OW19409   1.099   2.351  25.067
 2594SOL    HW119410   1.189   2.324  25.086
 2594SOL    HW219411   1.107   2.444  25.046
 2595SOL     OW19412   2.022   0.402   3.604
 2595SOL    HW119413   2.116   0.382   3.608
 2595SOL    HW219414   2.005   0.418   3.511
 2596SOL     OW19415   1.572   4.725  24.696
 2596SOL    HW119416   1.647   4.736  24.755
 2596SOL    HW219417   1.521   0.024  24.707
 2597SOL     OW19418   4.237   0.891  16.598
 2597SOL    HW119419   4.288   0.900  16.517
 2597SOL    HW219420   4.182   0.814  16.583
 2598SOL     OW19421   2.514   2.728   2.747
 2598SOL    HW119422   2.514   2.783   2.669
 2598SOL    HW219423   2.571   2.774   2.809
 2599SOL     OW19424   4.211   1.827   2.996
 2599SOL    HW119425   4.135   1.771   2.978
 2599SOL    HW219426   4.179   1.915   2.979
 2600SOL     OW19427   3.783   3.593  25.342
 2600SOL    HW119428   3.828   3.676  25.355
 2600SOL    HW219429   3.800   3.571  25.250
 2601SOL     OW19430   2.024   2.548   8.002
 2601SOL    HW119431   2.086   2.477   8.019
 2601SOL    HW219432   1.962   2.512   7.939
 2602SOL     OW19433   3.476   2.073  18.887
 2602SOL    HW119434   3.380   2.068  18.886
 2602SOL    HW219435   3.502   2.015  18.958
 2603SOL     OW19436   3.653   2.451   2.181
 2603SOL    HW119437   3.671   2.358   2.170
 2603SOL    HW219438   3.586   2.454   2.249
 2604SOL     OW19439   1.951   1.738  25.472
 2604SOL    HW119440   1.997   1.732  25.388
 2604SOL    HW219441   1.931   1.647  25.495
 2605SOL     OW19442   4.395   1.590   0.890
 2605SOL    HW119443   4.470   1.538   0.919
 2605SOL    HW219444   4.433   1.654   0.830
 2606SOL     OW19445   3.947   2.913  21.693
 2606SOL    HW119446   3.913   2.976  21.757
 2606SOL    HW219447   4.021   2.959  21.652
 2607SOL     OW19448   1.094   4.510  27.460
 2607SOL    HW119449   1.008   4.547  27.441
 2607SOL    HW219450   1.139   4.509  27.376
 2608SOL     OW19451   1.942   3.122   3.193
 2608SOL    HW119452   1.976   3.109   3.281
 2608SOL    HW219453   1.911   3.035   3.166
 2609SOL     OW19454   3.697   2.341  23.083
 2609SOL    HW119455   3.777   2.372  23.040
 2609SOL    HW219456   3.713   2.355  23.177
 2610SOL     OW19457   1.090   4.301  19.324
 2610SOL    HW119458   1.021   4.365  19.337
 2610SOL    HW219459   1.077   4.236  19.393
 2611SOL     OW19460   3.387   2.592  17.235
 2611SOL    HW119461   3.405   2.566  17.145
 2611SOL    HW219462   3.449   2.542  17.288
 2612SOL     OW19463   4.623   0.011   5.597
 2612SOL    HW119464   4.594   4.719   5.542
 2612SOL    HW219465   4.556   0.019   5.665
 2613SOL     OW19466   2.028   4.273   0.246
 2613SOL    HW119467   2.009   4.211   0.317
 2613SOL    HW219468   2.119   4.299   0.262
 2614SOL     OW19469   1.785   1.572   2.108
 2614SOL    HW119470   1.768   1.651   2.057
 2614SOL    HW219471   1.701   1.526   2.109
 2615SOL     OW19472   0.311   2.134   3.055
 2615SOL    HW119473   0.293   2.216   3.103
 2615SOL    HW219474   0.287   2.065   3.117
 2616SOL     OW19475   1.820   1.652  27.057
 2616SOL    HW119476   1.829   1.573  27.110
 2616SOL    HW219477   1.810   1.723  27.121
 2617SOL     OW19478   2.871   1.559   3.758
 2617SOL    HW119479   2.888   1.600   3.843
 2617SOL    HW219480   2.776   1.554   3.752
 2618SOL     OW19481   3.429   2.400  24.799
 2618SOL    HW119482   3.499   2.338  24.821
 2618SOL    HW219483   3.361   2.346  24.759
 2619SOL     OW19484   2.604   1.650   1.571
 2619SOL    HW119485   2.514   1.680   1.559
 2619SOL    HW219486   2.658   1.727   1.551
 2620SOL     OW19487   0.818   3.632  19.926
 2620SOL    HW119488   0.744   3.579  19.896
 2620SOL    HW219489   0.895   3.588  19.890
 2621SOL     OW19490   0.359   3.822  25.385
 2621SOL    HW119491   0.363   3.728  25.402
 2621SOL    HW219492   0.270   3.848  25.411
 2622SOL     OW19493   3.268   1.832  27.081
 2622SOL    HW119494   3.210   1.907  27.071
 2622SOL    HW219495   3.318   1.850  27.160
 2623SOL     OW19496   3.173   3.188  21.550
 2623SOL    HW119497   3.124   3.266  21.525
 2623SOL    HW219498   3.262   3.206  21.520
 2624SOL     OW19499   3.204   3.781  25.974
 2624SOL    HW119500   3.279   3.802  25.919
 2624SOL    HW219501   3.129   3.783  25.915
 2625SOL     OW19502   0.844   0.368   1.233
 2625SOL    HW119503   0.816   0.295   1.178
 2625SOL    HW219504   0.862   0.439   1.172
 2626SOL     OW19505   4.235   2.238  17.513
 2626SOL    HW119506   4.207   2.152  17.479
 2626SOL    HW219507   4.323   2.223  17.545
 2627SOL     OW19508   3.474   2.488  22.981
 2627SOL    HW119509   3.559   2.444  22.991
 2627SOL    HW219510   3.409   2.421  23.001
 2628SOL     OW19511   0.545   4.523  25.654
 2628SOL    HW119512   0.491   4.566  25.720
 2628SOL    HW219513   0.539   4.580  25.578
 2629SOL     OW19514   4.626   1.436  10.300
 2629SOL    HW119515   4.541   1.398  10.324
 2629SOL    HW219516   4.690   1.371  10.328
 2630SOL     OW19517   4.152   2.490  19.621
 2630SOL    HW119518   4.154   2.492  19.526
 2630SOL    HW219519   4.105   2.410  19.643
 2631SOL     OW19520   2.969   1.874   4.153
 2631SOL    HW119521   2.940   1.900   4.240
 2631SOL    HW219522   2.935   1.942   4.094
 2632SOL     OW19523   4.337   4.600  24.514
 2632SOL    HW119524   4.300   4.598  24.602
 2632SOL    HW219525   4.317   4.514  24.477
 2633SOL     OW19526   0.284   0.776   2.545
 2633SOL    HW119527   0.339   0.853   2.530
 2633SOL    HW219528   0.343   0.702   2.536
 2634SOL     OW19529   2.422   2.190   5.196
 2634SOL    HW119530   2.493   2.254   5.206
 2634SOL    HW219531   2.342   2.243   5.197
 2635SOL     OW19532   1.880   2.570  22.539
 2635SOL    HW119533   1.926   2.491  22.568
 2635SOL    HW219534   1.949   2.636  22.531
 2636SOL     OW19535   1.885   3.598   6.236
 2636SOL    HW119536   1.878   3.581   6.330
 2636SOL    HW219537   1.930   3.682   6.229
 2637SOL     OW19538   2.024   2.428  25.244
 2637SOL    HW119539   1.974   2.510  25.246
 2637SOL    HW219540   2.089   2.438  25.313
 2638SOL     OW19541   1.798   0.699  21.516
 2638SOL    HW119542   1.849   0.732  21.442
 2638SOL    HW219543   1.833   0.611  21.531
 2639SOL     OW19544   1.255   3.357   6.577
 2639SOL    HW119545   1.185   3.316   6.628
 2639SOL    HW219546   1.295   3.420   6.637
 2640SOL     OW19547   1.872   4.514  27.383
 2640SOL    HW119548   1.838   4.444  27.328
 2640SOL    HW219549   1.800   4.535  27.443
 2641SOL     OW19550   3.036   0.705  23.673
 2641SOL    HW119551   3.014   0.743  23.588
 2641SOL    HW219552   2.956   0.715  23.724
 2642SOL     OW19553   4.307   3.073   7.150
 2642SOL    HW119554   4.266   3.062   7.236
 2642SOL    HW219555   4.235   3.067   7.088
 2643SOL     OW19556   2.368   2.401   1.572
 2643SOL    HW119557   2.308   2.361   1.509
 2643SOL    HW219558   2.419   2.328   1.606
 2644SOL     OW19559   2.285   1.122   1.016
 2644SOL    HW119560   2.285   1.205   0.969
 2644SOL    HW219561   2.196   1.114   1.051
 2645SOL     OW19562   2.470   1.078  24.914
 2645SOL    HW119563   2.417   1.022  24.857
 2645SOL    HW219564   2.521   1.132  24.853
 2646SOL     OW19565   3.440   2.185  25.095
 2646SOL    HW119566   3.427   2.090  25.097
 2646SOL    HW219567   3.366   2.219  25.146
 2647SOL     OW19568   1.943   1.126   0.107
 2647SOL    HW119569   1.849   1.141   0.109
 2647SOL    HW219570   1.974   1.153   0.193
 2648SOL     OW19571   3.830   1.706   0.098
 2648SOL    HW119572   3.787   1.735   0.178
 2648SOL    HW219573   3.923   1.712   0.117
 2649SOL     OW19574   2.101   0.087  22.698
 2649SOL    HW119575   2.067   0.077  22.787
 2649SOL    HW219576   2.024   0.102  22.644
 2650SOL     OW19577   0.431   3.195   8.731
 2650SOL    HW119578   0.490   3.149   8.790
 2650SOL    HW219579   0.451   3.288   8.744
 2651SOL     OW19580   4.116   0.109   5.723
 2651SOL    HW119581   4.196   0.063   5.750
 2651SOL    HW219582   4.116   0.190   5.775
 2652SOL     OW19583   3.445   1.577   9.957
 2652SOL    HW119584   3.426   1.486   9.983
 2652SOL    HW219585   3.504   1.609  10.025
 2653SOL     OW19586   3.590   3.022  21.061
 2653SOL    HW119587   3.543   3.104  21.043
 2653SOL    HW219588   3.622   3.032  21.151
 2654SOL     OW19589   2.159   4.130  23.246
 2654SOL    HW119590   2.070   4.126  23.213
 2654SOL    HW219591   2.167   4.055  23.305
 2655SOL     OW19592   1.068   2.095   9.273
 2655SOL    HW119593   1.132   2.051   9.329
 2655SOL    HW219594   1.116   2.169   9.236
 2656SOL     OW19595   0.055   0.091   1.011
 2656SOL    HW119596   4.744   0.093   0.985
 2656SOL    HW219597   0.094   0.023   0.956
 2657SOL     OW19598   2.791   2.812  25.043
 2657SOL    HW119599   2.776   2.872  25.116
 2657SOL    HW219600   2.872   2.766  25.066
 2658SOL     OW19601   0.890   2.738   2.310
 2658SOL    HW119602   0.953   2.679   2.352
 2658SOL    HW219603   0.898   2.820   2.359
 2659SOL     OW19604   3.025   2.969   4.718
 2659SOL    HW119605   2.940   3.013   4.714
 2659SOL    HW219606   3.078   3.027   4.773
 2660SOL     OW19607   0.658   3.364  22.634
 2660SOL    HW119608   0.627   3.335  22.720
 2660SOL    HW219609   0.737   3.314  22.619
 2661SOL     OW19610   0.566   4.019   9.720
 2661SOL    HW119611   0.506   4.074   9.670
 2661SOL    HW219612   0.515   3.989   9.795
 2662SOL     OW19613   2.446   1.468   7.684
 2662SOL    HW119614   2.508   1.430   7.746
 2662SOL    HW219615   2.443   1.561   7.706
 2663SOL     OW19616   3.124   1.988  23.317
 2663SOL    HW119617   3.154   1.981  23.408
 2663SOL    HW219618   3.106   1.897  23.291
 2664SOL     OW19619   2.178   1.156   2.682
 2664SOL    HW119620   2.135   1.220   2.739
 2664SOL    HW219621   2.241   1.206   2.632
 2665SOL     OW19622   3.370   2.419   4.562
 2665SOL    HW119623   3.284   2.445   4.528
 2665SOL    HW219624   3.403   2.357   4.497
 2666SOL     OW19625   1.135   1.559   1.963
 2666SOL    HW119626   1.218   1.600   1.937
 2666SOL    HW219627   1.160   1.493   2.028
 2667SOL     OW19628   3.580   2.213  24.603
 2667SOL    HW119629   3.668   2.229  24.568
 2667SOL    HW219630   3.593   2.149  24.672
 2668SOL     OW19631   1.097   3.908  26.055
 2668SOL    HW119632   1.057   3.995  26.064
 2668SOL    HW219633   1.191   3.925  26.063
 2669SOL     OW19634   1.593   0.099   1.683
 2669SOL    HW119635   1.504   0.127   1.703
 2669SOL    HW219636   1.644   0.125   1.760
 2670SOL     OW19637   4.015   1.990   7.902
 2670SOL    HW119638   3.993   2.001   7.994
 2670SOL    HW219639   4.078   2.060   7.883
 2671SOL     OW19640   3.382   4.062  21.013
 2671SOL    HW119641   3.299   4.106  20.994
 2671SOL    HW219642   3.360   3.997  21.079
 2672SOL     OW19643   0.763   1.992   6.145
 2672SOL    HW119644   0.692   2.046   6.112
 2672SOL    HW219645   0.724   1.905   6.157
 2673SOL     OW19646   4.409   4.568   6.555
 2673SOL    HW119647   4.404   4.503   6.625
 2673SOL    HW219648   4.442   4.519   6.480
 2674SOL     OW19649   1.309   2.798   8.460
 2674SOL    HW119650   1.353   2.715   8.446
 2674SOL    HW219651   1.314   2.842   8.375
 2675SOL     OW19652   2.016   1.808   4.727
 2675SOL    HW119653   2.091   1.794   4.784
 2675SOL    HW219654   1.997   1.902   4.735
 2676SOL     OW19655   4.158   3.311  27.667
 2676SOL    HW119656   4.087   3.346  27.613
 2676SOL    HW219657   4.117   3.294  27.752
 2677SOL     OW19658   0.116   4.512  21.873
 2677SOL    HW119659   0.090   4.584  21.930
 2677SOL    HW219660   0.072   4.435  21.908
 2678SOL     OW19661   0.908   4.697   2.699
 2678SOL    HW119662   0.981   4.639   2.678
 2678SOL    HW219663   0.943   4.759   2.763
 2679SOL     OW19664   2.608   3.250   5.918
 2679SOL    HW119665   2.617   3.235   6.012
 2679SOL    HW219666   2.514   3.253   5.903
 2680SOL     OW19667   0.417   1.712  21.334
 2680SOL    HW119668   0.417   1.799  21.375
 2680SOL    HW219669   0.366   1.657  21.393
 2681SOL     OW19670   4.400   2.460   5.455
 2681SOL    HW119671   4.332   2.393   5.458
 2681SOL    HW219672   4.423   2.475   5.546
 2682SOL     OW19673   1.908   4.361  22.189
 2682SOL    HW119674   1.830   4.334  22.238
 2682SOL    HW219675   1.928   4.285  22.133
 2683SOL     OW19676   3.028   0.562  26.136
 2683SOL    HW119677   3.065   0.476  26.157
 2683SOL    HW219678   3.009   0.601  26.221
 2684SOL     OW19679   0.823   2.046   6.471
 2684SOL    HW119680   0.885   2.105   6.428
 2684SOL    HW219681   0.801   1.981   6.404
 2685SOL     OW19682   0.717   1.755  22.660
 2685SOL    HW119683   0.624   1.739  22.640
 2685SOL    HW219684   0.755   1.783  22.577
 2686SOL     OW19685   0.026   3.217  22.590
 2686SOL    HW119686   0.025   3.126  22.620
 2686SOL    HW219687   0.025   3.268  22.671
 2687SOL     OW19688   2.056   2.414  20.071
 2687SOL    HW119689   2.049   2.498  20.117
 2687SOL    HW219690   1.965   2.391  20.050
 2688SOL     OW19691   3.656   1.742   0.657
 2688SOL    HW119692   3.579   1.793   0.683
 2688SOL    HW219693   3.660   1.670   0.720
 2689SOL     OW19694   3.069   0.270   1.131
 2689SOL    HW119695   3.146   0.214   1.127
 2689SOL    HW219696   3.003   0.225   1.078
 2690SOL     OW19697   1.074   0.312  22.528
 2690SOL    HW119698   1.143   0.330  22.591
 2690SOL    HW219699   1.026   0.237  22.565
 2691SOL     OW19700   0.072   3.774  23.044
 2691SOL    HW119701   0.045   3.711  22.977
 2691SOL    HW219702   0.098   3.852  22.994
 2692SOL     OW19703   1.341   0.898   2.804
 2692SOL    HW119704   1.284   0.828   2.772
 2692SOL    HW219705   1.412   0.851   2.849
 2693SOL     OW19706   2.710   3.298  26.874
 2693SOL    HW119707   2.721   3.205  26.895
 2693SOL    HW219708   2.682   3.338  26.957
 2694SOL     OW19709   0.218   1.350  26.086
 2694SOL    HW119710   0.218   1.444  26.104
 2694SOL    HW219711   0.127   1.323  26.096
 2695SOL     OW19712   0.855   3.259   2.579
 2695SOL    HW119713   0.913   3.213   2.518
 2695SOL    HW219714   0.862   3.210   2.661
 2696SOL     OW19715   1.706   1.399  26.469
 2696SOL    HW119716   1.777   1.451  26.432
 2696SOL    HW219717   1.717   1.407  26.563
 2697SOL     OW19718   0.794   1.055   1.727
 2697SOL    HW119719   0.739   1.133   1.716
 2697SOL    HW219720   0.786   1.008   1.644
 2698SOL     OW19721   3.727   3.664  22.830
 2698SOL    HW119722   3.681   3.606  22.770
 2698SOL    HW219723   3.797   3.702  22.778
 2699SOL     OW19724   0.633   3.419  24.055
 2699SOL    HW119725   0.600   3.459  24.135
 2699SOL    HW219726   0.709   3.472  24.031
 2700SOL     OW19727   3.862   2.234  11.893
 2700SOL    HW119728   3.843   2.201  11.981
 2700SOL    HW219729   3.958   2.241  11.890
 2701SOL     OW19730   0.459   2.311  26.945
 2701SOL    HW119731   0.395   2.269  26.887
 2701SOL    HW219732   0.450   2.405  26.926
 2702SOL     OW19733   4.353   1.058   2.946
 2702SOL    HW119734   4.298   1.010   2.883
 2702SOL    HW219735   4.424   1.094   2.893
 2703SOL     OW19736   1.877   0.208   3.314
 2703SOL    HW119737   1.893   0.303   3.312
 2703SOL    HW219738   1.940   0.172   3.252
 2704SOL     OW19739   4.707   0.369  22.096
 2704SOL    HW119740   4.770   0.399  22.031
 2704SOL    HW219741   4.731   0.278  22.113
 2705SOL     OW19742   2.518   4.692   5.893
 2705SOL    HW119743   2.500   4.644   5.811
 2705SOL    HW219744   2.605   4.662   5.919
 2706SOL     OW19745   2.293   1.069  24.343
 2706SOL    HW119746   2.349   1.144  24.363
 2706SOL    HW219747   2.213   1.107  24.307
 2707SOL     OW19748   0.108   2.560   6.433
 2707SOL    HW119749   0.049   2.525   6.366
 2707SOL    HW219750   0.160   2.485   6.461
 2708SOL     OW19751   2.309   4.357   4.050
 2708SOL    HW119752   2.246   4.412   4.098
 2708SOL    HW219753   2.291   4.268   4.081
 2709SOL     OW19754   4.073   1.727   0.260
 2709SOL    HW119755   4.049   1.778   0.338
 2709SOL    HW219756   4.151   1.679   0.286
 2710SOL     OW19757   0.964   4.550   2.232
 2710SOL    HW119758   0.967   4.472   2.177
 2710SOL    HW219759   1.055   4.579   2.238
 2711SOL     OW19760   0.900   3.064   0.311
 2711SOL    HW119761   0.921   3.126   0.381
 2711SOL    HW219762   0.982   3.057   0.261
 2712SOL     OW19763   1.622   0.531  23.317
 2712SOL    HW119764   1.594   0.444  23.289
 2712SOL    HW219765   1.712   0.518  23.348
 2713SOL     OW19766   1.713   2.492  27.356
 2713SOL    HW119767   1.737   2.502  27.264
 2713SOL    HW219768   1.626   2.531  27.363
 2714SOL     OW19769   0.459   2.592   0.895
 2714SOL    HW119770   0.365   2.588   0.913
 2714SOL    HW219771   0.478   2.685   0.887
 2715SOL     OW19772   2.835   0.355  23.361
 2715SOL    HW119773   2.767   0.340  23.426
 2715SOL    HW219774   2.915   0.368  23.413
 2716SOL     OW19775   0.319   2.973  21.621
 2716SOL    HW119776   0.341   2.941  21.533
 2716SOL    HW219777   0.269   2.902  21.660
 2717SOL     OW19778   0.423   2.337   2.479
 2717SOL    HW119779   0.411   2.406   2.545
 2717SOL    HW219780   0.483   2.376   2.415
 2718SOL     OW19781   1.512   2.397  26.788
 2718SOL    HW119782   1.436   2.395  26.729
 2718SOL    HW219783   1.582   2.354  26.739
 2719SOL     OW19784   0.080   1.820  10.304
 2719SOL    HW119785   0.144   1.749  10.311
 2719SOL    HW219786   4.779   1.782  10.334
 2720SOL     OW19787   0.766   4.669  20.081
 2720SOL    HW119788   0.824   4.629  20.146
 2720SOL    HW219789   0.802   4.641  19.997
 2721SOL     OW19790   1.454   1.234   8.211
 2721SOL    HW119791   1.466   1.217   8.117
 2721SOL    HW219792   1.540   1.214   8.250
 2722SOL     OW19793   2.486   1.306  20.166
 2722SOL    HW119794   2.440   1.295  20.249
 2722SOL    HW219795   2.461   1.394  20.136
 2723SOL     OW19796   2.441   2.191   7.249
 2723SOL    HW119797   2.385   2.122   7.285
 2723SOL    HW219798   2.447   2.255   7.320
 2724SOL     OW19799   3.700   1.070  10.523
 2724SOL    HW119800   3.689   1.165  10.524
 2724SOL    HW219801   3.793   1.057  10.543
 2725SOL     OW19802   0.719   2.087   4.163
 2725SOL    HW119803   0.639   2.109   4.211
 2725SOL    HW219804   0.779   2.159   4.182
 2726SOL     OW19805   0.823   1.756   6.357
 2726SOL    HW119806   0.891   1.775   6.421
 2726SOL    HW219807   0.830   1.662   6.341
 2727SOL     OW19808   1.914   3.418  20.764
 2727SOL    HW119809   1.999   3.462  20.756
 2727SOL    HW219810   1.866   3.470  20.827
 2728SOL     OW19811   0.582   4.278  26.038
 2728SOL    HW119812   0.537   4.207  25.993
 2728SOL    HW219813   0.513   4.342  26.056
 2729SOL     OW19814   1.393   3.468  19.263
 2729SOL    HW119815   1.323   3.467  19.198
 2729SOL    HW219816   1.471   3.496  19.215
 2730SOL     OW19817   2.453   3.421   7.570
 2730SOL    HW119818   2.437   3.423   7.664
 2730SOL    HW219819   2.522   3.355   7.559
 2731SOL     OW19820   2.828   0.687  22.173
 2731SOL    HW119821   2.821   0.601  22.215
 2731SOL    HW219822   2.895   0.675  22.106
 2732SOL     OW19823   4.198   0.231   5.471
 2732SOL    HW119824   4.187   0.165   5.539
 2732SOL    HW219825   4.240   0.185   5.399
 2733SOL     OW19826   2.576   3.874  20.832
 2733SOL    HW119827   2.503   3.881  20.895
 2733SOL    HW219828   2.627   3.953  20.847
 2734SOL     OW19829   2.463   2.967  20.808
 2734SOL    HW119830   2.472   2.873  20.789
 2734SOL    HW219831   2.528   3.009  20.752
 2735SOL     OW19832   1.241   0.476  23.121
 2735SOL    HW119833   1.223   0.431  23.204
 2735SOL    HW219834   1.256   0.405  23.059
 2736SOL     OW19835   4.473   2.382  21.074
 2736SOL    HW119836   4.506   2.368  21.162
 2736SOL    HW219837   4.465   2.294  21.037
 2737SOL     OW19838   1.111   2.086   5.343
 2737SOL    HW119839   1.027   2.039   5.345
 2737SOL    HW219840   1.089   2.175   5.368
 2738SOL     OW19841   4.043   4.602   2.964
 2738SOL    HW119842   4.095   4.618   3.043
 2738SOL    HW219843   4.106   4.570   2.900
 2739SOL     OW19844   3.563   3.489  26.536
 2739SOL    HW119845   3.524   3.576  26.531
 2739SOL    HW219846   3.609   3.478  26.452
 2740SOL     OW19847   4.537   3.728  21.460
 2740SOL    HW119848   4.478   3.695  21.393
 2740SOL    HW219849   4.574   3.808  21.423
 2741SOL     OW19850   0.550   0.008  25.811
 2741SOL    HW119851   0.636   4.773  25.772
 2741SOL    HW219852   0.542   0.103  25.815
 2742SOL     OW19853   4.425   3.964  19.074
 2742SOL    HW119854   4.424   3.936  18.983
 2742SOL    HW219855   4.494   3.911  19.115
 2743SOL     OW19856   1.450   0.110  27.383
 2743SOL    HW119857   1.414   0.154  27.460
 2743SOL    HW219858   1.528   0.065  27.416
 2744SOL     OW19859   1.882   4.116   9.691
 2744SOL    HW119860   1.958   4.069   9.725
 2744SOL    HW219861   1.916   4.199   9.658
 2745SOL     OW19862   4.288   3.357   7.085
 2745SOL    HW119863   4.355   3.426   7.093
 2745SOL    HW219864   4.306   3.298   7.158
 2746SOL     OW19865   3.187   4.059  22.682
 2746SOL    HW119866   3.181   4.155  22.686
 2746SOL    HW219867   3.246   4.041  22.609
 2747SOL     OW19868   3.572   1.318  21.022
 2747SOL    HW119869   3.546   1.268  21.099
 2747SOL    HW219870   3.664   1.339  21.036
 2748SOL     OW19871   4.036   1.328  24.616
 2748SOL    HW119872   4.009   1.269  24.546
 2748SOL    HW219873   4.004   1.286  24.696
 2749SOL     OW19874   3.910   3.594   7.668
 2749SOL    HW119875   3.844   3.638   7.722
 2749SOL    HW219876   3.868   3.513   7.640
 2750SOL     OW19877   3.421   1.677  26.410
 2750SOL    HW119878   3.356   1.736  26.448
 2750SOL    HW219879   3.385   1.590  26.424
 2751SOL     OW19880   3.973   1.887   4.641
 2751SOL    HW119881   4.060   1.897   4.680
 2751SOL    HW219882   3.952   1.974   4.607
 2752SOL     OW19883   0.808   1.570  19.234
 2752SOL    HW119884   0.826   1.570  19.328
 2752SOL    HW219885   0.800   1.477  19.212
 2753SOL     OW19886   2.599   1.687  25.854
 2753SOL    HW119887   2.661   1.617  25.833
 2753SOL    HW219888   2.614   1.705  25.947
 2754SOL     OW19889   2.924   3.730  21.734
 2754SOL    HW119890   2.984   3.769  21.797
 2754SOL    HW219891   2.886   3.655  21.780
 2755SOL     OW19892   1.256   2.597  17.832
 2755SOL    HW119893   1.162   2.581  17.826
 2755SOL    HW219894   1.294   2.543  17.763
 2756SOL     OW19895   3.639   3.734   6.457
 2756SOL    HW119896   3.723   3.732   6.503
 2756SOL    HW219897   3.577   3.693   6.517
 2757SOL     OW19898   0.388   3.231  21.029
 2757SOL    HW119899   0.433   3.304  20.986
 2757SOL    HW219900   0.452   3.161  21.031
 2758SOL     OW19901   4.460   2.945  24.817
 2758SOL    HW119902   4.505   2.861  24.807
 2758SOL    HW219903   4.397   2.931  24.887
 2759SOL     OW19904   0.757   3.838   8.663
 2759SOL    HW119905   0.666   3.813   8.676
 2759SOL    HW219906   0.756   3.934   8.660
 2760SOL     OW19907   0.460   1.485  25.037
 2760SOL    HW119908   0.465   1.429  25.115
 2760SOL    HW219909   0.549   1.521  25.029
 2761SOL     OW19910   0.743   1.040   0.148
 2761SOL    HW119911   0.684   0.964   0.149
 2761SOL    HW219912   0.826   1.006   0.183
 2762SOL     OW19913   0.171   3.731  18.708
 2762SOL    HW119914   0.212   3.662  18.656
 2762SOL    HW219915   0.085   3.695  18.732
 2763SOL     OW19916   4.325   4.515  20.690
 2763SOL    HW119917   4.267   4.554  20.755
 2763SOL    HW219918   4.267   4.488  20.618
 2764SOL     OW19919   2.295   4.145   7.738
 2764SOL    HW119920   2.324   4.230   7.704
 2764SOL    HW219921   2.313   4.084   7.667
 2765SOL     OW19922   4.713   0.319  19.224
 2765SOL    HW119923   0.025   0.329  19.246
 2765SOL    HW219924   4.697   0.386  19.158
 2766SOL     OW19925   2.893   2.627   1.097
 2766SOL    HW119926   2.806   2.627   1.057
 2766SOL    HW219927   2.954   2.638   1.024
 2767SOL     OW19928   0.527   4.218  25.541
 2767SOL    HW119929   0.563   4.302  25.571
 2767SOL    HW219930   0.601   4.158  25.546
 2768SOL     OW19931   1.628   0.560   4.490
 2768SOL    HW119932   1.644   0.593   4.401
 2768SOL    HW219933   1.533   0.567   4.501
 2769SOL     OW19934   3.960   0.908   7.914
 2769SOL    HW119935   4.027   0.943   7.856
 2769SOL    HW219936   3.927   0.984   7.962
 2770SOL     OW19937   3.709   4.604   7.857
 2770SOL    HW119938   3.642   4.672   7.858
 2770SOL    HW219939   3.698   4.560   7.773
 2771SOL     OW19940   0.498   2.353   2.057
 2771SOL    HW119941   0.558   2.373   1.986
 2771SOL    HW219942   0.548   2.370   2.137
 2772SOL     OW19943   4.194   0.902  22.984
 2772SOL    HW119944   4.172   0.831  23.045
 2772SOL    HW219945   4.236   0.857  22.911
 2773SOL     OW19946   1.931   0.531  23.937
 2773SOL    HW119947   1.948   0.472  24.011
 2773SOL    HW219948   1.915   0.473  23.863
 2774SOL     OW19949   1.271   3.606  24.023
 2774SOL    HW119950   1.247   3.698  24.022
 2774SOL    HW219951   1.312   3.593  24.108
 2775SOL     OW19952   2.488   3.794  27.625
 2775SOL    HW119953   2.432   3.732  27.578
 2775SOL    HW219954   2.513   3.749  27.706
 2776SOL     OW19955   1.742   1.366   7.154
 2776SOL    HW119956   1.701   1.453   7.154
 2776SOL    HW219957   1.668   1.306   7.145
 2777SOL     OW19958   3.704   3.911  25.965
 2777SOL    HW119959   3.693   3.827  26.010
 2777SOL    HW219960   3.753   3.889  25.886
 2778SOL     OW19961   0.406   2.153   5.345
 2778SOL    HW119962   0.361   2.227   5.305
 2778SOL    HW219963   0.384   2.159   5.438
 2779SOL     OW19964   2.443   1.899   0.581
 2779SOL    HW119965   2.528   1.870   0.616
 2779SOL    HW219966   2.462   1.920   0.489
 2780SOL     OW19967   3.794   4.741  10.657
 2780SOL    HW119968   3.754   0.009  10.729
 2780SOL    HW219969   3.868   0.015  10.629
 2781SOL     OW19970   1.733   3.605  22.986
 2781SOL    HW119971   1.735   3.519  23.029
 2781SOL    HW219972   1.813   3.648  23.016
 2782SOL     OW19973   0.040   0.151  27.200
 2782SOL    HW119974   4.765   0.073  27.196
 2782SOL    HW219975   0.023   0.197  27.118
 2783SOL     OW19976   3.129   3.353   9.912
 2783SOL    HW119977   3.080   3.433   9.891
 2783SOL    HW219978   3.072   3.306   9.973
 2784SOL     OW19979   0.583   4.164   4.693
 2784SOL    HW119980   0.586   4.071   4.718
 2784SOL    HW219981   0.656   4.204   4.741
 2785SOL     OW19982   1.132   0.134   5.131
 2785SOL    HW119983   1.086   0.076   5.070
 2785SOL    HW219984   1.064   0.163   5.192
 2786SOL     OW19985   1.446   0.935  22.110
 2786SOL    HW119986   1.485   0.949  22.024
 2786SOL    HW219987   1.461   1.017  22.157
 2787SOL     OW19988   0.739   2.597  25.595
 2787SOL    HW119989   0.763   2.588  25.687
 2787SOL    HW219990   0.770   2.684  25.570
 2788SOL     OW19991   3.394   1.686  19.136
 2788SOL    HW119992   3.308   1.719  19.161
 2788SOL    HW219993   3.376   1.630  19.060
 2789SOL     OW19994   2.602   4.467   2.750
 2789SOL    HW119995   2.601   4.527   2.825
 2789SOL    HW219996   2.510   4.455   2.727
 2790SOL     OW19997   4.290   0.629   7.044
 2790SOL    HW119998   4.270   0.700   6.983
 2790SOL    HW219999   4.262   0.549   7.000
 2791SOL     OW20000   4.549   1.619  20.774
 2791SOL    HW120001   4.561   1.598  20.682
 2791SOL    HW220002   4.466   1.667  20.778
 2792SOL     OW20003   4.619   1.862   7.618
 2792SOL    HW120004   4.700   1.823   7.585
 2792SOL    HW220005   4.567   1.879   7.540
 2793SOL     OW20006   1.563   1.184  28.282
 2793SOL    HW120007   1.475   1.185  28.244
 2793SOL    HW220008   1.555   1.129  28.360
 2794SOL     OW20009   1.672   3.311  25.890
 2794SOL    HW120010   1.667   3.387  25.832
 2794SOL    HW220011   1.672   3.236  25.831
 2795SOL     OW20012   2.633   4.047   2.025
 2795SOL    HW120013   2.712   4.088   2.060
 2795SOL    HW220014   2.588   4.012   2.101
 2796SOL     OW20015   2.728   0.915   3.322
 2796SOL    HW120016   2.796   0.941   3.383
 2796SOL    HW220017   2.659   0.877   3.376
 2797SOL     OW20018   4.694   3.599  27.722
 2797SOL    HW120019   4.599   3.608  27.730
 2797SOL    HW220020   4.719   3.551  27.801
 2798SOL     OW20021   0.479   3.338   6.079
 2798SOL    HW120022   0.428   3.355   6.000
 2798SOL    HW220023   0.427   3.273   6.128
 2799SOL     OW20024   3.116   0.443  22.455
 2799SOL    HW120025   3.051   0.389  22.501
 2799SOL    HW220026   3.199   0.399  22.470
 2800SOL     OW20027   1.547   3.785   2.349
 2800SOL    HW120028   1.569   3.746   2.434
 2800SOL    HW220029   1.619   3.759   2.292
 2801SOL     OW20030   4.409   1.941  25.008
 2801SOL    HW120031   4.476   1.889  24.963
 2801SOL    HW220032   4.369   1.993  24.939
 2802SOL     OW20033   4.508   1.574   8.533
 2802SOL    HW120034   4.471   1.533   8.455
 2802SOL    HW220035   4.514   1.504   8.597
 2803SOL     OW20036   0.219   2.872  22.751
 2803SOL    HW120037   0.268   2.843  22.828
 2803SOL    HW220038   0.284   2.915  22.696
 2804SOL     OW20039   2.143   4.054   6.166
 2804SOL    HW120040   2.209   3.990   6.195
 2804SOL    HW220041   2.095   4.008   6.097
 2805SOL     OW20042   1.037   2.181   6.881
 2805SOL    HW120043   1.002   2.246   6.821
 2805SOL    HW220044   1.116   2.221   6.917
 2806SOL     OW20045   3.191   1.671   0.090
 2806SOL    HW120046   3.203   1.735   0.020
 2806SOL    HW220047   3.100   1.683   0.118
 2807SOL     OW20048   4.136   0.637  19.676
 2807SOL    HW120049   4.165   0.726  19.695
 2807SOL    HW220050   4.063   0.623  19.736
 2808SOL     OW20051   0.259   4.147   0.323
 2808SOL    HW120052   0.164   4.140   0.332
 2808SOL    HW220053   0.274   4.233   0.284
 2809SOL     OW20054   4.241   1.253  10.945
 2809SOL    HW120055   4.161   1.299  10.966
 2809SOL    HW220056   4.295   1.318  10.900
 2810SOL     OW20057   3.672   4.560   9.358
 2810SOL    HW120058   3.744   4.508   9.324
 2810SOL    HW220059   3.705   4.650   9.359
 2811SOL     OW20060   3.526   2.847  20.548
 2811SOL    HW120061   3.476   2.821  20.626
 2811SOL    HW220062   3.589   2.776  20.536
 2812SOL     OW20063   3.277   2.034  20.019
 2812SOL    HW120064   3.264   2.114  20.071
 2812SOL    HW220065   3.370   2.014  20.029
 2813SOL     OW20066   1.314   1.296   9.590
 2813SOL    HW120067   1.348   1.300   9.680
 2813SOL    HW220068   1.231   1.248   9.598
 2814SOL     OW20069   4.526   1.013  21.590
 2814SOL    HW120070   4.589   1.065  21.638
 2814SOL    HW220071   4.443   1.025  21.637
 2815SOL     OW20072   1.630   3.810   8.047
 2815SOL    HW120073   1.636   3.737   8.108
 2815SOL    HW220074   1.536   3.826   8.037
 2816SOL     OW20075   3.152   2.521   3.238
 2816SOL    HW120076   3.236   2.527   3.194
 2816SOL    HW220077   3.173   2.529   3.331
 2817SOL     OW20078   2.119   2.883   0.287
 2817SOL    HW120079   2.124   2.816   0.355
 2817SOL    HW220080   2.053   2.851   0.226
 2818SOL     OW20081   4.524   3.901   9.033
 2818SOL    HW120082   4.592   3.842   9.067
 2818SOL    HW220083   4.453   3.843   9.006
 2819SOL     OW20084   0.028   1.568   0.151
 2819SOL    HW120085   0.028   1.499   0.218
 2819SOL    HW220086   4.716   1.578   0.127
 2820SOL     OW20087   2.509   4.612  26.029
 2820SOL    HW120088   2.417   4.615  26.055
 2820SOL    HW220089   2.522   4.692  25.978
 2821SOL     OW20090   0.024   4.326   1.708
 2821SOL    HW120091   4.711   4.306   1.708
 2821SOL    HW220092   0.031   4.407   1.759
 2822SOL     OW20093   3.744   1.813  25.840
 2822SOL    HW120094   3.681   1.864  25.891
 2822SOL    HW220095   3.823   1.867  25.840
 2823SOL     OW20096   1.742   4.415  18.260
 2823SOL    HW120097   1.710   4.504  18.247
 2823SOL    HW220098   1.737   4.375  18.173
 2824SOL     OW20099   1.007   3.476   6.064
 2824SOL    HW120100   0.913   3.462   6.059
 2824SOL    HW220101   1.030   3.454   6.155
 2825SOL     OW20102   0.228   3.948  25.793
 2825SOL    HW120103   0.150   3.923  25.843
 2825SOL    HW220104   0.264   4.024  25.839
 2826SOL     OW20105   2.497   0.744   7.272
 2826SOL    HW120106   2.469   0.773   7.185
 2826SOL    HW220107   2.487   0.648   7.270
 2827SOL     OW20108   4.700   3.317  23.104
 2827SOL    HW120109   4.631   3.361  23.153
 2827SOL    HW220110   4.703   3.228  23.141
 2828SOL     OW20111   0.801   0.587   8.227
 2828SOL    HW120112   0.739   0.649   8.189
 2828SOL    HW220113   0.879   0.593   8.172
 2829SOL     OW20114   2.824   4.589  18.863
 2829SOL    HW120115   2.742   4.548  18.834
 2829SOL    HW220116   2.868   4.521  18.914
 2830SOL     OW20117   4.093   4.045   2.383
 2830SOL    HW120118   4.044   4.078   2.458
 2830SOL    HW220119   4.184   4.046   2.413
 2831SOL     OW20120   3.115   0.146  24.620
 2831SOL    HW120121   3.137   0.114  24.533
 2831SOL    HW220122   3.037   0.096  24.645
 2832SOL     OW20123   4.650   0.573   3.945
 2832SOL    HW120124   4.660   0.478   3.939
 2832SOL    HW220125   4.557   0.587   3.961
 2833SOL     OW20126   0.833   3.602  25.188
 2833SOL    HW120127   0.857   3.536  25.252
 2833SOL    HW220128   0.786   3.554  25.120
 2834SOL     OW20129   3.118   1.459   7.571
 2834SOL    HW120130   3.190   1.515   7.542
 2834SOL    HW220131   3.108   1.394   7.501
 2835SOL     OW20132   4.679   0.104  10.676
 2835SOL    HW120133   4.736   0.146  10.612
 2835SOL    HW220134   4.635   0.034  10.628
 2836SOL     OW20135   4.005   1.009   7.021
 2836SOL    HW120136   4.087   0.985   7.064
 2836SOL    HW220137   3.948   1.037   7.093
 2837SOL     OW20138   3.431   0.651   5.250
 2837SOL    HW120139   3.358   0.707   5.222
 2837SOL    HW220140   3.436   0.664   5.344
 2838SOL     OW20141   0.256   3.279  21.937
 2838SOL    HW120142   0.336   3.266  21.987
 2838SOL    HW220143   0.279   3.342  21.869
 2839SOL     OW20144   2.847   3.362  26.082
 2839SOL    HW120145   2.898   3.418  26.140
 2839SOL    HW220146   2.760   3.401  26.081
 2840SOL     OW20147   3.219   0.867  27.051
 2840SOL    HW120148   3.192   0.824  26.970
 2840SOL    HW220149   3.277   0.805  27.094
 2841SOL     OW20150   3.779   0.032  22.586
 2841SOL    HW120151   3.751   4.738  22.640
 2841SOL    HW220152   3.874   0.033  22.594
 2842SOL     OW20153   3.934   4.394  21.562
 2842SOL    HW120154   3.860   4.420  21.507
 2842SOL    HW220155   4.011   4.411  21.507
 2843SOL     OW20156   4.231   2.109   1.449
 2843SOL    HW120157   4.201   2.085   1.537
 2843SOL    HW220158   4.210   2.202   1.441
 2844SOL     OW20159   3.941   1.628  26.230
 2844SOL    HW120160   3.846   1.625  26.239
 2844SOL    HW220161   3.970   1.539  26.249
 2845SOL     OW20162   1.158   1.391  18.099
 2845SOL    HW120163   1.069   1.427  18.093
 2845SOL    HW220164   1.183   1.372  18.009
 2846SOL     OW20165   2.339   3.197  19.562
 2846SOL    HW120166   2.248   3.189  19.589
 2846SOL    HW220167   2.386   3.131  19.613
 2847SOL     OW20168   0.073   1.456  20.156
 2847SOL    HW120169   4.777   1.399  20.166
 2847SOL    HW220170   0.036   1.541  20.132
 2848SOL     OW20171   1.895   1.559   0.786
 2848SOL    HW120172   1.893   1.572   0.881
 2848SOL    HW220173   1.910   1.646   0.750
 2849SOL     OW20174   1.822   2.391  21.404
 2849SOL    HW120175   1.889   2.356  21.346
 2849SOL    HW220176   1.864   2.396  21.490
 2850SOL     OW20177   1.452   2.700   4.964
 2850SOL    HW120178   1.535   2.656   4.983
 2850SOL    HW220179   1.464   2.738   4.877
 2851SOL     OW20180   0.343   4.069  24.790
 2851SOL    HW120181   0.427   4.113  24.799
 2851SOL    HW220182   0.339   4.008  24.864
 2852SOL     OW20183   1.339   2.191  21.910
 2852SOL    HW120184   1.329   2.232  21.824
 2852SOL    HW220185   1.411   2.238  21.951
 2853SOL     OW20186   3.628   2.118   7.969
 2853SOL    HW120187   3.647   2.130   7.876
 2853SOL    HW220188   3.608   2.206   8.001
 2854SOL     OW20189   4.419   4.258   3.054
 2854SOL    HW120190   4.404   4.348   3.024
 2854SOL    HW220191   4.483   4.223   2.993
 2855SOL     OW20192   2.020   4.613  22.245
 2855SOL    HW120193   2.067   4.626  22.162
 2855SOL    HW220194   2.007   4.518  22.249
 2856SOL     OW20195   0.534   3.083  21.817
 2856SOL    HW120196   0.479   3.068  21.740
 2856SOL    HW220197   0.605   3.018  21.809
 2857SOL     OW20198   0.663   2.458  27.248
 2857SOL    HW120199   0.684   2.441  27.156
 2857SOL    HW220200   0.662   2.553  27.255
 2858SOL     OW20201   3.770   3.000  20.250
 2858SOL    HW120202   3.699   3.038  20.302
 2858SOL    HW220203   3.826   2.956  20.314
 2859SOL     OW20204   2.804   1.850   1.524
 2859SOL    HW120205   2.773   1.921   1.467
 2859SOL    HW220206   2.886   1.883   1.562
 2860SOL     OW20207   3.630   2.397   6.863
 2860SOL    HW120208   3.572   2.439   6.926
 2860SOL    HW220209   3.580   2.397   6.781
 2861SOL     OW20210   3.833   2.617  24.989
 2861SOL    HW120211   3.840   2.558  25.065
 2861SOL    HW220212   3.867   2.701  25.021
 2862SOL     OW20213   2.753   4.404  21.831
 2862SOL    HW120214   2.822   4.471  21.827
 2862SOL    HW220215   2.675   4.448  21.796
 2863SOL     OW20216   1.939   1.770   6.477
 2863SOL    HW120217   1.933   1.837   6.409
 2863SOL    HW220218   1.998   1.704   6.440
 2864SOL     OW20219   1.647   3.729  27.101
 2864SOL    HW120220   1.648   3.728  27.006
 2864SOL    HW220221   1.586   3.798  27.125
 2865SOL     OW20222   2.446   1.311  26.049
 2865SOL    HW120223   2.409   1.233  26.091
 2865SOL    HW220224   2.369   1.361  26.021
 2866SOL     OW20225   0.737   0.296   2.764
 2866SOL    HW120226   0.812   0.248   2.800
 2866SOL    HW220227   0.670   0.289   2.832
 2867SOL     OW20228   0.453   2.967   4.687
 2867SOL    HW120229   0.506   3.038   4.652
 2867SOL    HW220230   0.382   3.010   4.734
 2868SOL     OW20231   4.495   2.572   5.704
 2868SOL    HW120232   4.420   2.589   5.760
 2868SOL    HW220233   4.553   2.647   5.717
 2869SOL     OW20234   2.912   0.032   4.814
 2869SOL    HW120235   2.836   4.760   4.836
 2869SOL    HW220236   2.987   4.760   4.840
 2870SOL     OW20237   4.421   1.794   0.120
 2870SOL    HW120238   4.355   1.749   0.067
 2870SOL    HW220239   4.400   1.887   0.110
 2871SOL     OW20240   3.820   0.803  19.726
 2871SOL    HW120241   3.886   0.871  19.725
 2871SOL    HW220242   3.775   0.811  19.642
 2872SOL     OW20243   3.719   4.576  25.588
 2872SOL    HW120244   3.736   4.554  25.679
 2872SOL    HW220245   3.667   4.657  25.592
 2873SOL     OW20246   1.847   0.081  27.937
 2873SOL    HW120247   1.752   0.089  27.950
 2873SOL    HW220248   1.882   0.167  27.961
 2874SOL     OW20249   4.642   2.956  18.813
 2874SOL    HW120250   4.679   2.922  18.731
 2874SOL    HW220251   4.577   2.890  18.839
 2875SOL     OW20252   2.308   1.894  26.723
 2875SOL    HW120253   2.257   1.895  26.804
 2875SOL    HW220254   2.383   1.951  26.741
 2876SOL     OW20255   3.609   3.113   3.071
 2876SOL    HW120256   3.601   3.107   3.166
 2876SOL    HW220257   3.565   3.034   3.039
 2877SOL     OW20258   0.376   2.717  25.950
 2877SOL    HW120259   0.371   2.637  26.002
 2877SOL    HW220260   0.326   2.697  25.870
 2878SOL     OW20261   4.678   0.726   7.679
 2878SOL    HW120262   4.718   0.656   7.732
 2878SOL    HW220263   4.590   0.735   7.714
 2879SOL     OW20264   3.060   0.652  22.026
 2879SOL    HW120265   3.136   0.692  22.068
 2879SOL    HW220266   3.040   0.709  21.952
 2880SOL     OW20267   3.656   4.251   2.710
 2880SOL    HW120268   3.563   4.250   2.687
 2880SOL    HW220269   3.667   4.175   2.767
 2881SOL     OW20270   0.165   3.759   8.651
 2881SOL    HW120271   0.090   3.753   8.710
 2881SOL    HW220272   0.161   3.848   8.616
 2882SOL     OW20273   3.188   0.023   6.235
 2882SOL    HW120274   3.160   0.066   6.316
 2882SOL    HW220275   3.196   0.094   6.172
 2883SOL     OW20276   0.382   0.387   1.720
 2883SOL    HW120277   0.430   0.360   1.798
 2883SOL    HW220278   0.389   0.312   1.660
 2884SOL     OW20279   0.877   3.163  10.854
 2884SOL    HW120280   0.830   3.186  10.934
 2884SOL    HW220281   0.849   3.229  10.790
 2885SOL     OW20282   2.657   1.480   8.679
 2885SOL    HW120283   2.619   1.559   8.640
 2885SOL    HW220284   2.647   1.412   8.612
 2886SOL     OW20285   4.239   3.314   4.313
 2886SOL    HW120286   4.253   3.407   4.295
 2886SOL    HW220287   4.145   3.306   4.325
 2887SOL     OW20288   3.405   3.930  22.535
 2887SOL    HW120289   3.391   3.863  22.602
 2887SOL    HW220290   3.493   3.912  22.502
 2888SOL     OW20291   1.207   3.218   0.333
 2888SOL    HW120292   1.256   3.299   0.347
 2888SOL    HW220293   1.131   3.225   0.390
 2889SOL     OW20294   0.775   2.144  12.929
 2889SOL    HW120295   0.748   2.083  12.997
 2889SOL    HW220296   0.837   2.095  12.876
 2890SOL     OW20297   2.946   0.616   4.732
 2890SOL    HW120298   2.966   0.539   4.679
 2890SOL    HW220299   2.922   0.580   4.818
 2891SOL     OW20300   1.683   1.419  26.800
 2891SOL    HW120301   1.727   1.460  26.875
 2891SOL    HW220302   1.669   1.328  26.828
 2892SOL     OW20303   1.053   4.096  24.903
 2892SOL    HW120304   1.034   4.177  24.952
 2892SOL    HW220305   0.976   4.082  24.850
 2893SOL     OW20306   3.269   2.172  21.191
 2893SOL    HW120307   3.195   2.205  21.140
 2893SOL    HW220308   3.233   2.155  21.278
 2894SOL     OW20309   1.334   3.436  10.476
 2894SOL    HW120310   1.297   3.411  10.391
 2894SOL    HW220311   1.428   3.447  10.459
 2895SOL     OW20312   4.356   0.855  20.440
 2895SOL    HW120313   4.279   0.809  20.472
 2895SOL    HW220314   4.425   0.834  20.503
 2896SOL     OW20315   2.049   2.649  23.219
 2896SOL    HW120316   2.086   2.566  23.250
 2896SOL    HW220317   2.009   2.628  23.135
 2897SOL     OW20318   4.138   2.407  21.939
 2897SOL    HW120319   4.196   2.425  22.013
 2897SOL    HW220320   4.143   2.486  21.886
 2898SOL     OW20321   3.662   2.140   0.965
 2898SOL    HW120322   3.740   2.190   0.989
 2898SOL    HW220323   3.639   2.092   1.045
 2899SOL     OW20324   2.424   2.122  28.012
 2899SOL    HW120325   2.519   2.111  28.015
 2899SOL    HW220326   2.392   2.073  28.088
 2900SOL     OW20327   4.577   3.587   6.335
 2900SOL    HW120328   4.673   3.590   6.332
 2900SOL    HW220329   4.554   3.505   6.292
 2901SOL     OW20330   0.988   3.885  22.904
 2901SOL    HW120331   1.006   3.796  22.933
 2901SOL    HW220332   1.067   3.935  22.928
 2902SOL     OW20333   3.998   1.646   4.924
 2902SOL    HW120334   3.960   1.560   4.943
 2902SOL    HW220335   3.947   1.679   4.850
 2903SOL     OW20336   0.795   4.707   9.129
 2903SOL    HW120337   0.834   4.622   9.109
 2903SOL    HW220338   0.755   4.696   9.215
 2904SOL     OW20339   4.332   1.247   3.707
 2904SOL    HW120340   4.358   1.338   3.693
 2904SOL    HW220341   4.372   1.199   3.634
 2905SOL     OW20342   0.940   1.594  23.084
 2905SOL    HW120343   0.913   1.659  23.149
 2905SOL    HW220344   0.980   1.645  23.014
 2906SOL     OW20345   1.745   2.551   7.413
 2906SOL    HW120346   1.835   2.577   7.396
 2906SOL    HW220347   1.694   2.599   7.347
 2907SOL     OW20348   2.691   3.053  20.119
 2907SOL    HW120349   2.669   2.975  20.170
 2907SOL    HW220350   2.635   3.122  20.154
 2908SOL     OW20351   3.049   0.110  26.976
 2908SOL    HW120352   3.002   0.118  26.893
 2908SOL    HW220353   3.114   0.041  26.960
 2909SOL     OW20354   3.764   1.046   0.369
 2909SOL    HW120355   3.802   1.091   0.445
 2909SOL    HW220356   3.687   1.098   0.347
 2910SOL     OW20357   4.485   0.225  27.030
 2910SOL    HW120358   4.417   0.171  26.990
 2910SOL    HW220359   4.463   0.315  27.005
 2911SOL     OW20360   0.982   3.709  26.598
 2911SOL    HW120361   1.051   3.675  26.541
 2911SOL    HW220362   0.934   3.771  26.543
 2912SOL     OW20363   0.509   3.959   8.320
 2912SOL    HW120364   0.479   3.868   8.321
 2912SOL    HW220365   0.432   4.009   8.293
 2913SOL     OW20366   0.056   4.056  28.123
 2913SOL    HW120367   0.128   4.118  28.133
 2913SOL    HW220368   0.038   4.024  28.211
 2914SOL     OW20369   3.776   0.888   0.873
 2914SOL    HW120370   3.738   0.921   0.792
 2914SOL    HW220371   3.705   0.840   0.916
 2915SOL     OW20372   1.305   1.390  26.782
 2915SOL    HW120373   1.395   1.390  26.814
 2915SOL    HW220374   1.310   1.435  26.697
 2916SOL     OW20375   0.091   3.767   4.906
 2916SOL    HW120376   0.179   3.743   4.933
 2916SOL    HW220377   0.057   3.688   4.863
 2917SOL     OW20378   2.760   0.105   6.083
 2917SOL    HW120379   2.743   0.118   6.176
 2917SOL    HW220380   2.693   0.155   6.039
 2918SOL     OW20381   1.331   2.024   8.376
 2918SOL    HW120382   1.379   2.006   8.296
 2918SOL    HW220383   1.386   1.989   8.446
 2919SOL     OW20384   0.486   3.204  22.070
 2919SOL    HW120385   0.569   3.245  22.092
 2919SOL    HW220386   0.504   3.152  21.992
 2920SOL     OW20387   4.321   2.011  23.477
 2920SOL    HW120388   4.403   1.981  23.516
 2920SOL    HW220389   4.347   2.084  23.420
 2921SOL     OW20390   0.537   3.668   0.735
 2921SOL    HW120391   0.521   3.729   0.807
 2921SOL    HW220392   0.630   3.680   0.714
 2922SOL     OW20393   3.626   4.384  18.677
 2922SOL    HW120394   3.636   4.479  18.680
 2922SOL    HW220395   3.707   4.350  18.715
 2923SOL     OW20396   2.655   3.491  11.732
 2923SOL    HW120397   2.743   3.478  11.698
 2923SOL    HW220398   2.605   3.416  11.700
 2924SOL     OW20399   2.402   0.146  22.655
 2924SOL    HW120400   2.426   0.233  22.686
 2924SOL    HW220401   2.307   0.143  22.662
 2925SOL     OW20402   2.335   4.041   6.520
 2925SOL    HW120403   2.397   4.113   6.535
 2925SOL    HW220404   2.362   3.973   6.582
 2926SOL     OW20405   0.970   1.855   3.562
 2926SOL    HW120406   1.032   1.844   3.634
 2926SOL    HW220407   1.024   1.850   3.483
 2927SOL     OW20408   0.466   3.837  23.844
 2927SOL    HW120409   0.372   3.843  23.826
 2927SOL    HW220410   0.502   3.791  23.768
 2928SOL     OW20411   3.745   1.719  21.167
 2928SOL    HW120412   3.831   1.745  21.200
 2928SOL    HW220413   3.684   1.744  21.236
 2929SOL     OW20414   2.604   0.736  16.779
 2929SOL    HW120415   2.657   0.769  16.707
 2929SOL    HW220416   2.534   0.800  16.789
 2930SOL     OW20417   1.684   2.673  25.013
 2930SOL    HW120418   1.642   2.587  25.016
 2930SOL    HW220419   1.655   2.711  24.931
 2931SOL     OW20420   4.303   1.453  21.986
 2931SOL    HW120421   4.250   1.507  22.044
 2931SOL    HW220422   4.379   1.429  22.040
 2932SOL     OW20423   1.758   4.029  24.621
 2932SOL    HW120424   1.676   4.059  24.580
 2932SOL    HW220425   1.731   3.955  24.676
 2933SOL     OW20426   0.618   3.499  19.828
 2933SOL    HW120427   0.558   3.508  19.754
 2933SOL    HW220428   0.664   3.417  19.812
 2934SOL     OW20429   2.693   1.452   4.242
 2934SOL    HW120430   2.687   1.537   4.198
 2934SOL    HW220431   2.772   1.411   4.205
 2935SOL     OW20432   3.294   2.643  18.525
 2935SOL    HW120433   3.224   2.704  18.548
 2935SOL    HW220434   3.337   2.683  18.450
 2936SOL     OW20435   3.810   4.472   7.618
 2936SOL    HW120436   3.903   4.488   7.603
 2936SOL    HW220437   3.766   4.534   7.560
 2937SOL     OW20438   4.350   4.025  20.308
 2937SOL    HW120439   4.434   4.007  20.351
 2937SOL    HW220440   4.347   4.120  20.301
 2938SOL     OW20441   4.367   1.368  10.727
 2938SOL    HW120442   4.434   1.404  10.668
 2938SOL    HW220443   4.287   1.414  10.702
 2939SOL     OW20444   2.024   3.565   0.739
 2939SOL    HW120445   2.076   3.642   0.763
 2939SOL    HW220446   2.028   3.508   0.816
 2940SOL     OW20447   0.697   1.600   4.879
 2940SOL    HW120448   0.608   1.565   4.878
 2940SOL    HW220449   0.694   1.674   4.938
 2941SOL     OW20450   2.573   2.565  22.649
 2941SOL    HW120451   2.565   2.572  22.744
 2941SOL    HW220452   2.664   2.590  22.632
 2942SOL     OW20453   2.392   3.968  10.139
 2942SOL    HW120454   2.329   3.903  10.170
 2942SOL    HW220455   2.387   4.039  10.203
 2943SOL     OW20456   1.595   3.628   1.276
 2943SOL    HW120457   1.530   3.697   1.262
 2943SOL    HW220458   1.647   3.658   1.350
 2944SOL     OW20459   1.214   1.619   0.758
 2944SOL    HW120460   1.237   1.532   0.726
 2944SOL    HW220461   1.136   1.643   0.707
 2945SOL     OW20462   3.861   2.337   8.927
 2945SOL    HW120463   3.818   2.378   8.852
 2945SOL    HW220464   3.791   2.330   8.993
 2946SOL     OW20465   2.243   0.507   7.473
 2946SOL    HW120466   2.314   0.501   7.409
 2946SOL    HW220467   2.167   0.470   7.428
 2947SOL     OW20468   3.405   0.279  20.085
 2947SOL    HW120469   3.452   0.320  20.157
 2947SOL    HW220470   3.361   0.351  20.041
 2948SOL     OW20471   4.195   4.583   5.065
 2948SOL    HW120472   4.143   4.610   4.990
 2948SOL    HW220473   4.157   4.631   5.139
 2949SOL     OW20474   0.285   3.029  20.833
 2949SOL    HW120475   0.270   2.957  20.772
 2949SOL    HW220476   0.316   3.101  20.779
 2950SOL     OW20477   2.943   0.521   0.768
 2950SOL    HW120478   3.008   0.588   0.748
 2950SOL    HW220479   2.864   0.551   0.724
 2951SOL     OW20480   0.981   1.961  23.755
 2951SOL    HW120481   1.061   1.975  23.703
 2951SOL    HW220482   0.991   1.872  23.789
 2952SOL     OW20483   2.521   3.158   3.836
 2952SOL    HW120484   2.568   3.234   3.803
 2952SOL    HW220485   2.482   3.188   3.918
 2953SOL     OW20486   1.549   1.025  21.888
 2953SOL    HW120487   1.596   0.942  21.875
 2953SOL    HW220488   1.466   1.012  21.843
 2954SOL     OW20489   0.260   4.434  20.450
 2954SOL    HW120490   0.230   4.437  20.359
 2954SOL    HW220491   0.190   4.389  20.497
 2955SOL     OW20492   2.730   2.260  21.849
 2955SOL    HW120493   2.645   2.236  21.886
 2955SOL    HW220494   2.756   2.184  21.797
 2956SOL     OW20495   2.681   1.764  26.095
 2956SOL    HW120496   2.630   1.843  26.114
 2956SOL    HW220497   2.772   1.790  26.112
 2957SOL     OW20498   0.375   1.381  20.515
 2957SOL    HW120499   0.418   1.414  20.436
 2957SOL    HW220500   0.283   1.376  20.492
 2958SOL     OW20501   3.416   2.918   5.787
 2958SOL    HW120502   3.360   2.925   5.865
 2958SOL    HW220503   3.356   2.925   5.713
 2959SOL     OW20504   1.033   1.145  26.643
 2959SOL    HW120505   1.046   1.177  26.733
 2959SOL    HW220506   0.942   1.113  26.642
 2960SOL     OW20507   1.862   1.935  25.118
 2960SOL    HW120508   1.952   1.958  25.095
 2960SOL    HW220509   1.846   1.982  25.200
 2961SOL     OW20510   3.374   4.298  24.486
 2961SOL    HW120511   3.463   4.317  24.518
 2961SOL    HW220512   3.351   4.215  24.528
 2962SOL     OW20513   2.252   0.967  26.342
 2962SOL    HW120514   2.210   1.017  26.413
 2962SOL    HW220515   2.345   0.979  26.356
 2963SOL     OW20516   4.498   1.081  21.939
 2963SOL    HW120517   4.557   1.104  22.012
 2963SOL    HW220518   4.410   1.092  21.975
 2964SOL     OW20519   2.716   4.372  22.918
 2964SOL    HW120520   2.700   4.283  22.949
 2964SOL    HW220521   2.737   4.421  22.998
 2965SOL     OW20522   1.387   2.117  27.672
 2965SOL    HW120523   1.435   2.097  27.752
 2965SOL    HW220524   1.359   2.208  27.683
 2966SOL     OW20525   3.036   4.452  16.262
 2966SOL    HW120526   3.008   4.473  16.173
 2966SOL    HW220527   3.014   4.359  16.273
 2967SOL     OW20528   2.818   2.501  21.961
 2967SOL    HW120529   2.802   2.407  21.949
 2967SOL    HW220530   2.870   2.526  21.885
 2968SOL     OW20531   1.992   2.852   3.344
 2968SOL    HW120532   2.049   2.775   3.347
 2968SOL    HW220533   1.916   2.829   3.397
 2969SOL     OW20534   2.673   2.410   1.916
 2969SOL    HW120535   2.700   2.434   2.005
 2969SOL    HW220536   2.633   2.323   1.925
 2970SOL     OW20537   0.007   0.664  27.665
 2970SOL    HW120538   0.084   0.609  27.651
 2970SOL    HW220539   4.721   0.626  27.608
 2971SOL     OW20540   0.969   4.639  20.824
 2971SOL    HW120541   0.944   4.598  20.907
 2971SOL    HW220542   1.046   4.590  20.796
 2972SOL     OW20543   0.320   4.106   7.289
 2972SOL    HW120544   0.394   4.098   7.350
 2972SOL    HW220545   0.356   4.077   7.205
 2973SOL     OW20546   3.583   4.247   1.768
 2973SOL    HW120547   3.531   4.166   1.770
 2973SOL    HW220548   3.673   4.218   1.755
 2974SOL     OW20549   3.490   4.466  23.144
 2974SOL    HW120550   3.402   4.468  23.182
 2974SOL    HW220551   3.488   4.535  23.077
 2975SOL     OW20552   0.971   3.871   4.120
 2975SOL    HW120553   1.004   3.961   4.114
 2975SOL    HW220554   0.879   3.880   4.142
 2976SOL     OW20555   0.608   4.722  27.379
 2976SOL    HW120556   0.581   4.647  27.326
 2976SOL    HW220557   0.551   0.013  27.350
 2977SOL     OW20558   2.935   2.626  10.049
 2977SOL    HW120559   2.917   2.569  10.124
 2977SOL    HW220560   3.024   2.602  10.022
 2978SOL     OW20561   0.412   1.765   6.676
 2978SOL    HW120562   0.346   1.697   6.663
 2978SOL    HW220563   0.373   1.844   6.639
 2979SOL     OW20564   3.715   4.330   6.878
 2979SOL    HW120565   3.810   4.327   6.880
 2979SOL    HW220566   3.693   4.321   6.785
 2980SOL     OW20567   1.370   3.222   2.703
 2980SOL    HW120568   1.424   3.162   2.651
 2980SOL    HW220569   1.370   3.184   2.791
 2981SOL     OW20570   1.843   0.301  21.211
 2981SOL    HW120571   1.840   0.210  21.240
 2981SOL    HW220572   1.937   0.320  21.205
 2982SOL     OW20573   0.256   1.578   3.557
 2982SOL    HW120574   0.210   1.560   3.475
 2982SOL    HW220575   0.210   1.524   3.622
 2983SOL     OW20576   3.998   0.604  28.098
 2983SOL    HW120577   4.084   0.642  28.117
 2983SOL    HW220578   4.000   0.519  28.142
 2984SOL     OW20579   0.268   2.130   0.291
 2984SOL    HW120580   0.185   2.104   0.252
 2984SOL    HW220581   0.330   2.064   0.262
 2985SOL     OW20582   1.785   1.015   0.905
 2985SOL    HW120583   1.784   0.924   0.936
 2985SOL    HW220584   1.870   1.049   0.934
 2986SOL     OW20585   2.182   2.263  24.718
 2986SOL    HW120586   2.152   2.348  24.752
 2986SOL    HW220587   2.102   2.213  24.705
 2987SOL     OW20588   2.310   4.023  24.437
 2987SOL    HW120589   2.287   4.107  24.478
 2987SOL    HW220590   2.229   3.972  24.439
 2988SOL     OW20591   1.736   2.582  27.704
 2988SOL    HW120592   1.812   2.553  27.654
 2988SOL    HW220593   1.668   2.516  27.686
 2989SOL     OW20594   4.480   2.604  26.260
 2989SOL    HW120595   4.557   2.598  26.318
 2989SOL    HW220596   4.516   2.633  26.176
 2990SOL     OW20597   1.182   3.798   8.588
 2990SOL    HW120598   1.253   3.747   8.627
 2990SOL    HW220599   1.221   3.838   8.511
 2991SOL     OW20600   1.443   2.267   6.109
 2991SOL    HW120601   1.530   2.227   6.100
 2991SOL    HW220602   1.386   2.212   6.055
 2992SOL     OW20603   0.651   2.357  26.248
 2992SOL    HW120604   0.587   2.418  26.210
 2992SOL    HW220605   0.598   2.295  26.297
 2993SOL     OW20606   2.929   3.930   2.684
 2993SOL    HW120607   2.969   3.939   2.771
 2993SOL    HW220608   2.921   3.835   2.672
 2994SOL     OW20609   3.325   3.814  19.661
 2994SOL    HW120610   3.394   3.795  19.597
 2994SOL    HW220611   3.292   3.728  19.686
 2995SOL     OW20612   4.450   1.043  25.779
 2995SOL    HW120613   4.408   0.993  25.849
 2995SOL    HW220614   4.466   1.129  25.818
 2996SOL     OW20615   4.111   1.576   5.434
 2996SOL    HW120616   4.021   1.568   5.402
 2996SOL    HW220617   4.114   1.663   5.473
 2997SOL     OW20618   1.303   2.703   4.129
 2997SOL    HW120619   1.255   2.785   4.119
 2997SOL    HW220620   1.289   2.678   4.220
 2998SOL     OW20621   2.111   1.185   1.796
 2998SOL    HW120622   2.177   1.127   1.756
 2998SOL    HW220623   2.098   1.254   1.731
 2999SOL     OW20624   4.555   3.286   2.303
 2999SOL    HW120625   4.601   3.263   2.222
 2999SOL    HW220626   4.512   3.205   2.330
 3000SOL     OW20627   2.039   4.704   4.818
 3000SOL    HW120628   2.071   4.683   4.731
 3000SOL    HW220629   2.055   4.625   4.869
 3001SOL     OW20630   2.271   2.732   1.041
 3001SOL    HW120631   2.290   2.671   1.112
 3001SOL    HW220632   2.187   2.771   1.065
 3002SOL     OW20633   0.048   0.555  20.502
 3002SOL    HW120634   4.778   0.514  20.431
 3002SOL    HW220635   4.780   0.634  20.524
 3003SOL     OW20636   0.350   2.150   3.924
 3003SOL    HW120637   0.265   2.190   3.941
 3003SOL    HW220638   0.334   2.056   3.930
 3004SOL     OW20639   0.435   3.295   2.103
 3004SOL    HW120640   0.474   3.340   2.178
 3004SOL    HW220641   0.433   3.203   2.128
 3005SOL     OW20642   2.579   0.525  20.775
 3005SOL    HW120643   2.582   0.534  20.680
 3005SOL    HW220644   2.602   0.612  20.808
 3006SOL     OW20645   4.275   2.800  22.530
 3006SOL    HW120646   4.238   2.746  22.600
 3006SOL    HW220647   4.198   2.833  22.483
 3007SOL     OW20648   2.551   2.615  25.600
 3007SOL    HW120649   2.636   2.659  25.604
 3007SOL    HW220650   2.508   2.652  25.522
 3008SOL     OW20651   0.203   2.415  26.575
 3008SOL    HW120652   0.186   2.442  26.665
 3008SOL    HW220653   0.281   2.360  26.580
 3009SOL     OW20654   2.338   3.619  10.756
 3009SOL    HW120655   2.389   3.656  10.829
 3009SOL    HW220656   2.334   3.525  10.775
 3010SOL     OW20657   0.554   2.475  20.139
 3010SOL    HW120658   0.524   2.548  20.193
 3010SOL    HW220659   0.634   2.445  20.182
 3011SOL     OW20660   3.314   2.659   3.589
 3011SOL    HW120661   3.356   2.714   3.522
 3011SOL    HW220662   3.310   2.715   3.666
 3012SOL     OW20663   1.107   4.490   1.065
 3012SOL    HW120664   1.096   4.519   1.156
 3012SOL    HW220665   1.068   4.561   1.013
 3013SOL     OW20666   3.967   2.507   6.735
 3013SOL    HW120667   3.936   2.596   6.722
 3013SOL    HW220668   4.062   2.513   6.733
 3014SOL     OW20669   0.218   2.731  21.335
 3014SOL    HW120670   0.149   2.679  21.295
 3014SOL    HW220671   0.201   2.820  21.305
 3015SOL     OW20672   1.038   1.683  18.208
 3015SOL    HW120673   1.042   1.750  18.139
 3015SOL    HW220674   0.992   1.609  18.167
 3016SOL     OW20675   2.430   4.040  21.918
 3016SOL    HW120676   2.373   4.014  21.990
 3016SOL    HW220677   2.374   4.093  21.860
 3017SOL     OW20678   3.262   4.083   8.292
 3017SOL    HW120679   3.303   4.103   8.208
 3017SOL    HW220680   3.168   4.096   8.277
 3018SOL     OW20681   1.972   4.303   6.107
 3018SOL    HW120682   2.064   4.283   6.091
 3018SOL    HW220683   1.952   4.372   6.044
 3019SOL     OW20684   2.823   2.288  10.193
 3019SOL    HW120685   2.896   2.288  10.130
 3019SOL    HW220686   2.850   2.352  10.259
 3020SOL     OW20687   2.740   1.488   1.411
 3020SOL    HW120688   2.693   1.556   1.460
 3020SOL    HW220689   2.756   1.419   1.476
 3021SOL     OW20690   1.012   0.028  17.139
 3021SOL    HW120691   1.030   0.023  17.045
 3021SOL    HW220692   0.922   4.777  17.147
 3022SOL     OW20693   0.281   0.576  28.421
 3022SOL    HW120694   0.312   0.540  28.504
 3022SOL    HW220695   0.321   0.663  28.417
 3023SOL     OW20696   0.691   3.067  23.937
 3023SOL    HW120697   0.640   3.056  24.018
 3023SOL    HW220698   0.633   3.118  23.880
 3024SOL     OW20699   0.334   1.533   0.760
 3024SOL    HW120700   0.271   1.605   0.748
 3024SOL    HW220701   0.279   1.458   0.785
 3025SOL     OW20702   0.322   0.695   1.196
 3025SOL    HW120703   0.251   0.754   1.169
 3025SOL    HW220704   0.336   0.715   1.288
 3026SOL     OW20705   3.230   2.992  23.492
 3026SOL    HW120706   3.324   3.006  23.478
 3026SOL    HW220707   3.187   3.044  23.424
 3027SOL     OW20708   4.491   3.202  25.935
 3027SOL    HW120709   4.577   3.181  25.973
 3027SOL    HW220710   4.449   3.258  26.000
 3028SOL     OW20711   1.252   1.374  17.439
 3028SOL    HW120712   1.207   1.367  17.355
 3028SOL    HW220713   1.217   1.454  17.478
 3029SOL     OW20714   1.741   3.159   1.456
 3029SOL    HW120715   1.688   3.146   1.377
 3029SOL    HW220716   1.696   3.107   1.523
 3030SOL     OW20717   4.246   3.610  23.696
 3030SOL    HW120718   4.300   3.687  23.680
 3030SOL    HW220719   4.299   3.554  23.753
 3031SOL     OW20720   1.561   3.775  26.202
 3031SOL    HW120721   1.596   3.688  26.222
 3031SOL    HW220722   1.639   3.832  26.201
 3032SOL     OW20723   4.579   1.493  10.630
 3032SOL    HW120724   4.600   1.573  10.582
 3032SOL    HW220725   4.606   1.511  10.720
 3033SOL     OW20726   1.291   2.006   2.891
 3033SOL    HW120727   1.358   2.050   2.839
 3033SOL    HW220728   1.234   1.964   2.827
 3034SOL     OW20729   2.023   4.127  24.670
 3034SOL    HW120730   1.942   4.103  24.625
 3034SOL    HW220731   2.046   4.213  24.634
 3035SOL     OW20732   1.773   4.441   2.191
 3035SOL    HW120733   1.776   4.398   2.277
 3035SOL    HW220734   1.685   4.479   2.186
 3036SOL     OW20735   4.034   1.262  20.810
 3036SOL    HW120736   3.996   1.179  20.838
 3036SOL    HW220737   4.128   1.253  20.828
 3037SOL     OW20738   3.719   0.114  24.140
 3037SOL    HW120739   3.738   0.205  24.160
 3037SOL    HW220740   3.629   0.114  24.107
 3038SOL     OW20741   4.534   2.460  28.475
 3038SOL    HW120742   4.543   2.382   0.007
 3038SOL    HW220743   4.577   2.529   0.002
 3039SOL     OW20744   1.407   0.275  26.082
 3039SOL    HW120745   1.315   0.251  26.096
 3039SOL    HW220746   1.433   0.320  26.162
 3040SOL     OW20747   0.689   3.778  10.009
 3040SOL    HW120748   0.766   3.831   9.986
 3040SOL    HW220749   0.617   3.840  10.013
 3041SOL     OW20750   0.067   0.765  25.678
 3041SOL    HW120751   0.093   0.857  25.675
 3041SOL    HW220752   0.139   0.721  25.723
 3042SOL     OW20753   2.482   3.201   6.621
 3042SOL    HW120754   2.547   3.272   6.616
 3042SOL    HW220755   2.445   3.210   6.709
 3043SOL     OW20756   2.871   4.565  28.123
 3043SOL    HW120757   2.864   4.634  28.058
 3043SOL    HW220758   2.921   4.605  28.195
 3044SOL     OW20759   4.739   2.928   7.702
 3044SOL    HW120760   4.774   2.853   7.749
 3044SOL    HW220761   0.007   2.929   7.620
 3045SOL     OW20762   0.022   4.018   5.034
 3045SOL    HW120763   0.049   4.088   4.975
 3045SOL    HW220764   0.041   3.937   4.987
 3046SOL     OW20765   3.730   0.729  10.800
 3046SOL    HW120766   3.808   0.734  10.856
 3046SOL    HW220767   3.765   0.714  10.712
 3047SOL     OW20768   1.170   3.800   5.689
 3047SOL    HW120769   1.180   3.757   5.774
 3047SOL    HW220770   1.117   3.878   5.707
 3048SOL     OW20771   1.191   3.695   4.834
 3048SOL    HW120772   1.160   3.606   4.851
 3048SOL    HW220773   1.155   3.716   4.747
 3049SOL     OW20774   2.632   2.887  27.930
 3049SOL    HW120775   2.701   2.834  27.968
 3049SOL    HW220776   2.562   2.887  27.995
 3050SOL     OW20777   1.029   1.642  18.472
 3050SOL    HW120778   0.953   1.593  18.503
 3050SOL    HW220779   1.009   1.663  18.381
 3051SOL     OW20780   2.038   3.505  21.036
 3051SOL    HW120781   2.093   3.482  21.111
 3051SOL    HW220782   2.099   3.532  20.968
 3052SOL     OW20783   2.478   0.014  24.737
 3052SOL    HW120784   2.479   4.702  24.717
 3052SOL    HW220785   2.510   0.019  24.827
 3053SOL     OW20786   0.073   0.800  10.179
 3053SOL    HW120787   0.017   0.768  10.108
 3053SOL    HW220788   0.026   0.876  10.214
 3054SOL     OW20789   1.819   0.674  17.884
 3054SOL    HW120790   1.875   0.709  17.815
 3054SOL    HW220791   1.811   0.744  17.948
 3055SOL     OW20792   1.878   0.737   7.595
 3055SOL    HW120793   1.957   0.715   7.545
 3055SOL    HW220794   1.896   0.823   7.632
 3056SOL     OW20795   2.216   4.231   6.787
 3056SOL    HW120796   2.173   4.162   6.736
 3056SOL    HW220797   2.202   4.310   6.735
 3057SOL     OW20798   2.369   4.126  27.308
 3057SOL    HW120799   2.315   4.178  27.368
 3057SOL    HW220800   2.320   4.044  27.297
 3058SOL     OW20801   2.909   2.167   2.843
 3058SOL    HW120802   2.965   2.236   2.807
 3058SOL    HW220803   2.845   2.213   2.896
 3059SOL     OW20804   2.084   2.439  19.577
 3059SOL    HW120805   2.145   2.511  19.563
 3059SOL    HW220806   2.034   2.435  19.495
 3060SOL     OW20807   3.336   4.413  21.978
 3060SOL    HW120808   3.399   4.466  22.028
 3060SOL    HW220809   3.354   4.436  21.887
 3061SOL     OW20810   3.049   3.926  16.137
 3061SOL    HW120811   3.097   3.871  16.076
 3061SOL    HW220812   2.957   3.916  16.112
 3062SOL     OW20813   0.100   4.279  26.984
 3062SOL    HW120814   0.187   4.293  27.022
 3062SOL    HW220815   0.118   4.251  26.894
 3063SOL     OW20816   3.749   1.934  22.575
 3063SOL    HW120817   3.672   1.991  22.571
 3063SOL    HW220818   3.823   1.994  22.567
 3064SOL     OW20819   1.643   3.200  20.165
 3064SOL    HW120820   1.723   3.160  20.131
 3064SOL    HW220821   1.572   3.148  20.128
 3065SOL     OW20822   4.096   0.113   6.483
 3065SOL    HW120823   4.119   0.025   6.514
 3065SOL    HW220824   4.001   0.109   6.468
 3066SOL     OW20825   4.190   2.376  22.496
 3066SOL    HW120826   4.214   2.386  22.588
 3066SOL    HW220827   4.229   2.293  22.469
 3067SOL     OW20828   3.359   2.446   6.350
 3067SOL    HW120829   3.362   2.434   6.255
 3067SOL    HW220830   3.296   2.380   6.380
 3068SOL     OW20831   0.990   0.031   7.578
 3068SOL    HW120832   0.938   0.055   7.502
 3068SOL    HW220833   1.000   0.113   7.627
 3069SOL     OW20834   1.116   2.968  24.170
 3069SOL    HW120835   1.138   2.904  24.102
 3069SOL    HW220836   1.142   2.926  24.252
 3070SOL     OW20837   3.414   2.371  26.571
 3070SOL    HW120838   3.508   2.365  26.558
 3070SOL    HW220839   3.393   2.302  26.634
 3071SOL     OW20840   0.112   3.882   1.501
 3071SOL    HW120841   0.143   3.861   1.589
 3071SOL    HW220842   0.049   3.954   1.513
 3072SOL     OW20843   2.805   0.735   2.028
 3072SOL    HW120844   2.816   0.690   1.944
 3072SOL    HW220845   2.822   0.667   2.094
 3073SOL     OW20846   3.200   2.012   2.008
 3073SOL    HW120847   3.212   2.006   1.914
 3073SOL    HW220848   3.287   2.032   2.043
 3074SOL     OW20849   0.305   3.417   0.151
 3074SOL    HW120850   0.270   3.494   0.197
 3074SOL    HW220851   0.394   3.407   0.184
 3075SOL     OW20852   3.293   2.090  21.621
 3075SOL    HW120853   3.357   2.150  21.660
 3075SOL    HW220854   3.321   2.003  21.649
 3076SOL     OW20855   2.246   3.699   6.910
 3076SOL    HW120856   2.182   3.640   6.952
 3076SOL    HW220857   2.315   3.709   6.976
 3077SOL     OW20858   3.929   3.833   6.231
 3077SOL    HW120859   4.017   3.871   6.224
 3077SOL    HW220860   3.928   3.788   6.315
 3078SOL     OW20861   3.083   2.021   5.865
 3078SOL    HW120862   3.030   1.994   5.940
 3078SOL    HW220863   3.116   1.938   5.829
 3079SOL     OW20864   3.150   2.862   7.219
 3079SOL    HW120865   3.111   2.942   7.253
 3079SOL    HW220866   3.088   2.793   7.243
 3080SOL     OW20867   1.844   2.705  25.241
 3080SOL    HW120868   1.780   2.704  25.170
 3080SOL    HW220869   1.862   2.798  25.257
 3081SOL     OW20870   4.514   1.939   1.557
 3081SOL    HW120871   4.419   1.949   1.570
 3081SOL    HW220872   4.540   1.874   1.623
 3082SOL     OW20873   1.773   0.679   1.521
 3082SOL    HW120874   1.766   0.613   1.590
 3082SOL    HW220875   1.712   0.651   1.453
 3083SOL     OW20876   4.136   1.879   3.500
 3083SOL    HW120877   4.065   1.842   3.448
 3083SOL    HW220878   4.123   1.843   3.588
 3084SOL     OW20879   3.128   3.309  20.845
 3084SOL    HW120880   3.068   3.265  20.784
 3084SOL    HW220881   3.117   3.402  20.825
 3085SOL     OW20882   3.899   2.322   6.917
 3085SOL    HW120883   3.931   2.380   6.849
 3085SOL    HW220884   3.803   2.332   6.915
 3086SOL     OW20885   2.186   3.371  27.375
 3086SOL    HW120886   2.207   3.308  27.443
 3086SOL    HW220887   2.110   3.333  27.330
 3087SOL     OW20888   3.344   1.563   5.161
 3087SOL    HW120889   3.385   1.515   5.233
 3087SOL    HW220890   3.268   1.605   5.202
 3088SOL     OW20891   2.011   1.284   8.523
 3088SOL    HW120892   2.058   1.281   8.607
 3088SOL    HW220893   2.064   1.229   8.465
 3089SOL     OW20894   2.168   1.043   7.319
 3089SOL    HW120895   2.076   1.049   7.345
 3089SOL    HW220896   2.210   0.995   7.390
 3090SOL     OW20897   1.712   4.583  21.992
 3090SOL    HW120898   1.692   4.674  22.014
 3090SOL    HW220899   1.803   4.570  22.018
 3091SOL     OW20900   1.728   1.090   3.581
 3091SOL    HW120901   1.709   1.035   3.658
 3091SOL    HW220902   1.766   1.170   3.618
 3092SOL     OW20903   4.709   3.155  26.682
 3092SOL    HW120904   4.696   3.237  26.729
 3092SOL    HW220905   4.669   3.170  26.597
 3093SOL     OW20906   1.372   2.104  28.276
 3093SOL    HW120907   1.435   2.044  28.237
 3093SOL    HW220908   1.407   2.191  28.257
 3094SOL     OW20909   1.930   2.939   2.091
 3094SOL    HW120910   1.847   2.926   2.045
 3094SOL    HW220911   1.922   2.884   2.169
 3095SOL     OW20912   3.227   0.783   1.559
 3095SOL    HW120913   3.140   0.757   1.530
 3095SOL    HW220914   3.278   0.790   1.479
 3096SOL     OW20915   1.993   3.447  21.612
 3096SOL    HW120916   1.989   3.465  21.706
 3096SOL    HW220917   1.929   3.507  21.574
 3097SOL     OW20918   1.363   3.382  27.443
 3097SOL    HW120919   1.290   3.386  27.504
 3097SOL    HW220920   1.429   3.440  27.480
 3098SOL     OW20921   3.037   4.031   2.935
 3098SOL    HW120922   3.061   4.116   2.973
 3098SOL    HW220923   3.024   3.974   3.011
 3099SOL     OW20924   1.755   4.040  26.506
 3099SOL    HW120925   1.819   4.071  26.570
 3099SOL    HW220926   1.752   4.109  26.439
 3100SOL     OW20927   4.632   2.280  25.417
 3100SOL    HW120928   4.604   2.211  25.357
 3100SOL    HW220929   4.559   2.342  25.419
 3101SOL     OW20930   1.711   1.881  25.427
 3101SOL    HW120931   1.646   1.811  25.422
 3101SOL    HW220932   1.793   1.836  25.448
 3102SOL     OW20933   2.082   4.457   8.725
 3102SOL    HW120934   2.018   4.415   8.667
 3102SOL    HW220935   2.167   4.431   8.689
 3103SOL     OW20936   1.621   1.408   2.604
 3103SOL    HW120937   1.682   1.443   2.540
 3103SOL    HW220938   1.675   1.353   2.661
 3104SOL     OW20939   3.371   1.372   8.680
 3104SOL    HW120940   3.340   1.457   8.648
 3104SOL    HW220941   3.463   1.387   8.704
 3105SOL     OW20942   0.675   2.592   8.834
 3105SOL    HW120943   0.714   2.646   8.766
 3105SOL    HW220944   0.615   2.534   8.787
 3106SOL     OW20945   2.961   1.479   5.023
 3106SOL    HW120946   2.996   1.522   5.101
 3106SOL    HW220947   3.035   1.429   4.989
 3107SOL     OW20948   0.362   0.895   5.862
 3107SOL    HW120949   0.436   0.928   5.914
 3107SOL    HW220950   0.343   0.810   5.900
 3108SOL     OW20951   3.036   3.100  25.790
 3108SOL    HW120952   2.961   3.112  25.731
 3108SOL    HW220953   3.029   3.171  25.853
 3109SOL     OW20954   1.933   2.852   5.112
 3109SOL    HW120955   1.993   2.926   5.106
 3109SOL    HW220956   1.915   2.828   5.021
 3110SOL     OW20957   1.695   2.330   3.541
 3110SOL    HW120958   1.618   2.320   3.598
 3110SOL    HW220959   1.739   2.245   3.546
 3111SOL     OW20960   0.522   4.043   0.323
 3111SOL    HW120961   0.571   4.056   0.242
 3111SOL    HW220962   0.430   4.043   0.297
 3112SOL     OW20963   0.333   1.707  19.525
 3112SOL    HW120964   0.296   1.624  19.556
 3112SOL    HW220965   0.383   1.684  19.447
 3113SOL     OW20966   0.348   0.459   8.340
 3113SOL    HW120967   0.433   0.503   8.332
 3113SOL    HW220968   0.298   0.515   8.398
 3114SOL     OW20969   0.114   2.083   5.457
 3114SOL    HW120970   0.133   2.012   5.396
 3114SOL    HW220971   0.201   2.117   5.481
 3115SOL     OW20972   4.205   3.187   5.275
 3115SOL    HW120973   4.276   3.137   5.234
 3115SOL    HW220974   4.193   3.145   5.360
 3116SOL     OW20975   4.560   1.580  25.562
 3116SOL    HW120976   4.526   1.597  25.474
 3116SOL    HW220977   4.487   1.602  25.620
 3117SOL     OW20978   1.215   0.996   3.604
 3117SOL    HW120979   1.134   1.011   3.554
 3117SOL    HW220980   1.186   0.988   3.695
 3118SOL     OW20981   2.233   1.266   4.074
 3118SOL    HW120982   2.327   1.282   4.072
 3118SOL    HW220983   2.202   1.295   3.988
 3119SOL     OW20984   4.142   2.541   3.436
 3119SOL    HW120985   4.223   2.533   3.387
 3119SOL    HW220986   4.152   2.480   3.509
 3120SOL     OW20987   2.263   2.258   5.556
 3120SOL    HW120988   2.171   2.264   5.532
 3120SOL    HW220989   2.310   2.265   5.473
 3121SOL     OW20990   3.301   2.646  19.375
 3121SOL    HW120991   3.267   2.591  19.304
 3121SOL    HW220992   3.396   2.637  19.368
 3122SOL     OW20993   4.632   2.762  20.103
 3122SOL    HW120994   4.598   2.786  20.017
 3122SOL    HW220995   4.585   2.818  20.165
 3123SOL     OW20996   1.418   0.933   4.690
 3123SOL    HW120997   1.373   0.917   4.773
 3123SOL    HW220998   1.417   0.848   4.646
 3124SOL     OW20999   1.387   1.159  24.518
 3124SOL    HW121000   1.477   1.137  24.541
 3124SOL    HW221001   1.344   1.178  24.601
 3125SOL     OW21002   4.215   1.619   1.835
 3125SOL    HW121003   4.276   1.672   1.783
 3125SOL    HW221004   4.131   1.664   1.826
 3126SOL     OW21005   4.561   2.595   3.075
 3126SOL    HW121006   4.618   2.518   3.077
 3126SOL    HW221007   4.521   2.592   2.988
 3127SOL     OW21008   4.561   2.265   8.038
 3127SOL    HW121009   4.577   2.296   7.949
 3127SOL    HW221010   4.649   2.249   8.073
 3128SOL     OW21011   0.032   4.197   8.840
 3128SOL    HW121012   4.763   4.171   8.763
 3128SOL    HW221013   0.118   4.155   8.828
 3129SOL     OW21014   2.022   3.300  28.143
 3129SOL    HW121015   2.015   3.205  28.142
 3129SOL    HW221016   1.936   3.330  28.175
 3130SOL     OW21017   4.353   4.744  21.889
 3130SOL    HW121018   4.297   0.005  21.824
 3130SOL    HW221019   4.316   4.770  21.974
 3131SOL     OW21020   2.259   0.913   0.630
 3131SOL    HW121021   2.191   0.948   0.687
 3131SOL    HW221022   2.258   0.970   0.553
 3132SOL     OW21023   0.851   3.581   0.536
 3132SOL    HW121024   0.770   3.530   0.533
 3132SOL    HW221025   0.841   3.646   0.467
 3133SOL     OW21026   0.410   1.847   7.903
 3133SOL    HW121027   0.487   1.818   7.855
 3133SOL    HW221028   0.444   1.896   7.977
 3134SOL     OW21029   3.024   0.349  21.858
 3134SOL    HW121030   2.979   0.295  21.792
 3134SOL    HW221031   2.971   0.428  21.864
 3135SOL     OW21032   0.481   2.162   4.935
 3135SOL    HW121033   0.536   2.135   5.009
 3135SOL    HW221034   0.484   2.258   4.937
 3136SOL     OW21035   2.740   0.649  26.219
 3136SOL    HW121036   2.786   0.731  26.204
 3136SOL    HW221037   2.650   0.667  26.192
 3137SOL     OW21038   0.927   3.684  27.902
 3137SOL    HW121039   0.971   3.769  27.909
 3137SOL    HW221040   0.966   3.631  27.971
 3138SOL     OW21041   1.543   3.319  20.395
 3138SOL    HW121042   1.572   3.283  20.311
 3138SOL    HW221043   1.624   3.338  20.442
 3139SOL     OW21044   3.835   0.622   4.077
 3139SOL    HW121045   3.790   0.669   4.006
 3139SOL    HW221046   3.852   0.689   4.143
 3140SOL     OW21047   4.452   0.239  25.304
 3140SOL    HW121048   4.493   0.201  25.382
 3140SOL    HW221049   4.522   0.288  25.262
 3141SOL     OW21050   3.647   1.874  20.492
 3141SOL    HW121051   3.675   1.839  20.407
 3141SOL    HW221052   3.664   1.968  20.485
 3142SOL     OW21053   2.952   4.660  26.635
 3142SOL    HW121054   2.885   4.594  26.617
 3142SOL    HW221055   3.033   4.621  26.602
 3143SOL     OW21056   3.784   1.151  27.431
 3143SOL    HW121057   3.877   1.164  27.452
 3143SOL    HW221058   3.739   1.164  27.515
 3144SOL     OW21059   4.001   3.541  26.927
 3144SOL    HW121060   4.021   3.484  27.000
 3144SOL    HW221061   3.936   3.494  26.876
 3145SOL     OW21062   0.910   4.652   0.978
 3145SOL    HW121063   0.845   4.635   0.909
 3145SOL    HW221064   0.900   4.746   0.996
 3146SOL     OW21065   2.213   0.509  22.765
 3146SOL    HW121066   2.146   0.551  22.711
 3146SOL    HW221067   2.170   0.431  22.801
 3147SOL     OW21068   3.498   0.995   0.069
 3147SOL    HW121069   3.551   0.928   0.113
 3147SOL    HW221070   3.548   1.017  28.514
 3148SOL     OW21071   2.792   1.736  27.039
 3148SOL    HW121072   2.879   1.741  26.999
 3148SOL    HW221073   2.755   1.655  27.005
 3149SOL     OW21074   2.786   0.432   0.381
 3149SOL    HW121075   2.824   0.512   0.344
 3149SOL    HW221076   2.706   0.418   0.331
 3150SOL     OW21077   3.475   1.417   7.992
 3150SOL    HW121078   3.448   1.508   7.993
 3150SOL    HW221079   3.427   1.378   7.919
 3151SOL     OW21080   3.530   1.178  22.326
 3151SOL    HW121081   3.514   1.086  22.305
 3151SOL    HW221082   3.625   1.188  22.323
 3152SOL     OW21083   0.732   3.212  19.225
 3152SOL    HW121084   0.810   3.188  19.173
 3152SOL    HW221085   0.658   3.189  19.168
 3153SOL     OW21086   2.025   2.425  26.429
 3153SOL    HW121087   2.064   2.508  26.399
 3153SOL    HW221088   2.017   2.436  26.524
 3154SOL     OW21089   1.455   3.566   4.406
 3154SOL    HW121090   1.516   3.525   4.467
 3154SOL    HW221091   1.380   3.590   4.460
 3155SOL     OW21092   2.795   4.448   6.201
 3155SOL    HW121093   2.838   4.364   6.181
 3155SOL    HW221094   2.867   4.510   6.210
 3156SOL     OW21095   0.791   1.500  12.799
 3156SOL    HW121096   0.844   1.422  12.787
 3156SOL    HW221097   0.727   1.476  12.866
 3157SOL     OW21098   0.953   4.324  24.321
 3157SOL    HW121099   1.044   4.312  24.292
 3157SOL    HW221100   0.955   4.304  24.415
 3158SOL     OW21101   2.934   0.443  18.717
 3158SOL    HW121102   2.969   0.357  18.692
 3158SOL    HW221103   2.946   0.497  18.639
 3159SOL     OW21104   3.065   4.245   9.628
 3159SOL    HW121105   3.151   4.279   9.653
 3159SOL    HW221106   3.049   4.174   9.691
 3160SOL     OW21107   3.757   2.241  22.687
 3160SOL    HW121108   3.746   2.203  22.775
 3160SOL    HW221109   3.668   2.255  22.655
 3161SOL     OW21110   0.523   0.217   9.939
 3161SOL    HW121111   0.507   0.127   9.910
 3161SOL    HW221112   0.611   0.215   9.975
 3162SOL     OW21113   1.400   1.227  17.637
 3162SOL    HW121114   1.371   1.291  17.571
 3162SOL    HW221115   1.362   1.144  17.607
 3163SOL     OW21116   2.183   2.559   2.050
 3163SOL    HW121117   2.204   2.651   2.064
 3163SOL    HW221118   2.263   2.521   2.015
 3164SOL     OW21119   4.394   1.516  26.861
 3164SOL    HW121120   4.416   1.607  26.883
 3164SOL    HW221121   4.460   1.464  26.907
 3165SOL     OW21122   2.867   0.325   6.703
 3165SOL    HW121123   2.823   0.258   6.651
 3165SOL    HW221124   2.948   0.285   6.732
 3166SOL     OW21125   3.855   3.940   7.248
 3166SOL    HW121126   3.823   4.030   7.240
 3166SOL    HW221127   3.863   3.925   7.342
 3167SOL     OW21128   4.408   0.758  19.852
 3167SOL    HW121129   4.333   0.810  19.825
 3167SOL    HW221130   4.459   0.817  19.909
 3168SOL     OW21131   3.654   3.223  10.549
 3168SOL    HW121132   3.682   3.133  10.560
 3168SOL    HW221133   3.633   3.253  10.638
 3169SOL     OW21134   3.109   2.866  19.431
 3169SOL    HW121135   3.159   2.945  19.415
 3169SOL    HW221136   3.173   2.795  19.425
 3170SOL     OW21137   1.969   2.227   8.741
 3170SOL    HW121138   2.003   2.218   8.652
 3170SOL    HW221139   1.909   2.302   8.736
 3171SOL     OW21140   2.730   4.274   8.519
 3171SOL    HW121141   2.746   4.360   8.559
 3171SOL    HW221142   2.812   4.226   8.530
 3172SOL     OW21143   3.832   0.137   7.142
 3172SOL    HW121144   3.850   0.066   7.080
 3172SOL    HW221145   3.744   0.167   7.118
 3173SOL     OW21146   0.279   2.064  20.541
 3173SOL    HW121147   0.333   1.985  20.537
 3173SOL    HW221148   0.341   2.136  20.545
 3174SOL     OW21149   3.994   1.956  25.743
 3174SOL    HW121150   4.069   1.897  25.752
 3174SOL    HW221151   3.994   2.008  25.823
 3175SOL     OW21152   1.999   1.765   9.067
 3175SOL    HW121153   1.911   1.779   9.032
 3175SOL    HW221154   2.038   1.700   9.008
 3176SOL     OW21155   3.391   1.382  22.458
 3176SOL    HW121156   3.362   1.378  22.550
 3176SOL    HW221157   3.443   1.303  22.446
 3177SOL     OW21158   4.396   4.343  25.777
 3177SOL    HW121159   4.392   4.424  25.829
 3177SOL    HW221160   4.476   4.299  25.808
 3178SOL     OW21161   3.468   2.080   6.305
 3178SOL    HW121162   3.503   2.054   6.219
 3178SOL    HW221163   3.377   2.106   6.287
 3179SOL     OW21164   0.681   3.886  15.620
 3179SOL    HW121165   0.727   3.925  15.546
 3179SOL    HW221166   0.588   3.894  15.597
 3180SOL     OW21167   1.248   3.321  22.433
 3180SOL    HW121168   1.205   3.254  22.380
 3180SOL    HW221169   1.230   3.403  22.387
 3181SOL     OW21170   2.466   3.015  24.291
 3181SOL    HW121171   2.394   2.979  24.238
 3181SOL    HW221172   2.424   3.081  24.347
 3182SOL     OW21173   1.057   1.071  22.380
 3182SOL    HW121174   1.101   0.986  22.378
 3182SOL    HW221175   0.993   1.064  22.451
 3183SOL     OW21176   4.674   3.327   7.655
 3183SOL    HW121177   4.642   3.396   7.715
 3183SOL    HW221178   4.707   3.259   7.713
 3184SOL     OW21179   0.444   1.948   6.394
 3184SOL    HW121180   0.467   1.935   6.302
 3184SOL    HW221181   0.494   1.881   6.441
 3185SOL     OW21182   0.384   1.032   4.610
 3185SOL    HW121183   0.360   1.045   4.518
 3185SOL    HW221184   0.383   0.937   4.621
 3186SOL     OW21185   3.316   1.281  20.178
 3186SOL    HW121186   3.405   1.282  20.143
 3186SOL    HW221187   3.279   1.366  20.151
 3187SOL     OW21188   3.775   2.139   7.721
 3187SOL    HW121189   3.809   2.216   7.767
 3187SOL    HW221190   3.835   2.068   7.745
 3188SOL     OW21191   1.182   4.523  25.604
 3188SOL    HW121192   1.115   4.557  25.546
 3188SOL    HW221193   1.223   4.452  25.555
 3189SOL     OW21194   0.368   2.208  25.729
 3189SOL    HW121195   0.418   2.278  25.688
 3189SOL    HW221196   0.294   2.253  25.771
 3190SOL     OW21197   0.382   2.736  23.427
 3190SOL    HW121198   0.358   2.715  23.517
 3190SOL    HW221199   0.477   2.746  23.429
 3191SOL     OW21200   1.657   1.807   0.482
 3191SOL    HW121201   1.649   1.784   0.574
 3191SOL    HW221202   1.740   1.856   0.476
 3192SOL     OW21203   4.751   3.392  25.644
 3192SOL    HW121204   0.020   3.312  25.634
 3192SOL    HW221205   4.734   3.399  25.738
 3193SOL     OW21206   3.869   3.641   2.720
 3193SOL    HW121207   3.889   3.596   2.638
 3193SOL    HW221208   3.898   3.731   2.706
 3194SOL     OW21209   2.081   2.965  23.465
 3194SOL    HW121210   2.163   3.015  23.469
 3194SOL    HW221211   2.047   2.969  23.554
 3195SOL     OW21212   1.918   0.695  27.690
 3195SOL    HW121213   1.901   0.719  27.782
 3195SOL    HW221214   1.956   0.608  27.695
 3196SOL     OW21215   0.832   2.689   9.334
 3196SOL    HW121216   0.863   2.609   9.375
 3196SOL    HW221217   0.758   2.662   9.280
 3197SOL     OW21218   2.048   3.186  19.616
 3197SOL    HW121219   1.964   3.203  19.659
 3197SOL    HW221220   2.035   3.217  19.526
 3198SOL     OW21221   1.499   3.638  22.445
 3198SOL    HW121222   1.468   3.692  22.517
 3198SOL    HW221223   1.523   3.555  22.485
 3199SOL     OW21224   0.492   0.861  25.871
 3199SOL    HW121225   0.497   0.929  25.804
 3199SOL    HW221226   0.579   0.820  25.871
 3200SOL     OW21227   4.521   0.473   1.047
 3200SOL    HW121228   4.482   0.536   1.109
 3200SOL    HW221229   4.610   0.460   1.080
 3201SOL     OW21230   4.253   0.749  22.775
 3201SOL    HW121231   4.328   0.781  22.725
 3201SOL    HW221232   4.176   0.780  22.727
 3202SOL     OW21233   4.044   0.845  25.664
 3202SOL    HW121234   4.068   0.785  25.593
 3202SOL    HW221235   4.051   0.932  25.625
 3203SOL     OW21236   2.868   0.980  27.696
 3203SOL    HW121237   2.929   1.052  27.679
 3203SOL    HW221238   2.781   1.020  27.686
 3204SOL     OW21239   3.637   1.967   2.988
 3204SOL    HW121240   3.686   1.896   3.030
 3204SOL    HW221241   3.545   1.940   2.995
 3205SOL     OW21242   3.671   3.653  23.620
 3205SOL    HW121243   3.704   3.569  23.589
 3205SOL    HW221244   3.583   3.660  23.583
 3206SOL     OW21245   3.653   3.324  25.547
 3206SOL    HW121246   3.596   3.251  25.524
 3206SOL    HW221247   3.656   3.378  25.468
 3207SOL     OW21248   0.469   1.097  18.226
 3207SOL    HW121249   0.528   1.027  18.255
 3207SOL    HW221250   0.405   1.052  18.171
 3208SOL     OW21251   2.878   3.419  26.692
 3208SOL    HW121252   2.841   3.385  26.774
 3208SOL    HW221253   2.829   3.375  26.623
 3209SOL     OW21254   2.558   4.547  20.174
 3209SOL    HW121255   2.584   4.639  20.171
 3209SOL    HW221256   2.619   4.506  20.235
 3210SOL     OW21257   0.332   4.458  16.920
 3210SOL    HW121258   0.260   4.399  16.897
 3210SOL    HW221259   0.319   4.535  16.864
 3211SOL     OW21260   2.428   0.736   6.987
 3211SOL    HW121261   2.438   0.648   6.950
 3211SOL    HW221262   2.333   0.749   6.992
 3212SOL     OW21263   2.318   0.648   1.481
 3212SOL    HW121264   2.337   0.622   1.391
 3212SOL    HW221265   2.223   0.664   1.481
 3213SOL     OW21266   2.182   3.119  23.140
 3213SOL    HW121267   2.127   3.171  23.080
 3213SOL    HW221268   2.135   3.036  23.149
 3214SOL     OW21269   1.890   2.211  24.265
 3214SOL    HW121270   1.930   2.291  24.234
 3214SOL    HW221271   1.951   2.178  24.332
 3215SOL     OW21272   1.087   3.385   8.032
 3215SOL    HW121273   1.049   3.428   7.955
 3215SOL    HW221274   1.013   3.341   8.074
 3216SOL     OW21275   0.474   3.822  24.902
 3216SOL    HW121276   0.561   3.861  24.903
 3216SOL    HW221277   0.440   3.835  24.991
 3217SOL     OW21278   4.079   1.588  22.886
 3217SOL    HW121279   4.045   1.594  22.975
 3217SOL    HW221280   4.151   1.525  22.892
 3218SOL     OW21281   0.766   1.149   7.251
 3218SOL    HW121282   0.681   1.187   7.229
 3218SOL    HW221283   0.828   1.189   7.190
 3219SOL     OW21284   4.310   3.340   1.071
 3219SOL    HW121285   4.355   3.274   1.020
 3219SOL    HW221286   4.364   3.419   1.061
 3220SOL     OW21287   2.119   3.009  25.809
 3220SOL    HW121288   2.180   2.937  25.794
 3220SOL    HW221289   2.141   3.075  25.744
 3221SOL     OW21290   4.549   0.690  24.511
 3221SOL    HW121291   4.511   0.692  24.599
 3221SOL    HW221292   4.499   0.624  24.464
 3222SOL     OW21293   1.163   1.426   8.578
 3222SOL    HW121294   1.168   1.521   8.592
 3222SOL    HW221295   1.230   1.390   8.636
 3223SOL     OW21296   4.211   3.273  25.876
 3223SOL    HW121297   4.164   3.261  25.958
 3223SOL    HW221298   4.209   3.187  25.834
 3224SOL     OW21299   1.089   2.644  26.172
 3224SOL    HW121300   1.057   2.560  26.204
 3224SOL    HW221301   1.184   2.640  26.186
 3225SOL     OW21302   2.918   3.262  24.699
 3225SOL    HW121303   2.860   3.230  24.768
 3225SOL    HW221304   2.861   3.314  24.642
 3226SOL     OW21305   2.868   3.271  18.048
 3226SOL    HW121306   2.878   3.356  18.006
 3226SOL    HW221307   2.894   3.208  17.981
 3227SOL     OW21308   0.120   1.890  24.462
 3227SOL    HW121309   0.147   1.909  24.552
 3227SOL    HW221310   0.063   1.814  24.469
 3228SOL     OW21311   2.059   3.177   3.759
 3228SOL    HW121312   1.966   3.163   3.743
 3228SOL    HW221313   2.103   3.131   3.688
 3229SOL     OW21314   4.187   0.300  25.323
 3229SOL    HW121315   4.211   0.387  25.291
 3229SOL    HW221316   4.270   0.258  25.344
 3230SOL     OW21317   2.103   4.484  24.104
 3230SOL    HW121318   2.026   4.537  24.127
 3230SOL    HW221319   2.072   4.394  24.111
 3231SOL     OW21320   4.344   4.035   6.831
 3231SOL    HW121321   4.281   3.972   6.794
 3231SOL    HW221322   4.418   3.981   6.859
 3232SOL     OW21323   4.242   0.651   3.584
 3232SOL    HW121324   4.328   0.610   3.572
 3232SOL    HW221325   4.180   0.587   3.550
 3233SOL     OW21326   3.341   0.689   7.111
 3233SOL    HW121327   3.411   0.733   7.158
 3233SOL    HW221328   3.329   0.741   7.031
 3234SOL     OW21329   4.635   4.704   3.845
 3234SOL    HW121330   4.541   4.715   3.830
 3234SOL    HW221331   4.672   0.010   3.829
 3235SOL     OW21332   1.079   1.899  21.835
 3235SOL    HW121333   1.096   1.846  21.913
 3235SOL    HW221334   0.985   1.889  21.820
 3236SOL     OW21335   1.823   1.967   7.178
 3236SOL    HW121336   1.902   2.022   7.171
 3236SOL    HW221337   1.807   1.961   7.272
 3237SOL     OW21338   2.129   3.478  17.456
 3237SOL    HW121339   2.190   3.527  17.401
 3237SOL    HW221340   2.177   3.398  17.478
 3238SOL     OW21341   2.467   2.321   7.486
 3238SOL    HW121342   2.514   2.395   7.526
 3238SOL    HW221343   2.509   2.244   7.524
 3239SOL     OW21344   3.508   4.616  23.625
 3239SOL    HW121345   3.441   4.674  23.589
 3239SOL    HW221346   3.481   4.602  23.716
 3240SOL     OW21347   0.841   1.902  19.479
 3240SOL    HW121348   0.767   1.914  19.539
 3240SOL    HW221349   0.831   1.973  19.415
 3241SOL     OW21350   3.787   2.706   3.693
 3241SOL    HW121351   3.787   2.794   3.655
 3241SOL    HW221352   3.877   2.676   3.682
 3242SOL     OW21353   0.867   2.907  19.841
 3242SOL    HW121354   0.898   2.915  19.750
 3242SOL    HW221355   0.947   2.911  19.894
 3243SOL     OW21356   4.025   3.803   8.477
 3243SOL    HW121357   3.984   3.736   8.532
 3243SOL    HW221358   4.097   3.758   8.433
 3244SOL     OW21359   1.902   3.148  11.055
 3244SOL    HW121360   1.946   3.230  11.081
 3244SOL    HW221361   1.934   3.083  11.118
 3245SOL     OW21362   0.690   3.299   6.617
 3245SOL    HW121363   0.705   3.394   6.619
 3245SOL    HW221364   0.693   3.277   6.524
 3246SOL     OW21365   3.323   1.109  22.967
 3246SOL    HW121366   3.331   1.048  22.894
 3246SOL    HW221367   3.236   1.092  23.003
 3247SOL     OW21368   3.913   4.219   7.603
 3247SOL    HW121369   3.840   4.253   7.655
 3247SOL    HW221370   3.954   4.298   7.566
 3248SOL     OW21371   0.860   1.146   5.623
 3248SOL    HW121372   0.811   1.124   5.703
 3248SOL    HW221373   0.792   1.162   5.558
 3249SOL     OW21374   2.499   4.038   2.261
 3249SOL    HW121375   2.557   4.101   2.304
 3249SOL    HW221376   2.498   3.963   2.319
 3250SOL     OW21377   3.020   2.971   0.946
 3250SOL    HW121378   3.035   3.037   0.879
 3250SOL    HW221379   2.966   3.015   1.012
 3251SOL     OW21380   4.092   1.946  23.610
 3251SOL    HW121381   4.053   1.880  23.553
 3251SOL    HW221382   4.165   1.981  23.559
 3252SOL     OW21383   1.045   4.114  18.993
 3252SOL    HW121384   0.997   4.188  19.029
 3252SOL    HW221385   1.114   4.096  19.057
 3253SOL     OW21386   3.518   2.893  19.640
 3253SOL    HW121387   3.481   2.951  19.706
 3253SOL    HW221388   3.563   2.952  19.579
 3254SOL     OW21389   2.023   0.952   7.022
 3254SOL    HW121390   2.066   1.036   7.036
 3254SOL    HW221391   1.930   0.973   7.018
 3255SOL     OW21392   3.847   4.002  20.025
 3255SOL    HW121393   3.911   3.951  20.075
 3255SOL    HW221394   3.879   4.092  20.031
 3256SOL     OW21395   1.015   4.462   8.757
 3256SOL    HW121396   0.989   4.439   8.668
 3256SOL    HW221397   0.991   4.554   8.766
 3257SOL     OW21398   1.754   1.357  23.890
 3257SOL    HW121399   1.713   1.302  23.956
 3257SOL    HW221400   1.680   1.402  23.848
 3258SOL     OW21401   3.589   4.698   3.046
 3258SOL    HW121402   3.627   4.630   3.101
 3258SOL    HW221403   3.663   4.733   2.996
 3259SOL     OW21404   0.471   2.486   5.935
 3259SOL    HW121405   0.515   2.563   5.899
 3259SOL    HW221406   0.399   2.522   5.986
 3260SOL     OW21407   3.158   4.075   8.000
 3260SOL    HW121408   3.076   4.109   8.035
 3260SOL    HW221409   3.220   4.147   8.009
 3261SOL     OW21410   3.956   4.566   0.566
 3261SOL    HW121411   3.913   4.648   0.589
 3261SOL    HW221412   4.042   4.593   0.532
 3262SOL     OW21413   0.441   4.000   1.394
 3262SOL    HW121414   0.355   3.959   1.387
 3262SOL    HW221415   0.429   4.089   1.360
 3263SOL     OW21416   1.300   3.203  27.935
 3263SOL    HW121417   1.378   3.156  27.906
 3263SOL    HW221418   1.272   3.157  28.014
 3264SOL     OW21419   2.611   0.392   9.559
 3264SOL    HW121420   2.599   0.431   9.472
 3264SOL    HW221421   2.579   0.459   9.619
 3265SOL     OW21422   1.714   3.587   9.460
 3265SOL    HW121423   1.785   3.564   9.520
 3265SOL    HW221424   1.647   3.520   9.475
 3266SOL     OW21425   4.060   1.734  25.477
 3266SOL    HW121426   4.017   1.810  25.516
 3266SOL    HW221427   4.109   1.769  25.403
 3267SOL     OW21428   3.949   3.757   0.402
 3267SOL    HW121429   3.867   3.785   0.443
 3267SOL    HW221430   3.987   3.696   0.465
 3268SOL     OW21431   3.145   0.868  27.951
 3268SOL    HW121432   3.155   0.794  27.891
 3268SOL    HW221433   3.235   0.892  27.975
 3269SOL     OW21434   0.021   0.349  21.074
 3269SOL    HW121435   0.015   0.254  21.080
 3269SOL    HW221436   0.105   0.365  21.030
 3270SOL     OW21437   4.357   0.825   6.625
 3270SOL    HW121438   4.365   0.751   6.565
 3270SOL    HW221439   4.292   0.796   6.689
 3271SOL     OW21440   1.496   3.456  22.732
 3271SOL    HW121441   1.468   3.394  22.800
 3271SOL    HW221442   1.472   3.542  22.767
 3272SOL     OW21443   3.516   3.587  20.472
 3272SOL    HW121444   3.517   3.659  20.408
 3272SOL    HW221445   3.462   3.620  20.544
 3273SOL     OW21446   3.502   2.198   2.704
 3273SOL    HW121447   3.528   2.167   2.790
 3273SOL    HW221448   3.544   2.284   2.696
 3274SOL     OW21449   1.928   0.028  18.506
 3274SOL    HW121450   2.013   0.014  18.464
 3274SOL    HW221451   1.917   0.123  18.506
 3275SOL     OW21452   1.667   2.922   8.879
 3275SOL    HW121453   1.700   2.833   8.865
 3275SOL    HW221454   1.590   2.910   8.936
 3276SOL     OW21455   1.449   0.195   3.898
 3276SOL    HW121456   1.398   0.252   3.840
 3276SOL    HW221457   1.428   0.106   3.870
 3277SOL     OW21458   3.132   4.713  24.428
 3277SOL    HW121459   3.193   4.671  24.367
 3277SOL    HW221460   3.068   4.645  24.448
 3278SOL     OW21461   1.591   2.045  27.122
 3278SOL    HW121462   1.550   2.132  27.121
 3278SOL    HW221463   1.585   2.017  27.213
 3279SOL     OW21464   0.775   1.371  17.919
 3279SOL    HW121465   0.712   1.317  17.871
 3279SOL    HW221466   0.855   1.318  17.922
 3280SOL     OW21467   2.809   4.067  10.015
 3280SOL    HW121468   2.719   4.099  10.007
 3280SOL    HW221469   2.823   4.058  10.109
 3281SOL     OW21470   3.390   3.767  23.226
 3281SOL    HW121471   3.297   3.770  23.201
 3281SOL    HW221472   3.437   3.785  23.144
 3282SOL     OW21473   3.089   1.300  20.925
 3282SOL    HW121474   3.023   1.287  20.994
 3282SOL    HW221475   3.158   1.237  20.945
 3283SOL     OW21476   1.748   3.566  22.675
 3283SOL    HW121477   1.794   3.511  22.738
 3283SOL    HW221478   1.655   3.553  22.694
 3284SOL     OW21479   0.951   2.773   5.444
 3284SOL    HW121480   0.891   2.807   5.510
 3284SOL    HW221481   0.900   2.707   5.398
 3285SOL     OW21482   2.571   3.677  22.130
 3285SOL    HW121483   2.489   3.712  22.096
 3285SOL    HW221484   2.639   3.722  22.079
 3286SOL     OW21485   1.572   0.973  25.128
 3286SOL    HW121486   1.666   0.987  25.117
 3286SOL    HW221487   1.561   0.879  25.116
 3287SOL     OW21488   4.395   2.114   3.589
 3287SOL    HW121489   4.328   2.182   3.594
 3287SOL    HW221490   4.461   2.140   3.653
 3288SOL     OW21491   3.465   1.411   9.331
 3288SOL    HW121492   3.369   1.404   9.336
 3288SOL    HW221493   3.497   1.352   9.400
 3289SOL     OW21494   1.521   1.443  27.329
 3289SOL    HW121495   1.446   1.387  27.350
 3289SOL    HW221496   1.487   1.532  27.332
 3290SOL     OW21497   1.609   0.772   9.534
 3290SOL    HW121498   1.554   0.767   9.612
 3290SOL    HW221499   1.548   0.782   9.461
 3291SOL     OW21500   3.360   4.231   2.948
 3291SOL    HW121501   3.447   4.191   2.950
 3291SOL    HW221502   3.343   4.249   2.855
 3292SOL     OW21503   2.632   1.107   4.297
 3292SOL    HW121504   2.691   1.156   4.355
 3292SOL    HW221505   2.553   1.160   4.293
 3293SOL     OW21506   2.130   0.083  20.673
 3293SOL    HW121507   2.207   0.129  20.706
 3293SOL    HW221508   2.071   0.078  20.749
 3294SOL     OW21509   4.537   3.220  18.793
 3294SOL    HW121510   4.564   3.129  18.810
 3294SOL    HW221511   4.472   3.239  18.860
 3295SOL     OW21512   2.609   3.301  24.379
 3295SOL    HW121513   2.633   3.234  24.444
 3295SOL    HW221514   2.682   3.364  24.382
 3296SOL     OW21515   2.196   3.604   3.909
 3296SOL    HW121516   2.168   3.581   3.820
 3296SOL    HW221517   2.219   3.520   3.949
 3297SOL     OW21518   2.233   0.454  24.299
 3297SOL    HW121519   2.243   0.475  24.206
 3297SOL    HW221520   2.293   0.381  24.314
 3298SOL     OW21521   3.675   2.668  17.430
 3298SOL    HW121522   3.690   2.758  17.401
 3298SOL    HW221523   3.719   2.662  17.514
 3299SOL     OW21524   0.549   3.514  27.335
 3299SOL    HW121525   0.505   3.433  27.360
 3299SOL    HW221526   0.640   3.489  27.321
 3300SOL     OW21527   4.322   0.189  24.924
 3300SOL    HW121528   4.269   0.244  24.982
 3300SOL    HW221529   4.406   0.234  24.918
 3301SOL     OW21530   2.053   1.959   0.478
 3301SOL    HW121531   2.112   1.892   0.445
 3301SOL    HW221532   1.989   1.971   0.407
 3302SOL     OW21533   1.863   3.771  19.593
 3302SOL    HW121534   1.844   3.865  19.594
 3302SOL    HW221535   1.877   3.751  19.500
 3303SOL     OW21536   3.572   1.740  27.851
 3303SOL    HW121537   3.630   1.787  27.912
 3303SOL    HW221538   3.564   1.652  27.888
 3304SOL     OW21539   3.476   1.855   2.399
 3304SOL    HW121540   3.503   1.763   2.393
 3304SOL    HW221541   3.424   1.859   2.479
 3305SOL     OW21542   4.138   3.320  24.173
 3305SOL    HW121543   4.102   3.390  24.118
 3305SOL    HW221544   4.194   3.366  24.236
 3306SOL     OW21545   1.548   1.817   1.857
 3306SOL    HW121546   1.564   1.911   1.844
 3306SOL    HW221547   1.625   1.786   1.904
 3307SOL     OW21548   4.771   3.690   5.682
 3307SOL    HW121549   4.700   3.657   5.738
 3307SOL    HW221550   0.020   3.770   5.725
 3308SOL     OW21551   3.721   2.259  22.035
 3308SOL    HW121552   3.770   2.182  22.006
 3308SOL    HW221553   3.757   2.332  21.986
 3309SOL     OW21554   2.264   0.055  26.616
 3309SOL    HW121555   2.283   0.112  26.691
 3309SOL    HW221556   2.191   0.000  26.645
 3310SOL     OW21557   4.380   3.349   4.924
 3310SOL    HW121558   4.304   3.405   4.941
 3310SOL    HW221559   4.422   3.388   4.847
 3311SOL     OW21560   1.113   0.932  18.615
 3311SOL    HW121561   1.072   1.007  18.573
 3311SOL    HW221562   1.207   0.947  18.602
 3312SOL     OW21563   2.872   1.779   3.105
 3312SOL    HW121564   2.815   1.716   3.150
 3312SOL    HW221565   2.960   1.741   3.112
 3313SOL     OW21566   1.703   0.128  24.023
 3313SOL    HW121567   1.650   0.105  24.099
 3313SOL    HW221568   1.673   0.069  23.954
 3314SOL     OW21569   1.153   2.861  10.272
 3314SOL    HW121570   1.241   2.832  10.296
 3314SOL    HW221571   1.095   2.815  10.333
 3315SOL     OW21572   4.127   1.462  23.585
 3315SOL    HW121573   4.081   1.412  23.652
 3315SOL    HW221574   4.057   1.500  23.532
 3316SOL     OW21575   0.833   4.779  27.063
 3316SOL    HW121576   0.925   4.754  27.057
 3316SOL    HW221577   0.830   0.060  27.136
 3317SOL     OW21578   1.735   3.164  25.490
 3317SOL    HW121579   1.726   3.257  25.515
 3317SOL    HW221580   1.760   3.166  25.398
 3318SOL     OW21581   3.604   2.777  24.854
 3318SOL    HW121582   3.587   2.846  24.790
 3318SOL    HW221583   3.697   2.759  24.845
 3319SOL     OW21584   3.267   2.345  22.475
 3319SOL    HW121585   3.207   2.415  22.451
 3319SOL    HW221586   3.241   2.271  22.420
 3320SOL     OW21587   2.317   1.488  20.966
 3320SOL    HW121588   2.277   1.532  20.891
 3320SOL    HW221589   2.369   1.555  21.009
 3321SOL     OW21590   1.565   0.865  22.360
 3321SOL    HW121591   1.570   0.960  22.373
 3321SOL    HW221592   1.529   0.855  22.272
 3322SOL     OW21593   1.317   1.222  18.499
 3322SOL    HW121594   1.384   1.168  18.458
 3322SOL    HW221595   1.246   1.226  18.435
 3323SOL     OW21596   2.522   4.745   1.023
 3323SOL    HW121597   2.613   4.727   0.997
 3323SOL    HW221598   2.507   4.688   1.099
 3324SOL     OW21599   1.299   1.665   7.291
 3324SOL    HW121600   1.331   1.755   7.298
 3324SOL    HW221601   1.207   1.670   7.317
 3325SOL     OW21602   3.426   1.668  20.377
 3325SOL    HW121603   3.513   1.629  20.369
 3325SOL    HW221604   3.387   1.624  20.453
 3326SOL     OW21605   0.212   0.063  28.266
 3326SOL    HW121606   0.178   4.768  28.220
 3326SOL    HW221607   0.213   0.133  28.200
 3327SOL     OW21608   1.917   1.939   6.729
 3327SOL    HW121609   1.907   2.012   6.790
 3327SOL    HW221610   1.874   1.866   6.773
 3328SOL     OW21611   0.689   2.164   5.266
 3328SOL    HW121612   0.666   2.229   5.333
 3328SOL    HW221613   0.610   2.110   5.257
 3329SOL     OW21614   3.767   2.389  28.385
 3329SOL    HW121615   3.673   2.371  28.377
 3329SOL    HW221616   3.792   2.426  28.301
 3330SOL     OW21617   0.865   4.298   2.923
 3330SOL    HW121618   0.903   4.382   2.947
 3330SOL    HW221619   0.915   4.233   2.972
 3331SOL     OW21620   3.332   1.031  27.278
 3331SOL    HW121621   3.271   1.104  27.269
 3331SOL    HW221622   3.418   1.070  27.265
 3332SOL     OW21623   0.525   4.641   8.359
 3332SOL    HW121624   0.522   4.687   8.275
 3332SOL    HW221625   0.459   4.572   8.351
 3333SOL     OW21626   4.062   2.004   5.786
 3333SOL    HW121627   4.143   2.043   5.755
 3333SOL    HW221628   3.993   2.063   5.754
 3334SOL     OW21629   1.282   3.452   0.495
 3334SOL    HW121630   1.314   3.511   0.426
 3334SOL    HW221631   1.213   3.503   0.538
 3335SOL     OW21632   1.266   0.544   0.252
 3335SOL    HW121633   1.176   0.562   0.227
 3335SOL    HW221634   1.259   0.505   0.339
 3336SOL     OW21635   3.998   0.459   8.626
 3336SOL    HW121636   3.956   0.374   8.640
 3336SOL    HW221637   3.929   0.515   8.593
 3337SOL     OW21638   2.760   4.630   1.597
 3337SOL    HW121639   2.754   4.625   1.501
 3337SOL    HW221640   2.684   4.681   1.623
 3338SOL     OW21641   1.224   0.604  22.270
 3338SOL    HW121642   1.233   0.647  22.185
 3338SOL    HW221643   1.152   0.650  22.313
 3339SOL     OW21644   1.496   3.799   5.007
 3339SOL    HW121645   1.532   3.726   5.058
 3339SOL    HW221646   1.510   3.774   4.916
 3340SOL     OW21647   3.923   0.015   4.764
 3340SOL    HW121648   3.957   0.050   4.682
 3340SOL    HW221649   4.001   4.776   4.816
 3341SOL     OW21650   2.996   3.535  17.627
 3341SOL    HW121651   3.087   3.562  17.618
 3341SOL    HW221652   2.950   3.577  17.555
 3342SOL     OW21653   4.505   3.483  22.286
 3342SOL    HW121654   4.530   3.425  22.358
 3342SOL    HW221655   4.459   3.427  22.224
 3343SOL     OW21656   3.424   2.735  23.065
 3343SOL    HW121657   3.431   2.706  23.156
 3343SOL    HW221658   3.436   2.656  23.013
 3344SOL     OW21659   0.875   0.961  21.044
 3344SOL    HW121660   0.862   1.056  21.050
 3344SOL    HW221661   0.862   0.941  20.951
 3345SOL     OW21662   4.483   0.088   4.625
 3345SOL    HW121663   4.452   0.053   4.541
 3345SOL    HW221664   4.415   0.150   4.651
 3346SOL     OW21665   3.155   1.060  18.887
 3346SOL    HW121666   3.145   1.136  18.944
 3346SOL    HW221667   3.068   1.019  18.887
 3347SOL     OW21668   3.765   0.475   5.262
 3347SOL    HW121669   3.851   0.445   5.291
 3347SOL    HW221670   3.744   0.419   5.188
 3348SOL     OW21671   0.765   4.386   5.100
 3348SOL    HW121672   0.685   4.342   5.130
 3348SOL    HW221673   0.791   4.442   5.173
 3349SOL     OW21674   3.110   3.966   7.054
 3349SOL    HW121675   3.189   4.017   7.034
 3349SOL    HW221676   3.104   3.903   6.983
 3350SOL     OW21677   0.283   4.489  27.049
 3350SOL    HW121678   0.308   4.486  26.957
 3350SOL    HW221679   0.270   4.582  27.068
 3351SOL     OW21680   4.471   4.725   0.592
 3351SOL    HW121681   4.459   4.685   0.679
 3351SOL    HW221682   4.560   4.701   0.567
 3352SOL     OW21683   1.346   0.391  23.720
 3352SOL    HW121684   1.281   0.461  23.731
 3352SOL    HW221685   1.418   0.416  23.779
 3353SOL     OW21686   3.480   4.017   4.635
 3353SOL    HW121687   3.552   3.976   4.682
 3353SOL    HW221688   3.493   4.111   4.648
 3354SOL     OW21689   1.694   2.864  10.824
 3354SOL    HW121690   1.632   2.833  10.758
 3354SOL    HW221691   1.686   2.801  10.896
 3355SOL     OW21692   0.263   3.159   4.818
 3355SOL    HW121693   0.306   3.241   4.843
 3355SOL    HW221694   0.241   3.118   4.901
 3356SOL     OW21695   2.761   3.490  10.271
 3356SOL    HW121696   2.745   3.505  10.178
 3356SOL    HW221697   2.792   3.399  10.275
 3357SOL     OW21698   0.905   2.711   0.361
 3357SOL    HW121699   0.900   2.638   0.422
 3357SOL    HW221700   0.987   2.699   0.314
 3358SOL     OW21701   0.864   4.266  25.798
 3358SOL    HW121702   0.849   4.342  25.742
 3358SOL    HW221703   0.806   4.280  25.873
 3359SOL     OW21704   3.909   2.640   2.965
 3359SOL    HW121705   3.953   2.674   3.043
 3359SOL    HW221706   3.931   2.702   2.896
 3360SOL     OW21707   3.695   1.386  19.377
 3360SOL    HW121708   3.635   1.318  19.349
 3360SOL    HW221709   3.639   1.454  19.415
 3361SOL     OW21710   4.059   0.378   6.627
 3361SOL    HW121711   4.038   0.326   6.705
 3361SOL    HW221712   4.067   0.314   6.557
 3362SOL     OW21713   1.678   2.018  27.386
 3362SOL    HW121714   1.751   1.958  27.373
 3362SOL    HW221715   1.688   2.051  27.475
 3363SOL     OW21716   4.750   3.696  25.101
 3363SOL    HW121717   4.710   3.781  25.120
 3363SOL    HW221718   4.748   3.649  25.184
 3364SOL     OW21719   4.337   1.080  21.176
 3364SOL    HW121720   4.401   1.090  21.105
 3364SOL    HW221721   4.290   1.163  21.177
 3365SOL     OW21722   1.496   0.237  22.180
 3365SOL    HW121723   1.584   0.239  22.142
 3365SOL    HW221724   1.489   0.320  22.227
 3366SOL     OW21725   1.829   3.980  21.277
 3366SOL    HW121726   1.770   3.982  21.352
 3366SOL    HW221727   1.854   4.071  21.263
 3367SOL     OW21728   4.110   0.015  21.706
 3367SOL    HW121729   4.017   0.020  21.729
 3367SOL    HW221730   4.117   0.069  21.627
 3368SOL     OW21731   3.279   4.679  27.230
 3368SOL    HW121732   3.260   4.595  27.274
 3368SOL    HW221733   3.337   4.655  27.158
 3369SOL     OW21734   2.802   2.271  24.805
 3369SOL    HW121735   2.757   2.305  24.882
 3369SOL    HW221736   2.853   2.197  24.839
 3370SOL     OW21737   1.247   0.081  28.115
 3370SOL    HW121738   1.192   0.003  28.119
 3370SOL    HW221739   1.336   0.047  28.101
 3371SOL     OW21740   1.181   4.172   8.457
 3371SOL    HW121741   1.244   4.217   8.513
 3371SOL    HW221742   1.224   4.090   8.433
 3372SOL     OW21743   2.774   3.607   5.614
 3372SOL    HW121744   2.809   3.520   5.594
 3372SOL    HW221745   2.798   3.621   5.706
 3373SOL     OW21746   2.834   3.944  27.262
 3373SOL    HW121747   2.761   3.941  27.200
 3373SOL    HW221748   2.792   3.951  27.348
 3374SOL     OW21749   2.835   3.078  24.325
 3374SOL    HW121750   2.893   3.014  24.366
 3374SOL    HW221751   2.753   3.072  24.375
 3375SOL     OW21752   0.451   0.433  23.833
 3375SOL    HW121753   0.489   0.372  23.896
 3375SOL    HW221754   0.372   0.466  23.876
 3376SOL     OW21755   3.987   3.256   1.560
 3376SOL    HW121756   3.974   3.346   1.592
 3376SOL    HW221757   4.046   3.217   1.624
 3377SOL     OW21758   3.573   0.180   7.099
 3377SOL    HW121759   3.543   0.270   7.084
 3377SOL    HW221760   3.525   0.128   7.035
 3378SOL     OW21761   3.313   4.611  28.070
 3378SOL    HW121762   3.409   4.604  28.076
 3378SOL    HW221763   3.281   4.578  28.153
 3379SOL     OW21764   4.368   0.628   3.969
 3379SOL    HW121765   4.306   0.694   4.000
 3379SOL    HW221766   4.324   0.587   3.895
 3380SOL     OW21767   0.616   2.135   1.399
 3380SOL    HW121768   0.589   2.060   1.453
 3380SOL    HW221769   0.639   2.203   1.463
 3381SOL     OW21770   3.982   2.728   6.411
 3381SOL    HW121771   3.897   2.698   6.442
 3381SOL    HW221772   4.037   2.649   6.409
 3382SOL     OW21773   0.058   3.844   3.224
 3382SOL    HW121774   4.744   3.850   3.216
 3382SOL    HW221775   0.081   3.905   3.294
 3383SOL     OW21776   1.243   2.137   8.603
 3383SOL    HW121777   1.157   2.111   8.638
 3383SOL    HW221778   1.257   2.078   8.530
 3384SOL     OW21779   1.306   2.580   4.359
 3384SOL    HW121780   1.238   2.516   4.337
 3384SOL    HW221781   1.387   2.528   4.360
 3385SOL     OW21782   4.611   3.620  10.748
 3385SOL    HW121783   4.519   3.620  10.719
 3385SOL    HW221784   4.608   3.654  10.837
 3386SOL     OW21785   1.553   4.664  17.441
 3386SOL    HW121786   1.619   4.604  17.406
 3386SOL    HW221787   1.602   4.744  17.461
 3387SOL     OW21788   2.694   1.838  10.052
 3387SOL    HW121789   2.647   1.757  10.069
 3387SOL    HW221790   2.626   1.901  10.027
 3388SOL     OW21791   1.244   0.775  21.644
 3388SOL    HW121792   1.253   0.713  21.717
 3388SOL    HW221793   1.328   0.771  21.598
 3389SOL     OW21794   3.539   1.099   5.574
 3389SOL    HW121795   3.584   1.178   5.603
 3389SOL    HW221796   3.609   1.038   5.552
 3390SOL     OW21797   1.408   1.299   2.424
 3390SOL    HW121798   1.403   1.392   2.404
 3390SOL    HW221799   1.390   1.293   2.518
 3391SOL     OW21800   2.269   2.086  25.259
 3391SOL    HW121801   2.291   2.160  25.316
 3391SOL    HW221802   2.319   2.013  25.293
 3392SOL     OW21803   3.336   2.943  24.068
 3392SOL    HW121804   3.361   2.946  23.976
 3392SOL    HW221805   3.241   2.953  24.068
 3393SOL     OW21806   4.221   1.188  24.270
 3393SOL    HW121807   4.242   1.106  24.225
 3393SOL    HW221808   4.194   1.248  24.200
 3394SOL     OW21809   1.432   0.732  23.339
 3394SOL    HW121810   1.473   0.817  23.327
 3394SOL    HW221811   1.503   0.669  23.325
 3395SOL     OW21812   2.570   0.034   4.911
 3395SOL    HW121813   2.612   4.747   4.964
 3395SOL    HW221814   2.520   0.086   4.974
 3396SOL     OW21815   3.752   1.732   9.674
 3396SOL    HW121816   3.806   1.737   9.752
 3396SOL    HW221817   3.799   1.783   9.608
 3397SOL     OW21818   1.390   4.197   9.348
 3397SOL    HW121819   1.308   4.190   9.299
 3397SOL    HW221820   1.379   4.137   9.422
 3398SOL     OW21821   0.448   2.455   0.594
 3398SOL    HW121822   0.501   2.532   0.617
 3398SOL    HW221823   0.473   2.434   0.505
 3399SOL     OW21824   2.294   4.360  20.390
 3399SOL    HW121825   2.202   4.331  20.389
 3399SOL    HW221826   2.289   4.455  20.387
 3400SOL     OW21827   4.231   0.633   3.224
 3400SOL    HW121828   4.245   0.718   3.265
 3400SOL    HW221829   4.143   0.607   3.252
 3401SOL     OW21830   3.671   3.817   8.634
 3401SOL    HW121831   3.586   3.856   8.654
 3401SOL    HW221832   3.734   3.884   8.659
 3402SOL     OW21833   1.187   4.208  28.203
 3402SOL    HW121834   1.209   4.147  28.274
 3402SOL    HW221835   1.234   4.288  28.225
 3403SOL     OW21836   2.851   4.092  10.280
 3403SOL    HW121837   2.934   4.053  10.306
 3403SOL    HW221838   2.786   4.051  10.338
 3404SOL     OW21839   3.650   3.982   9.363
 3404SOL    HW121840   3.560   4.002   9.390
 3404SOL    HW221841   3.704   4.040   9.416
 3405SOL     OW21842   4.069   2.807  22.998
 3405SOL    HW121843   4.093   2.739  23.061
 3405SOL    HW221844   3.978   2.828  23.019
 3406SOL     OW21845   2.642   2.549  28.066
 3406SOL    HW121846   2.713   2.589  28.017
 3406SOL    HW221847   2.683   2.478  28.115
 3407SOL     OW21848   4.235   1.621  24.391
 3407SOL    HW121849   4.146   1.639  24.421
 3407SOL    HW221850   4.259   1.539  24.434
 3408SOL     OW21851   0.128   1.071   0.387
 3408SOL    HW121852   0.117   1.159   0.423
 3408SOL    HW221853   0.115   1.082   0.292
 3409SOL     OW21854   4.615   3.965   8.711
 3409SOL    HW121855   4.615   4.041   8.653
 3409SOL    HW221856   4.527   3.927   8.701
 3410SOL     OW21857   2.616   0.710   6.367
 3410SOL    HW121858   2.629   0.803   6.348
 3410SOL    HW221859   2.580   0.707   6.455
 3411SOL     OW21860   1.003   1.430   3.785
 3411SOL    HW121861   0.917   1.470   3.773
 3411SOL    HW221862   0.985   1.336   3.793
 3412SOL     OW21863   3.780   2.942  26.705
 3412SOL    HW121864   3.813   3.007  26.643
 3412SOL    HW221865   3.838   2.867  26.693
 3413SOL     OW21866   2.322   0.816  19.417
 3413SOL    HW121867   2.360   0.807  19.330
 3413SOL    HW221868   2.398   0.828  19.475
 3414SOL     OW21869   2.686   4.549   7.917
 3414SOL    HW121870   2.698   4.641   7.893
 3414SOL    HW221871   2.649   4.509   7.839
 3415SOL     OW21872   4.434   1.868   3.419
 3415SOL    HW121873   4.426   1.963   3.426
 3415SOL    HW221874   4.369   1.834   3.480
 3416SOL     OW21875   2.835   2.746   2.612
 3416SOL    HW121876   2.917   2.752   2.661
 3416SOL    HW221877   2.794   2.832   2.623
 3417SOL     OW21878   0.318   4.013   4.744
 3417SOL    HW121879   0.362   3.990   4.826
 3417SOL    HW221880   0.340   4.105   4.730
 3418SOL     OW21881   3.575   1.852  17.567
 3418SOL    HW121882   3.648   1.793  17.589
 3418SOL    HW221883   3.505   1.793  17.539
 3419SOL     OW21884   1.190   4.468  27.183
 3419SOL    HW121885   1.129   4.411  27.136
 3419SOL    HW221886   1.267   4.473  27.126
 3420SOL     OW21887   0.458   1.175   5.169
 3420SOL    HW121888   0.391   1.141   5.229
 3420SOL    HW221889   0.418   1.168   5.082
 3421SOL     OW21890   4.613   4.676  24.926
 3421SOL    HW121891   4.621   4.581  24.935
 3421SOL    HW221892   4.684   4.711  24.980
 3422SOL     OW21893   1.032   4.021  26.798
 3422SOL    HW121894   1.019   4.097  26.741
 3422SOL    HW221895   0.993   3.948  26.750
 3423SOL     OW21896   3.015   3.002  10.982
 3423SOL    HW121897   3.106   2.977  10.965
 3423SOL    HW221898   2.998   2.976  11.072
 3424SOL     OW21899   2.692   0.127  23.804
 3424SOL    HW121900   2.759   0.132  23.872
 3424SOL    HW221901   2.628   0.064  23.839
 3425SOL     OW21902   4.146   1.486  25.507
 3425SOL    HW121903   4.093   1.565  25.496
 3425SOL    HW221904   4.151   1.448  25.418
 3426SOL     OW21905   2.709   3.129  22.407
 3426SOL    HW121906   2.680   3.071  22.336
 3426SOL    HW221907   2.645   3.115  22.477
 3427SOL     OW21908   2.877   3.088   7.735
 3427SOL    HW121909   2.955   3.085   7.680
 3427SOL    HW221910   2.906   3.130   7.816
 3428SOL     OW21911   4.032   2.739   4.303
 3428SOL    HW121912   4.034   2.816   4.246
 3428SOL    HW221913   4.059   2.773   4.388
 3429SOL     OW21914   4.081   2.885  26.551
 3429SOL    HW121915   4.007   2.838  26.513
 3429SOL    HW221916   4.099   2.837  26.632
 3430SOL     OW21917   1.976   3.512   0.086
 3430SOL    HW121918   1.994   3.581   0.150
 3430SOL    HW221919   2.028   3.537   0.009
 3431SOL     OW21920   0.181   1.133  21.278
 3431SOL    HW121921   0.206   1.223  21.302
 3431SOL    HW221922   0.093   1.123  21.313
 3432SOL     OW21923   3.352   3.655   3.722
 3432SOL    HW121924   3.331   3.649   3.629
 3432SOL    HW221925   3.268   3.645   3.766
 3433SOL     OW21926   0.778   3.908   8.364
 3433SOL    HW121927   0.690   3.940   8.346
 3433SOL    HW221928   0.769   3.855   8.443
 3434SOL     OW21929   0.083   1.613  10.921
 3434SOL    HW121930   4.776   1.576  10.911
 3434SOL    HW221931   0.095   1.621  11.016
 3435SOL     OW21932   1.246   1.568   5.604
 3435SOL    HW121933   1.263   1.619   5.525
 3435SOL    HW221934   1.330   1.566   5.651
 3436SOL     OW21935   3.074   1.328   2.751
 3436SOL    HW121936   2.999   1.300   2.700
 3436SOL    HW221937   3.038   1.391   2.815
 3437SOL     OW21938   3.200   3.768  15.976
 3437SOL    HW121939   3.254   3.829  15.925
 3437SOL    HW221940   3.261   3.702  16.008
 3438SOL     OW21941   3.678   2.782  10.116
 3438SOL    HW121942   3.654   2.842  10.045
 3438SOL    HW221943   3.602   2.783  10.174
 3439SOL     OW21944   4.233   1.675   7.731
 3439SOL    HW121945   4.246   1.661   7.825
 3439SOL    HW221946   4.280   1.603   7.689
 3440SOL     OW21947   3.693   0.388  24.291
 3440SOL    HW121948   3.705   0.328  24.364
 3440SOL    HW221949   3.782   0.414  24.267
 3441SOL     OW21950   3.454   3.239  20.873
 3441SOL    HW121951   3.383   3.185  20.837
 3441SOL    HW221952   3.486   3.290  20.799
 3442SOL     OW21953   1.586   4.031  25.693
 3442SOL    HW121954   1.648   4.014  25.622
 3442SOL    HW221955   1.603   3.962  25.757
 3443SOL     OW21956   1.282   0.713  22.023
 3443SOL    HW121957   1.298   0.647  21.955
 3443SOL    HW221958   1.368   0.751  22.040
 3444SOL     OW21959   1.778   0.169   7.624
 3444SOL    HW121960   1.829   0.128   7.694
 3444SOL    HW221961   1.748   0.096   7.570
 3445SOL     OW21962   1.020   2.442   8.493
 3445SOL    HW121963   0.989   2.448   8.583
 3445SOL    HW221964   0.940   2.432   8.441
 3446SOL     OW21965   2.602   4.104   3.068
 3446SOL    HW121966   2.689   4.140   3.049
 3446SOL    HW221967   2.543   4.178   3.055
 3447SOL     OW21968   0.436   0.786  26.848
 3447SOL    HW121969   0.400   0.845  26.782
 3447SOL    HW221970   0.406   0.822  26.931
 3448SOL     OW21971   1.394   4.276  24.006
 3448SOL    HW121972   1.394   4.317  23.920
 3448SOL    HW221973   1.324   4.212  24.002
 3449SOL     OW21974   0.717   2.061   0.358
 3449SOL    HW121975   0.729   2.149   0.321
 3449SOL    HW221976   0.643   2.025   0.309
 3450SOL     OW21977   0.695   1.923   6.910
 3450SOL    HW121978   0.697   1.972   6.828
 3450SOL    HW221979   0.634   1.851   6.893
 3451SOL     OW21980   0.870   0.736  27.537
 3451SOL    HW121981   0.897   0.745  27.629
 3451SOL    HW221982   0.936   0.679  27.498
 3452SOL     OW21983   0.682   3.198  20.302
 3452SOL    HW121984   0.697   3.163  20.215
 3452SOL    HW221985   0.724   3.284  20.301
 3453SOL     OW21986   4.188   2.206   4.895
 3453SOL    HW121987   4.188   2.144   4.822
 3453SOL    HW221988   4.227   2.158   4.967
 3454SOL     OW21989   0.271   0.033   9.316
 3454SOL    HW121990   0.282   4.740   9.256
 3454SOL    HW221991   0.328   0.101   9.282
 3455SOL     OW21992   3.671   3.030  26.302
 3455SOL    HW121993   3.602   3.008  26.239
 3455SOL    HW221994   3.623   3.066  26.378
 3456SOL     OW21995   3.529   2.844   8.231
 3456SOL    HW121996   3.547   2.936   8.214
 3456SOL    HW221997   3.451   2.844   8.286
 3457SOL     OW21998   1.541   0.458   1.762
 3457SOL    HW121999   1.478   0.391   1.736
 3457SOL    HW222000   1.626   0.413   1.757
 3458SOL     OW22001   1.601   1.979   0.029
 3458SOL    HW122002   1.636   1.910   0.085
 3458SOL    HW222003   1.521   1.941  28.514
 3459SOL     OW22004   1.884   0.854  20.170
 3459SOL    HW122005   1.959   0.840  20.112
 3459SOL    HW222006   1.845   0.768  20.180
 3460SOL     OW22007   3.099   1.852   2.223
 3460SOL    HW122008   3.157   1.822   2.154
 3460SOL    HW222009   3.046   1.921   2.182
 3461SOL     OW22010   3.865   2.598  10.008
 3461SOL    HW122011   3.852   2.604   9.913
 3461SOL    HW222012   3.813   2.670  10.043
 3462SOL     OW22013   0.440   3.842  26.029
 3462SOL    HW122014   0.460   3.900  25.956
 3462SOL    HW222015   0.392   3.897  26.091
 3463SOL     OW22016   4.287   3.656  26.893
 3463SOL    HW122017   4.327   3.730  26.849
 3463SOL    HW222018   4.196   3.683  26.907
 3464SOL     OW22019   1.244   4.302  19.102
 3464SOL    HW122020   1.207   4.385  19.072
 3464SOL    HW222021   1.186   4.273  19.173
 3465SOL     OW22022   0.263   3.593  23.144
 3465SOL    HW122023   0.220   3.507  23.147
 3465SOL    HW222024   0.197   3.654  23.176
 3466SOL     OW22025   1.218   0.075   8.310
 3466SOL    HW122026   1.274   0.014   8.262
 3466SOL    HW222027   1.129   0.046   8.291
 3467SOL     OW22028   2.231   2.666   2.764
 3467SOL    HW122029   2.195   2.669   2.853
 3467SOL    HW222030   2.326   2.661   2.776
 3468SOL     OW22031   0.016   1.702   9.200
 3468SOL    HW122032   0.026   1.683   9.107
 3468SOL    HW222033   0.037   1.620   9.244
 3469SOL     OW22034   0.507   1.160  28.493
 3469SOL    HW122035   0.467   1.150  28.407
 3469SOL    HW222036   0.514   1.070   0.004
 3470SOL     OW22037   1.592   4.447   7.140
 3470SOL    HW122038   1.667   4.483   7.187
 3470SOL    HW222039   1.616   4.356   7.124
 3471SOL     OW22040   1.214   2.191   0.823
 3471SOL    HW122041   1.150   2.261   0.832
 3471SOL    HW222042   1.171   2.124   0.771
 3472SOL     OW22043   0.895   3.048  28.108
 3472SOL    HW122044   0.909   3.142  28.097
 3472SOL    HW222045   0.840   3.040  28.186
 3473SOL     OW22046   0.046   2.525   1.227
 3473SOL    HW122047   4.758   2.463   1.250
 3473SOL    HW222048   0.015   2.609   1.262
 3474SOL     OW22049   4.448   4.396   2.649
 3474SOL    HW122050   4.441   4.418   2.556
 3474SOL    HW222051   4.465   4.479   2.692
 3475SOL     OW22052   1.620   0.752  21.890
 3475SOL    HW122053   1.709   0.744  21.857
 3475SOL    HW222054   1.594   0.663  21.911
 3476SOL     OW22055   3.145   0.153  22.813
 3476SOL    HW122056   3.186   0.069  22.834
 3476SOL    HW222057   3.206   0.196  22.754
 3477SOL     OW22058   2.794   0.134   3.279
 3477SOL    HW122059   2.890   0.132   3.273
 3477SOL    HW222060   2.775   0.112   3.370
 3478SOL     OW22061   0.503   4.354  26.871
 3478SOL    HW122062   0.488   4.308  26.789
 3478SOL    HW222063   0.577   4.412  26.853
 3479SOL     OW22064   3.406   2.975  22.376
 3479SOL    HW122065   3.313   2.955  22.389
 3479SOL    HW222066   3.414   3.068  22.394
 3480SOL     OW22067   3.956   4.281  20.040
 3480SOL    HW122068   4.035   4.235  20.013
 3480SOL    HW222069   3.932   4.333  19.963
 3481SOL     OW22070   1.859   1.804  17.814
 3481SOL    HW122071   1.935   1.855  17.787
 3481SOL    HW222072   1.852   1.819  17.908
 3482SOL     OW22073   2.974   4.177   4.333
 3482SOL    HW122074   3.062   4.214   4.327
 3482SOL    HW222075   2.945   4.199   4.422
 3483SOL     OW22076   3.224   2.616   1.287
 3483SOL    HW122077   3.232   2.663   1.204
 3483SOL    HW222078   3.312   2.617   1.324
 3484SOL     OW22079   4.409   1.043  10.097
 3484SOL    HW122080   4.463   1.122  10.096
 3484SOL    HW222081   4.393   1.023  10.005
 3485SOL     OW22082   1.050   3.392  10.519
 3485SOL    HW122083   1.044   3.486  10.501
 3485SOL    HW222084   1.080   3.386  10.609
 3486SOL     OW22085   3.731   1.676   0.912
 3486SOL    HW122086   3.799   1.627   0.958
 3486SOL    HW222087   3.649   1.646   0.950
 3487SOL     OW22088   2.010   0.678   1.199
 3487SOL    HW122089   2.030   0.699   1.290
 3487SOL    HW222090   2.096   0.676   1.156
 3488SOL     OW22091   0.331   0.749  21.678
 3488SOL    HW122092   0.319   0.686  21.748
 3488SOL    HW222093   0.421   0.779  21.686
 3489SOL     OW22094   0.350   2.707  25.447
 3489SOL    HW122095   0.364   2.782  25.389
 3489SOL    HW222096   0.400   2.636  25.406
 3490SOL     OW22097   0.665   2.733  23.421
 3490SOL    HW122098   0.714   2.812  23.443
 3490SOL    HW222099   0.726   2.661  23.440
 3491SOL     OW22100   2.966   3.829  22.730
 3491SOL    HW122101   2.965   3.867  22.642
 3491SOL    HW222102   3.041   3.770  22.729
 3492SOL     OW22103   4.502   2.371  21.772
 3492SOL    HW122104   4.537   2.329  21.851
 3492SOL    HW222105   4.417   2.405  21.799
 3493SOL     OW22106   2.168   0.641  19.149
 3493SOL    HW122107   2.089   0.687  19.178
 3493SOL    HW222108   2.175   0.565  19.206
 3494SOL     OW22109   2.466   2.446   0.262
 3494SOL    HW122110   2.506   2.431   0.347
 3494SOL    HW222111   2.532   2.418   0.198
 3495SOL     OW22112   3.812   1.934  28.386
 3495SOL    HW122113   3.843   2.018  28.420
 3495SOL    HW222114   3.820   1.873  28.459
 3496SOL     OW22115   1.758   3.747   6.570
 3496SOL    HW122116   1.669   3.753   6.535
 3496SOL    HW222117   1.803   3.825   6.537
 3497SOL     OW22118   1.987   0.651   3.723
 3497SOL    HW122119   1.989   0.564   3.682
 3497SOL    HW222120   1.931   0.703   3.665
 3498SOL     OW22121   2.459   0.658  23.546
 3498SOL    HW122122   2.498   0.742  23.524
 3498SOL    HW222123   2.487   0.599  23.476
 3499SOL     OW22124   2.625   2.912  22.191
 3499SOL    HW122125   2.671   2.829  22.178
 3499SOL    HW222126   2.544   2.888  22.235
 3500SOL     OW22127   2.459   2.376   6.479
 3500SOL    HW122128   2.408   2.295   6.485
 3500SOL    HW222129   2.393   2.445   6.468
 3501SOL     OW22130   4.145   4.598  20.844
 3501SOL    HW122131   4.055   4.568  20.828
 3501SOL    HW222132   4.137   4.658  20.918
 3502SOL     OW22133   4.697   2.330   8.708
 3502SOL    HW122134   4.702   2.235   8.716
 3502SOL    HW222135   4.642   2.345   8.631
 3503SOL     OW22136   1.327   4.345  23.115
 3503SOL    HW122137   1.349   4.372  23.026
 3503SOL    HW222138   1.364   4.257  23.124
 3504SOL     OW22139   0.628   4.487  10.608
 3504SOL    HW122140   0.568   4.426  10.565
 3504SOL    HW222141   0.639   4.452  10.696
 3505SOL     OW22142   2.448   3.637  20.766
 3505SOL    HW122143   2.490   3.720  20.785
 3505SOL    HW222144   2.478   3.614  20.678
 3506SOL     OW22145   1.850   0.241  26.938
 3506SOL    HW122146   1.845   0.191  27.019
 3506SOL    HW222147   1.845   0.333  26.966
 3507SOL     OW22148   3.740   4.213  11.737
 3507SOL    HW122149   3.755   4.307  11.723
 3507SOL    HW222150   3.660   4.209  11.788
 3508SOL     OW22151   2.302   3.610  27.989
 3508SOL    HW122152   2.346   3.579  28.068
 3508SOL    HW222153   2.254   3.688  28.017
 3509SOL     OW22154   3.351   3.656  28.497
 3509SOL    HW122155   3.260   3.637  28.520
 3509SOL    HW222156   3.377   3.585  28.439
 3510SOL     OW22157   1.786   1.425   7.753
 3510SOL    HW122158   1.866   1.472   7.728
 3510SOL    HW222159   1.781   1.435   7.848
 3511SOL     OW22160   4.241   4.124  19.183
 3511SOL    HW122161   4.173   4.071  19.225
 3511SOL    HW222162   4.300   4.060  19.142
 3512SOL     OW22163   4.442   0.842  22.608
 3512SOL    HW122164   4.506   0.779  22.640
 3512SOL    HW222165   4.467   0.925  22.649
 3513SOL     OW22166   2.000   2.612  12.155
 3513SOL    HW122167   1.946   2.602  12.234
 3513SOL    HW222168   2.086   2.580  12.181
 3514SOL     OW22169   1.658   4.138   1.993
 3514SOL    HW122170   1.611   4.134   2.076
 3514SOL    HW222171   1.690   4.228   1.987
 3515SOL     OW22172   1.739   0.189   8.361
 3515SOL    HW122173   1.657   0.238   8.356
 3515SOL    HW222174   1.720   0.117   8.422
 3516SOL     OW22175   1.554   3.333  10.987
 3516SOL    HW122176   1.491   3.354  11.057
 3516SOL    HW222177   1.633   3.381  11.012
 3517SOL     OW22178   0.510   2.693   9.984
 3517SOL    HW122179   0.450   2.747  10.035
 3517SOL    HW222180   0.516   2.737   9.899
 3518SOL     OW22181   4.642   4.103  27.876
 3518SOL    HW122182   4.660   4.194  27.854
 3518SOL    HW222183   4.728   4.061  27.877
 3519SOL     OW22184   3.829   4.115   9.552
 3519SOL    HW122185   3.773   4.082   9.622
 3519SOL    HW222186   3.910   4.140   9.596
 3520SOL     OW22187   0.717   4.477  23.979
 3520SOL    HW122188   0.710   4.531  23.900
 3520SOL    HW222189   0.807   4.446  23.979
 3521SOL     OW22190   4.061   4.092  27.332
 3521SOL    HW122191   4.133   4.038  27.364
 3521SOL    HW222192   3.982   4.044  27.358
 3522SOL     OW22193   4.242   0.630   2.384
 3522SOL    HW122194   4.328   0.670   2.372
 3522SOL    HW222195   4.253   0.569   2.457
 3523SOL     OW22196   1.937   4.054   4.266
 3523SOL    HW122197   1.889   4.131   4.235
 3523SOL    HW222198   1.932   4.059   4.361
 3524SOL     OW22199   1.415   3.124  10.870
 3524SOL    HW122200   1.399   3.049  10.812
 3524SOL    HW222201   1.337   3.128  10.925
 3525SOL     OW22202   4.649   2.465   4.848
 3525SOL    HW122203   4.590   2.396   4.880
 3525SOL    HW222204   4.601   2.546   4.861
 3526SOL     OW22205   0.597   3.014   2.442
 3526SOL    HW122206   0.594   3.078   2.513
 3526SOL    HW222207   0.597   2.929   2.486
 3527SOL     OW22208   2.502   4.703  10.039
 3527SOL    HW122209   2.575   4.747   9.994
 3527SOL    HW222210   2.479   4.630   9.982
 3528SOL     OW22211   3.499   3.861  25.161
 3528SOL    HW122212   3.481   3.822  25.076
 3528SOL    HW222213   3.590   3.888  25.157
 3529SOL     OW22214   3.349   4.411   6.462
 3529SOL    HW122215   3.340   4.341   6.398
 3529SOL    HW222216   3.384   4.485   6.413
 3530SOL     OW22217   3.102   2.752   5.510
 3530SOL    HW122218   3.080   2.702   5.432
 3530SOL    HW222219   3.040   2.825   5.510
 3531SOL     OW22220   3.552   4.538   2.397
 3531SOL    HW122221   3.543   4.450   2.432
 3531SOL    HW222222   3.589   4.526   2.310
 3532SOL     OW22223   2.614   1.316   7.832
 3532SOL    HW122224   2.680   1.363   7.884
 3532SOL    HW222225   2.634   1.224   7.845
 3533SOL     OW22226   3.159   0.615   7.997
 3533SOL    HW122227   3.089   0.561   7.962
 3533SOL    HW222228   3.229   0.554   8.017
 3534SOL     OW22229   1.692   3.131  10.861
 3534SOL    HW122230   1.679   3.040  10.835
 3534SOL    HW222231   1.751   3.126  10.936
 3535SOL     OW22232   1.390   3.407  10.754
 3535SOL    HW122233   1.356   3.424  10.666
 3535SOL    HW222234   1.352   3.476  10.808
 3536SOL     OW22235   3.380   2.802   7.330
 3536SOL    HW122236   3.364   2.766   7.418
 3536SOL    HW222237   3.293   2.818   7.295
 3537SOL     OW22238   2.475   3.778  24.630
 3537SOL    HW122239   2.416   3.853  24.641
 3537SOL    HW222240   2.433   3.724  24.563
 3538SOL     OW22241   2.512   1.444   6.918
 3538SOL    HW122242   2.597   1.489   6.912
 3538SOL    HW222243   2.448   1.512   6.895
 3539SOL     OW22244   0.408   1.323   5.488
 3539SOL    HW122245   0.332   1.318   5.430
 3539SOL    HW222246   0.471   1.377   5.440
 3540SOL     OW22247   4.384   3.517  24.931
 3540SOL    HW122248   4.425   3.516  24.845
 3540SOL    HW222249   4.379   3.424  24.956
 3541SOL     OW22250   0.283   3.526   4.711
 3541SOL    HW122251   0.304   3.508   4.620
 3541SOL    HW222252   0.351   3.587   4.740
 3542SOL     OW22253   0.540   1.209  10.005
 3542SOL    HW122254   0.504   1.286  10.050
 3542SOL    HW222255   0.635   1.224  10.003
 3543SOL     OW22256   0.486   0.835   2.001
 3543SOL    HW122257   0.490   0.791   2.085
 3543SOL    HW222258   0.396   0.868   1.995
 3544SOL     OW22259   4.539   4.694   0.286
 3544SOL    HW122260   4.496   4.743   0.357
 3544SOL    HW222261   4.473   4.692   0.216
 3545SOL     OW22262   1.524   3.167  10.615
 3545SOL    HW122263   1.446   3.140  10.567
 3545SOL    HW222264   1.596   3.120  10.574
 3546SOL     OW22265   1.395   4.392  20.965
 3546SOL    HW122266   1.340   4.449  20.913
 3546SOL    HW222267   1.343   4.373  21.043
 3547SOL     OW22268   2.437   0.983   4.809
 3547SOL    HW122269   2.505   1.020   4.865
 3547SOL    HW222270   2.361   1.041   4.822
 3548SOL     OW22271   0.389   0.993   6.294
 3548SOL    HW122272   0.297   1.010   6.273
 3548SOL    HW222273   0.424   0.950   6.215
 3549SOL     OW22274   3.552   0.043   7.800
 3549SOL    HW122275   3.456   0.048   7.799
 3549SOL    HW222276   3.580   0.132   7.776
 3550SOL     OW22277   0.426   3.156  25.026
 3550SOL    HW122278   0.399   3.240  24.990
 3550SOL    HW222279   0.468   3.178  25.109
 3551SOL     OW22280   0.228   3.875  22.517
 3551SOL    HW122281   0.163   3.837  22.458
 3551SOL    HW222282   0.179   3.940  22.568
 3552SOL     OW22283   4.733   0.992  22.940
 3552SOL    HW122284   4.742   0.928  22.869
 3552SOL    HW222285   4.666   0.955  22.998
 3553SOL     OW22286   3.103   2.116  17.964
 3553SOL    HW122287   3.099   2.133  17.870
 3553SOL    HW222288   3.021   2.152  17.999
 3554SOL     OW22289   3.515   4.600   5.513
 3554SOL    HW122290   3.427   4.579   5.546
 3554SOL    HW222291   3.537   4.682   5.555
 3555SOL     OW22292   2.269   4.300  26.052
 3555SOL    HW122293   2.212   4.240  26.003
 3555SOL    HW222294   2.230   4.387  26.037
 3556SOL     OW22295   3.360   0.404   6.381
 3556SOL    HW122296   3.417   0.480   6.373
 3556SOL    HW222297   3.275   0.439   6.408
 3557SOL     OW22298   0.642   0.658  27.406
 3557SOL    HW122299   0.700   0.677  27.480
 3557SOL    HW222300   0.674   0.713  27.335
 3558SOL     OW22301   1.334   2.019  19.868
 3558SOL    HW122302   1.353   2.011  19.961
 3558SOL    HW222303   1.400   2.081  19.835
 3559SOL     OW22304   2.837   0.280   0.906
 3559SOL    HW122305   2.904   0.346   0.889
 3559SOL    HW222306   2.868   0.203   0.859
 3560SOL     OW22307   3.968   2.307  19.296
 3560SOL    HW122308   3.993   2.399  19.295
 3560SOL    HW222309   4.049   2.260  19.312
 3561SOL     OW22310   1.178   1.590   1.248
 3561SOL    HW122311   1.128   1.568   1.169
 3561SOL    HW222312   1.188   1.685   1.245
 3562SOL     OW22313   1.528   1.197   5.030
 3562SOL    HW122314   1.603   1.139   5.042
 3562SOL    HW222315   1.531   1.223   4.938
 3563SOL     OW22316   3.744   3.778  26.393
 3563SOL    HW122317   3.702   3.854  26.351
 3563SOL    HW222318   3.819   3.759  26.337
 3564SOL     OW22319   3.630   2.084   1.814
 3564SOL    HW122320   3.637   2.058   1.723
 3564SOL    HW222321   3.707   2.139   1.830
 3565SOL     OW22322   0.470   4.191  19.668
 3565SOL    HW122323   0.452   4.136  19.591
 3565SOL    HW222324   0.403   4.165  19.731
 3566SOL     OW22325   2.869   0.096  11.203
 3566SOL    HW122326   2.930   0.157  11.247
 3566SOL    HW222327   2.792   0.095  11.259
 3567SOL     OW22328   1.676   3.399  10.717
 3567SOL    HW122329   1.769   3.412  10.739
 3567SOL    HW222330   1.666   3.438  10.630
 3568SOL     OW22331   3.489   3.017   0.869
 3568SOL    HW122332   3.474   3.108   0.846
 3568SOL    HW222333   3.537   3.020   0.951
 3569SOL     OW22334   0.945   4.711   8.772
 3569SOL    HW122335   0.996   4.761   8.708
 3569SOL    HW222336   0.860   4.754   8.775
 3570SOL     OW22337   0.573   2.326   8.551
 3570SOL    HW122338   0.540   2.343   8.640
 3570SOL    HW222339   0.644   2.264   8.563
 3571SOL     OW22340   3.455   2.329  26.878
 3571SOL    HW122341   3.534   2.382  26.879
 3571SOL    HW222342   3.486   2.239  26.892
 3572SOL     OW22343   2.605   1.281   6.348
 3572SOL    HW122344   2.614   1.235   6.265
 3572SOL    HW222345   2.513   1.307   6.352
 3573SOL     OW22346   4.534   0.804  26.776
 3573SOL    HW122347   4.521   0.730  26.716
 3573SOL    HW222348   4.599   0.859  26.733
 3574SOL     OW22349   4.446   2.081  26.606
 3574SOL    HW122350   4.435   2.117  26.518
 3574SOL    HW222351   4.384   2.130  26.660
 3575SOL     OW22352   0.459   0.442   7.373
 3575SOL    HW122353   0.473   0.492   7.292
 3575SOL    HW222354   0.416   0.504   7.432
 3576SOL     OW22355   2.132   3.974  25.671
 3576SOL    HW122356   2.043   4.003  25.694
 3576SOL    HW222357   2.124   3.879  25.659
 3577SOL     OW22358   1.910   4.696  21.750
 3577SOL    HW122359   1.898   4.730  21.838
 3577SOL    HW222360   1.894   4.602  21.758
 3578SOL     OW22361   4.438   0.478  24.015
 3578SOL    HW122362   4.402   0.390  24.024
 3578SOL    HW222363   4.372   0.525  23.963
 3579SOL     OW22364   3.833   1.139  21.520
 3579SOL    HW122365   3.765   1.076  21.546
 3579SOL    HW222366   3.784   1.218  21.497
 3580SOL     OW22367   2.641   3.222   7.611
 3580SOL    HW122368   2.723   3.175   7.617
 3580SOL    HW222369   2.589   3.191   7.686
 3581SOL     OW22370   3.651   3.201  19.608
 3581SOL    HW122371   3.730   3.249  19.583
 3581SOL    HW222372   3.642   3.132  19.541
 3582SOL     OW22373   4.017   0.746  24.523
 3582SOL    HW122374   3.983   0.744  24.434
 3582SOL    HW222375   3.941   0.730  24.578
 3583SOL     OW22376   0.793   1.535  27.915
 3583SOL    HW122377   0.845   1.567  27.989
 3583SOL    HW222378   0.767   1.446  27.940
 3584SOL     OW22379   4.463   1.065  16.003
 3584SOL    HW122380   4.521   1.104  15.937
 3584SOL    HW222381   4.404   1.136  16.027
 3585SOL     OW22382   1.584   0.683   5.953
 3585SOL    HW122383   1.604   0.619   5.885
 3585SOL    HW222384   1.648   0.753   5.940
 3586SOL     OW22385   2.499   1.108  18.574
 3586SOL    HW122386   2.425   1.169  18.572
 3586SOL    HW222387   2.482   1.053  18.650
 3587SOL     OW22388   2.043   2.262  21.272
 3587SOL    HW122389   2.088   2.236  21.352
 3587SOL    HW222390   2.056   2.189  21.212
 3588SOL     OW22391   3.146   0.901   7.488
 3588SOL    HW122392   3.192   0.982   7.467
 3588SOL    HW222393   3.079   0.927   7.552
 3589SOL     OW22394   2.635   1.381   8.959
 3589SOL    HW122395   2.569   1.451   8.953
 3589SOL    HW222396   2.686   1.390   8.879
 3590SOL     OW22397   0.743   0.123  24.053
 3590SOL    HW122398   0.695   0.205  24.059
 3590SOL    HW222399   0.794   0.119  24.134
 3591SOL     OW22400   0.094   2.658   8.675
 3591SOL    HW122401   0.022   2.692   8.728
 3591SOL    HW222402   0.057   2.648   8.587
 3592SOL     OW22403   3.726   2.864  20.855
 3592SOL    HW122404   3.650   2.891  20.906
 3592SOL    HW222405   3.763   2.946  20.822
 3593SOL     OW22406   4.176   0.199   1.237
 3593SOL    HW122407   4.256   0.246   1.257
 3593SOL    HW222408   4.107   0.247   1.283
 3594SOL     OW22409   4.414   3.570   9.797
 3594SOL    HW122410   4.500   3.602   9.767
 3594SOL    HW222411   4.353   3.639   9.773
 3595SOL     OW22412   4.657   1.869   0.259
 3595SOL    HW122413   4.585   1.822   0.217
 3595SOL    HW222414   4.656   1.839   0.350
 3596SOL     OW22415   3.288   3.145  27.325
 3596SOL    HW122416   3.216   3.109  27.274
 3596SOL    HW222417   3.326   3.213  27.269
 3597SOL     OW22418   3.098   0.128  23.386
 3597SOL    HW122419   3.157   0.078  23.443
 3597SOL    HW222420   3.010   0.110  23.420
 3598SOL     OW22421   3.018   3.517   1.032
 3598SOL    HW122422   2.997   3.424   1.039
 3598SOL    HW222423   2.965   3.548   0.958
 3599SOL     OW22424   1.145   4.664  11.283
 3599SOL    HW122425   1.109   4.690  11.368
 3599SOL    HW222426   1.239   4.683  11.290
 3600SOL     OW22427   1.034   3.899  10.086
 3600SOL    HW122428   1.050   3.992  10.099
 3600SOL    HW222429   1.042   3.885   9.992
 3601SOL     OW22430   1.842   0.333  24.353
 3601SOL    HW122431   1.887   0.302  24.432
 3601SOL    HW222432   1.857   0.427  24.353
 3602SOL     OW22433   2.384   4.352   8.880
 3602SOL    HW122434   2.386   4.310   8.966
 3602SOL    HW222435   2.451   4.307   8.829
 3603SOL     OW22436   1.591   1.308  19.824
 3603SOL    HW122437   1.545   1.239  19.873
 3603SOL    HW222438   1.595   1.382  19.885
 3604SOL     OW22439   2.269   0.810  20.977
 3604SOL    HW122440   2.257   0.844  21.065
 3604SOL    HW222441   2.362   0.790  20.971
 3605SOL     OW22442   3.882   2.183  28.515
 3605SOL    HW122443   3.844   2.236  28.445
 3605SOL    HW222444   3.968   2.222   0.008
 3606SOL     OW22445   0.618   4.383   2.590
 3606SOL    HW122446   0.575   4.400   2.506
 3606SOL    HW222447   0.613   4.466   2.637
 3607SOL     OW22448   3.309   1.622  26.039
 3607SOL    HW122449   3.278   1.549  26.093
 3607SOL    HW222450   3.311   1.697  26.099
 3608SOL     OW22451   0.256   4.420   7.681
 3608SOL    HW122452   0.240   4.514   7.676
 3608SOL    HW222453   0.351   4.411   7.669
 3609SOL     OW22454   1.845   3.254   7.641
 3609SOL    HW122455   1.920   3.249   7.699
 3609SOL    HW222456   1.878   3.228   7.556
 3610SOL     OW22457   1.910   4.568   6.800
 3610SOL    HW122458   1.849   4.501   6.770
 3610SOL    HW222459   1.968   4.584   6.725
 3611SOL     OW22460   3.553   1.995  20.062
 3611SOL    HW122461   3.571   2.066  20.123
 3611SOL    HW222462   3.633   1.987  20.009
 3612SOL     OW22463   0.680   1.647  23.749
 3612SOL    HW122464   0.635   1.703  23.686
 3612SOL    HW222465   0.768   1.637  23.713
 3613SOL     OW22466   3.458   1.747  20.095
 3613SOL    HW122467   3.481   1.838  20.076
 3613SOL    HW222468   3.501   1.728  20.179
 3614SOL     OW22469   2.608   3.715   6.806
 3614SOL    HW122470   2.573   3.627   6.789
 3614SOL    HW222471   2.618   3.718   6.902
 3615SOL     OW22472   2.020   2.187  11.389
 3615SOL    HW122473   2.082   2.131  11.342
 3615SOL    HW222474   1.953   2.127  11.422
 3616SOL     OW22475   2.234   1.711   5.557
 3616SOL    HW122476   2.175   1.639   5.576
 3616SOL    HW222477   2.176   1.785   5.537
 3617SOL     OW22478   2.693   1.456  18.082
 3617SOL    HW122479   2.769   1.411  18.046
 3617SOL    HW222480   2.646   1.488  18.005
 3618SOL     OW22481   0.176   3.662  27.399
 3618SOL    HW122482   0.263   3.679  27.364
 3618SOL    HW222483   0.155   3.740  27.450
 3619SOL     OW22484   4.509   2.879   6.976
 3619SOL    HW122485   4.509   2.895   7.070
 3619SOL    HW222486   4.597   2.848   6.957
 3620SOL     OW22487   2.248   2.076   8.379
 3620SOL    HW122488   2.309   2.125   8.435
 3620SOL    HW222489   2.161   2.101   8.411
 3621SOL     OW22490   2.397   3.801  23.571
 3621SOL    HW122491   2.461   3.782  23.502
 3621SOL    HW222492   2.414   3.735  23.638
 3622SOL     OW22493   1.976   4.482  26.536
 3622SOL    HW122494   2.049   4.521  26.585
 3622SOL    HW222495   1.912   4.552  26.528
 3623SOL     OW22496   1.386   2.025  21.171
 3623SOL    HW122497   1.298   2.058  21.186
 3623SOL    HW222498   1.387   1.940  21.215
 3624SOL     OW22499   3.058   1.229   3.112
 3624SOL    HW122500   3.120   1.178   3.164
 3624SOL    HW222501   3.071   1.198   3.022
 3625SOL     OW22502   0.088   0.277   5.187
 3625SOL    HW122503   0.019   0.250   5.248
 3625SOL    HW222504   0.050   0.353   5.142
 3626SOL     OW22505   2.708   0.311  23.589
 3626SOL    HW122506   2.723   0.254  23.665
 3626SOL    HW222507   2.613   0.323  23.587
 3627SOL     OW22508   0.895   2.069  18.105
 3627SOL    HW122509   0.882   2.107  18.018
 3627SOL    HW222510   0.846   1.986  18.102
 3628SOL     OW22511   0.988   3.989  25.234
 3628SOL    HW122512   0.895   3.971  25.247
 3628SOL    HW222513   1.006   4.063  25.292
 3629SOL     OW22514   3.729   0.528  27.963
 3629SOL    HW122515   3.704   0.604  28.016
 3629SOL    HW222516   3.822   0.518  27.978
 3630SOL     OW22517   3.116   2.857   6.744
 3630SOL    HW122518   3.180   2.869   6.674
 3630SOL    HW222519   3.158   2.893   6.822
 3631SOL     OW22520   4.585   3.954  20.409
 3631SOL    HW122521   4.675   3.925  20.395
 3631SOL    HW222522   4.573   3.952  20.504
 3632SOL     OW22523   2.556   0.214  24.292
 3632SOL    HW122524   2.509   0.223  24.375
 3632SOL    HW222525   2.624   0.149  24.309
 3633SOL     OW22526   1.214   0.529   5.486
 3633SOL    HW122527   1.286   0.587   5.512
 3633SOL    HW222528   1.245   0.490   5.404
 3634SOL     OW22529   4.201   0.815   4.093
 3634SOL    HW122530   4.199   0.882   4.161
 3634SOL    HW222531   4.130   0.838   4.034
 3635SOL     OW22532   2.205   3.990  20.623
 3635SOL    HW122533   2.204   3.902  20.660
 3635SOL    HW222534   2.128   3.994  20.567
 3636SOL     OW22535   3.224   1.533   6.519
 3636SOL    HW122536   3.314   1.520   6.489
 3636SOL    HW222537   3.208   1.627   6.508
 3637SOL     OW22538   0.726   0.932   4.885
 3637SOL    HW122539   0.634   0.913   4.870
 3637SOL    HW222540   0.730   0.969   4.973
 3638SOL     OW22541   1.953   2.865   2.846
 3638SOL    HW122542   1.959   2.770   2.839
 3638SOL    HW222543   1.879   2.880   2.906
 3639SOL     OW22544   4.038   4.399   0.131
 3639SOL    HW122545   3.960   4.427   0.178
 3639SOL    HW222546   4.005   4.368   0.046
 3640SOL     OW22547   0.524   1.743   3.195
 3640SOL    HW122548   0.530   1.806   3.267
 3640SOL    HW222549   0.461   1.782   3.135
 3641SOL     OW22550   1.635   2.378   4.486
 3641SOL    HW122551   1.592   2.364   4.402
 3641SOL    HW222552   1.696   2.450   4.469
 3642SOL     OW22553   1.789   4.223  25.328
 3642SOL    HW122554   1.878   4.244  25.299
 3642SOL    HW222555   1.743   4.199  25.247
 3643SOL     OW22556   2.266   3.841  21.750
 3643SOL    HW122557   2.279   3.934  21.766
 3643SOL    HW222558   2.181   3.834  21.708
 3644SOL     OW22559   0.442   1.030  25.607
 3644SOL    HW122560   0.363   0.979  25.594
 3644SOL    HW222561   0.447   1.088  25.531
 3645SOL     OW22562   3.225   3.140  28.457
 3645SOL    HW122563   3.299   3.091  28.422
 3645SOL    HW222564   3.166   3.152  28.382
 3646SOL     OW22565   2.447   2.114  28.506
 3646SOL    HW122566   2.414   2.200   0.008
 3646SOL    HW222567   2.375   2.054   0.005
 3647SOL     OW22568   3.750   4.726   9.097
 3647SOL    HW122569   3.810   4.651   9.094
 3647SOL    HW222570   3.671   4.695   9.053
 3648SOL     OW22571   2.299   3.994   3.558
 3648SOL    HW122572   2.362   4.007   3.488
 3648SOL    HW222573   2.272   3.903   3.550
 3649SOL     OW22574   2.746   0.026   8.649
 3649SOL    HW122575   2.694   0.091   8.697
 3649SOL    HW222576   2.833   0.065   8.643
 3650SOL     OW22577   4.065   1.424   1.434
 3650SOL    HW122578   3.976   1.435   1.468
 3650SOL    HW222579   4.060   1.348   1.377
 3651SOL     OW22580   3.674   0.191   5.999
 3651SOL    HW122581   3.597   0.144   5.967
 3651SOL    HW222582   3.746   0.130   5.987
 3652SOL     OW22583   2.256   4.197   0.938
 3652SOL    HW122584   2.164   4.220   0.950
 3652SOL    HW222585   2.265   4.109   0.973
 3653SOL     OW22586   1.967   2.572  11.880
 3653SOL    HW122587   2.037   2.508  11.870
 3653SOL    HW222588   1.959   2.585  11.975
 3654SOL     OW22589   3.723   4.071   1.125
 3654SOL    HW122590   3.721   4.165   1.108
 3654SOL    HW222591   3.727   4.063   1.220
 3655SOL     OW22592   3.723   0.250   2.081
 3655SOL    HW122593   3.797   0.284   2.031
 3655SOL    HW222594   3.746   0.158   2.097
 3656SOL     OW22595   1.186   0.115   4.128
 3656SOL    HW122596   1.194   0.041   4.188
 3656SOL    HW222597   1.269   0.116   4.079
 3657SOL     OW22598   3.940   3.819  21.486
 3657SOL    HW122599   3.895   3.902  21.499
 3657SOL    HW222600   3.916   3.766  21.562
 3658SOL     OW22601   3.779   4.060   8.748
 3658SOL    HW122602   3.868   4.041   8.775
 3658SOL    HW222603   3.784   4.146   8.707
 3659SOL     OW22604   0.363   3.847   1.821
 3659SOL    HW122605   0.357   3.801   1.905
 3659SOL    HW222606   0.429   3.799   1.772
 3660SOL     OW22607   0.550   1.704  23.344
 3660SOL    HW122608   0.587   1.621  23.375
 3660SOL    HW222609   0.589   1.717  23.257
 3661SOL     OW22610   3.705   2.181  20.519
 3661SOL    HW122611   3.711   2.195  20.613
 3661SOL    HW222612   3.707   2.269  20.481
 3662SOL     OW22613   1.935   0.378  22.764
 3662SOL    HW122614   1.901   0.311  22.705
 3662SOL    HW222615   1.922   0.460  22.718
 3663SOL     OW22616   1.654   0.468  26.762
 3663SOL    HW122617   1.588   0.526  26.724
 3663SOL    HW222618   1.670   0.504  26.849
 3664SOL     OW22619   0.650   3.336  18.903
 3664SOL    HW122620   0.633   3.291  18.986
 3664SOL    HW222621   0.662   3.266  18.839
 3665SOL     OW22622   4.211   3.062   3.036
 3665SOL    HW122623   4.143   3.127   3.057
 3665SOL    HW222624   4.217   3.008   3.114
 3666SOL     OW22625   1.016   3.648  10.181
 3666SOL    HW122626   1.036   3.739  10.158
 3666SOL    HW222627   1.009   3.603  10.096
 3667SOL     OW22628   4.415   3.419  24.491
 3667SOL    HW122629   4.340   3.404  24.548
 3667SOL    HW222630   4.416   3.513  24.474
 3668SOL     OW22631   0.988   3.855  22.277
 3668SOL    HW122632   0.983   3.951  22.286
 3668SOL    HW222633   1.032   3.842  22.193
 3669SOL     OW22634   4.113   3.756   4.567
 3669SOL    HW122635   4.153   3.778   4.483
 3669SOL    HW222636   4.176   3.787   4.632
 3670SOL     OW22637   2.055   1.716  22.519
 3670SOL    HW122638   2.066   1.755  22.432
 3670SOL    HW222639   1.979   1.659  22.511
 3671SOL     OW22640   0.321   3.961   2.874
 3671SOL    HW122641   0.374   4.039   2.894
 3671SOL    HW222642   0.307   3.965   2.780
 3672SOL     OW22643   2.019   0.437   4.935
 3672SOL    HW122644   1.964   0.511   4.960
 3672SOL    HW222645   2.064   0.465   4.856
 3673SOL     OW22646   0.821   1.092  22.561
 3673SOL    HW122647   0.881   1.029  22.600
 3673SOL    HW222648   0.735   1.054  22.573
 3674SOL     OW22649   0.884   4.661  20.346
 3674SOL    HW122650   0.951   4.702  20.290
 3674SOL    HW222651   0.896   4.702  20.431
 3675SOL     OW22652   3.599   2.756   0.599
 3675SOL    HW122653   3.616   2.662   0.601
 3675SOL    HW222654   3.541   2.771   0.675
 3676SOL     OW22655   4.229   3.827  10.836
 3676SOL    HW122656   4.236   3.828  10.931
 3676SOL    HW222657   4.146   3.783  10.818
 3677SOL     OW22658   0.939   3.147  24.478
 3677SOL    HW122659   0.969   3.234  24.503
 3677SOL    HW222660   0.855   3.161  24.435
 3678SOL     OW22661   4.427   4.358  26.295
 3678SOL    HW122662   4.385   4.273  26.308
 3678SOL    HW222663   4.356   4.414  26.261
 3679SOL     OW22664   2.467   0.299   8.792
 3679SOL    HW122665   2.521   0.351   8.732
 3679SOL    HW222666   2.386   0.284   8.744
 3680SOL     OW22667   1.324   1.220  27.323
 3680SOL    HW122668   1.270   1.179  27.255
 3680SOL    HW222669   1.409   1.175  27.317
 3681SOL     OW22670   2.516   3.016   8.017
 3681SOL    HW122671   2.495   2.926   7.990
 3681SOL    HW222672   2.503   3.016   8.111
 3682SOL     OW22673   1.727   3.734  10.899
 3682SOL    HW122674   1.671   3.742  10.822
 3682SOL    HW222675   1.814   3.763  10.870
 3683SOL     OW22676   1.301   1.739   6.545
 3683SOL    HW122677   1.385   1.782   6.529
 3683SOL    HW222678   1.325   1.648   6.565
 3684SOL     OW22679   1.783   2.699   0.783
 3684SOL    HW122680   1.806   2.671   0.871
 3684SOL    HW222681   1.749   2.788   0.794
 3685SOL     OW22682   0.505   1.087   9.123
 3685SOL    HW122683   0.598   1.068   9.115
 3685SOL    HW222684   0.464   1.042   9.049
 3686SOL     OW22685   1.933   2.530  20.784
 3686SOL    HW122686   1.969   2.460  20.838
 3686SOL    HW222687   1.850   2.553  20.826
 3687SOL     OW22688   0.255   2.363   9.624
 3687SOL    HW122689   0.218   2.305   9.691
 3687SOL    HW222690   0.343   2.385   9.657
 3688SOL     OW22691   1.029   2.002   8.464
 3688SOL    HW122692   0.956   1.945   8.441
 3688SOL    HW222693   1.019   2.017   8.558
 3689SOL     OW22694   3.317   3.002  26.514
 3689SOL    HW122695   3.322   3.055  26.435
 3689SOL    HW222696   3.243   2.943  26.499
 3690SOL     OW22697   3.560   2.534  24.601
 3690SOL    HW122698   3.653   2.517  24.586
 3690SOL    HW222699   3.536   2.477  24.674
 3691SOL     OW22700   4.608   0.109  26.422
 3691SOL    HW122701   4.561   0.152  26.350
 3691SOL    HW222702   4.554   0.127  26.499
 3692SOL     OW22703   1.660   2.300   6.706
 3692SOL    HW122704   1.705   2.264   6.783
 3692SOL    HW222705   1.701   2.256   6.632
 3693SOL     OW22706   4.668   4.055   7.580
 3693SOL    HW122707   4.688   4.148   7.583
 3693SOL    HW222708   4.748   4.012   7.609
 3694SOL     OW22709   2.717   0.313  21.991
 3694SOL    HW122710   2.796   0.292  22.041
 3694SOL    HW222711   2.654   0.246  22.015
 3695SOL     OW22712   3.028   0.648   1.454
 3695SOL    HW122713   2.942   0.686   1.433
 3695SOL    HW222714   3.026   0.561   1.414
 3696SOL     OW22715   1.472   3.945   3.323
 3696SOL    HW122716   1.424   4.019   3.287
 3696SOL    HW222717   1.482   3.966   3.416
 3697SOL     OW22718   2.283   4.011  24.878
 3697SOL    HW122719   2.346   4.056  24.933
 3697SOL    HW222720   2.254   4.077  24.815
 3698SOL     OW22721   2.063   1.223   3.442
 3698SOL    HW122722   2.084   1.312   3.412
 3698SOL    HW222723   2.003   1.190   3.376
 3699SOL     OW22724   2.795   1.374  25.013
 3699SOL    HW122725   2.838   1.408  24.934
 3699SOL    HW222726   2.835   1.288  25.027
 3700SOL     OW22727   3.084   3.840   6.816
 3700SOL    HW122728   3.147   3.890   6.764
 3700SOL    HW222729   3.002   3.844   6.766
 3701SOL     OW22730   2.776   3.535   9.996
 3701SOL    HW122731   2.798   3.476   9.924
 3701SOL    HW222732   2.763   3.621   9.955
 3702SOL     OW22733   2.829   0.097  21.109
 3702SOL    HW122734   2.788   0.014  21.132
 3702SOL    HW222735   2.759   0.162  21.115
 3703SOL     OW22736   4.025   3.345   5.619
 3703SOL    HW122737   4.109   3.379   5.587
 3703SOL    HW222738   3.995   3.411   5.682
 3704SOL     OW22739   0.901   2.241  20.729
 3704SOL    HW122740   0.855   2.172  20.681
 3704SOL    HW222741   0.947   2.195  20.799
 3705SOL     OW22742   2.292   3.148   9.065
 3705SOL    HW122743   2.247   3.230   9.083
 3705SOL    HW222744   2.365   3.173   9.007
 3706SOL     OW22745   0.467   3.868  27.007
 3706SOL    HW122746   0.427   3.828  27.084
 3706SOL    HW222747   0.484   3.958  27.033
 3707SOL     OW22748   3.584   4.689  22.993
 3707SOL    HW122749   3.679   4.683  22.991
 3707SOL    HW222750   3.561   4.749  22.923
 3708SOL     OW22751   1.285   4.400   7.144
 3708SOL    HW122752   1.202   4.447   7.153
 3708SOL    HW222753   1.352   4.468   7.151
 3709SOL     OW22754   0.359   3.854  11.209
 3709SOL    HW122755   0.291   3.795  11.176
 3709SOL    HW222756   0.353   3.846  11.305
 3710SOL     OW22757   1.524   4.477  19.860
 3710SOL    HW122758   1.523   4.571  19.846
 3710SOL    HW222759   1.436   4.456  19.892
 3711SOL     OW22760   4.603   1.224  21.738
 3711SOL    HW122761   4.650   1.301  21.769
 3711SOL    HW222762   4.576   1.179  21.819
 3712SOL     OW22763   1.649   2.450   3.286
 3712SOL    HW122764   1.579   2.394   3.252
 3712SOL    HW222765   1.685   2.401   3.360
 3713SOL     OW22766   1.717   2.498  19.797
 3713SOL    HW122767   1.754   2.414  19.769
 3713SOL    HW222768   1.661   2.476  19.871
 3714SOL     OW22769   3.417   1.320  10.048
 3714SOL    HW122770   3.500   1.298  10.090
 3714SOL    HW222771   3.350   1.299  10.113
 3715SOL     OW22772   2.233   2.064  20.524
 3715SOL    HW122773   2.207   2.135  20.582
 3715SOL    HW222774   2.248   2.106  20.440
 3716SOL     OW22775   1.477   4.242  25.589
 3716SOL    HW122776   1.501   4.160  25.633
 3716SOL    HW222777   1.440   4.215  25.506
 3717SOL     OW22778   1.899   1.524  25.788
 3717SOL    HW122779   1.909   1.587  25.860
 3717SOL    HW222780   1.989   1.506  25.759
 3718SOL     OW22781   2.042   4.072  10.220
 3718SOL    HW122782   2.086   3.990  10.197
 3718SOL    HW222783   2.100   4.141  10.186
 3719SOL     OW22784   0.617   3.685  22.318
 3719SOL    HW122785   0.684   3.691  22.249
 3719SOL    HW222786   0.667   3.695  22.399
 3720SOL     OW22787   1.810   3.165  21.806
 3720SOL    HW122788   1.858   3.099  21.857
 3720SOL    HW222789   1.718   3.143  21.820
 3721SOL     OW22790   2.331   0.261   1.121
 3721SOL    HW122791   2.391   0.189   1.103
 3721SOL    HW222792   2.297   0.286   1.036
 3722SOL     OW22793   4.773   1.166   4.485
 3722SOL    HW122794   0.075   1.199   4.451
 3722SOL    HW222795   4.725   1.137   4.408
 3723SOL     OW22796   1.188   2.888   3.705
 3723SOL    HW122797   1.132   2.962   3.726
 3723SOL    HW222798   1.272   2.908   3.748
 3724SOL     OW22799   0.218   1.788  27.654
 3724SOL    HW122800   0.128   1.810  27.676
 3724SOL    HW222801   0.240   1.844  27.580
 3725SOL     OW22802   0.822   2.834  25.496
 3725SOL    HW122803   0.743   2.879  25.466
 3725SOL    HW222804   0.893   2.872  25.444
 3726SOL     OW22805   2.252   1.807   6.209
 3726SOL    HW122806   2.226   1.715   6.209
 3726SOL    HW222807   2.275   1.826   6.300
 3727SOL     OW22808   4.256   2.895  27.049
 3727SOL    HW122809   4.226   2.943  27.126
 3727SOL    HW222810   4.207   2.813  27.050
 3728SOL     OW22811   3.464   3.150   1.825
 3728SOL    HW122812   3.520   3.092   1.876
 3728SOL    HW222813   3.437   3.218   1.887
 3729SOL     OW22814   0.374   2.245  24.704
 3729SOL    HW122815   0.370   2.150  24.690
 3729SOL    HW222816   0.306   2.262  24.769
 3730SOL     OW22817   3.731   3.054   5.392
 3730SOL    HW122818   3.656   3.110   5.414
 3730SOL    HW222819   3.797   3.077   5.458
 3731SOL     OW22820   0.735   3.614  22.574
 3731SOL    HW122821   0.815   3.589  22.529
 3731SOL    HW222822   0.698   3.532  22.606
 3732SOL     OW22823   2.054   1.240  18.365
 3732SOL    HW122824   1.972   1.193  18.371
 3732SOL    HW222825   2.032   1.321  18.319
 3733SOL     OW22826   4.478   0.534  23.447
 3733SOL    HW122827   4.493   0.443  23.471
 3733SOL    HW222828   4.425   0.530  23.368
 3734SOL     OW22829   0.719   1.449   1.114
 3734SOL    HW122830   0.737   1.464   1.207
 3734SOL    HW222831   0.683   1.532   1.083
 3735SOL     OW22832   4.331   0.935  16.865
 3735SOL    HW122833   4.303   0.944  16.774
 3735SOL    HW222834   4.406   0.875  16.862
 3736SOL     OW22835   4.672   3.360  24.353
 3736SOL    HW122836   4.734   3.289  24.371
 3736SOL    HW222837   4.611   3.358  24.426
 3737SOL     OW22838   0.722   1.229  18.482
 3737SOL    HW122839   0.661   1.201  18.551
 3737SOL    HW222840   0.729   1.153  18.424
 3738SOL     OW22841   1.502   3.040  27.741
 3738SOL    HW122842   1.488   3.100  27.667
 3738SOL    HW222843   1.566   2.976  27.708
 3739SOL     OW22844   1.793   0.120  19.243
 3739SOL    HW122845   1.822   0.055  19.307
 3739SOL    HW222846   1.861   0.119  19.176
 3740SOL     OW22847   3.025   2.496  28.461
 3740SOL    HW122848   3.050   2.576  28.508
 3740SOL    HW222849   3.095   2.483  28.397
 3741SOL     OW22850   4.495   3.416   0.253
 3741SOL    HW122851   4.523   3.483   0.191
 3741SOL    HW222852   4.426   3.368   0.208
 3742SOL     OW22853   1.380   2.404  17.697
 3742SOL    HW122854   1.371   2.333  17.634
 3742SOL    HW222855   1.435   2.369  17.767
 3743SOL     OW22856   3.668   4.068  20.769
 3743SOL    HW122857   3.643   4.037  20.682
 3743SOL    HW222858   3.702   3.991  20.814
 3744SOL     OW22859   0.442   4.229  23.024
 3744SOL    HW122860   0.456   4.313  23.067
 3744SOL    HW222861   0.407   4.173  23.093
 3745SOL     OW22862   3.948   0.338  27.398
 3745SOL    HW122863   3.960   0.243  27.405
 3745SOL    HW222864   3.890   0.349  27.323
 3746SOL     OW22865   2.926   3.520   3.809
 3746SOL    HW122866   2.927   3.529   3.905
 3746SOL    HW222867   3.009   3.477   3.789
 3747SOL     OW22868   4.407   4.761  25.484
 3747SOL    HW122869   4.502   4.773  25.473
 3747SOL    HW222870   4.399   4.682  25.536
 3748SOL     OW22871   3.591   4.714  10.450
 3748SOL    HW122872   3.646   4.731  10.527
 3748SOL    HW222873   3.502   4.716  10.484
 3749SOL     OW22874   4.167   3.449  21.788
 3749SOL    HW122875   4.255   3.440  21.750
 3749SOL    HW222876   4.170   3.532  21.835
 3750SOL     OW22877   1.745   2.886   3.007
 3750SOL    HW122878   1.693   2.817   2.966
 3750SOL    HW222879   1.681   2.940   3.053
 3751SOL     OW22880   3.117   3.708   8.241
 3751SOL    HW122881   3.156   3.747   8.163
 3751SOL    HW222882   3.178   3.729   8.311
 3752SOL     OW22883   0.614   4.063  21.018
 3752SOL    HW122884   0.619   4.119  21.096
 3752SOL    HW222885   0.608   4.124  20.945
 3753SOL     OW22886   0.785   2.483  26.967
 3753SOL    HW122887   0.866   2.432  26.963
 3753SOL    HW222888   0.722   2.432  26.916
 3754SOL     OW22889   1.513   1.054   7.506
 3754SOL    HW122890   1.511   1.136   7.556
 3754SOL    HW222891   1.493   0.986   7.570
 3755SOL     OW22892   1.545   0.138   0.394
 3755SOL    HW122893   1.592   0.073   0.447
 3755SOL    HW222894   1.592   0.138   0.310
 3756SOL     OW22895   4.425   3.267  23.946
 3756SOL    HW122896   4.331   3.285  23.939
 3756SOL    HW222897   4.432   3.200  24.014
 3757SOL     OW22898   2.130   3.992   0.084
 3757SOL    HW122899   2.114   3.984   0.178
 3757SOL    HW222900   2.196   3.924   0.065
 3758SOL     OW22901   2.646   1.309  23.590
 3758SOL    HW122902   2.584   1.309  23.518
 3758SOL    HW222903   2.685   1.396  23.588
 3759SOL     OW22904   4.747   0.470   5.583
 3759SOL    HW122905   4.718   0.446   5.495
 3759SOL    HW222906   0.045   0.417   5.597
 3760SOL     OW22907   3.206   2.452  26.841
 3760SOL    HW122908   3.196   2.434  26.747
 3760SOL    HW222909   3.276   2.392  26.868
 3761SOL     OW22910   1.128   3.192  10.915
 3761SOL    HW122911   1.121   3.286  10.895
 3761SOL    HW222912   1.062   3.151  10.859
 3762SOL     OW22913   0.468   0.059  24.750
 3762SOL    HW122914   0.406   0.060  24.823
 3762SOL    HW222915   0.480   0.152  24.729
 3763SOL     OW22916   3.309   0.003   3.837
 3763SOL    HW122917   3.322   4.692   3.859
 3763SOL    HW222918   3.308   0.048   3.922
 3764SOL     OW22919   3.738   0.056   1.271
 3764SOL    HW122920   3.703   4.747   1.271
 3764SOL    HW222921   3.789   0.061   1.190
 3765SOL     OW22922   0.652   1.408  27.259
 3765SOL    HW122923   0.573   1.382  27.212
 3765SOL    HW222924   0.650   1.504  27.259
 3766SOL     OW22925   3.536   3.579  24.016
 3766SOL    HW122926   3.593   3.652  23.992
 3766SOL    HW222927   3.515   3.594  24.108
 3767SOL     OW22928   1.026   1.481   0.610
 3767SOL    HW122929   1.105   1.428   0.603
 3767SOL    HW222930   0.997   1.470   0.701
 3768SOL     OW22931   1.085   3.707   8.047
 3768SOL    HW122932   1.014   3.718   8.110
 3768SOL    HW222933   1.048   3.653   7.978
 3769SOL     OW22934   0.866   4.763  21.791
 3769SOL    HW122935   0.805   0.044  21.831
 3769SOL    HW222936   0.842   4.679  21.829
 3770SOL     OW22937   3.622   1.990   6.066
 3770SOL    HW122938   3.671   1.925   6.015
 3770SOL    HW222939   3.567   2.034   6.001
 3771SOL     OW22940   4.597   0.867  11.136
 3771SOL    HW122941   4.594   0.963  11.131
 3771SOL    HW222942   4.689   0.847  11.152
 3772SOL     OW22943   0.666   0.194  21.832
 3772SOL    HW122944   0.630   0.179  21.745
 3772SOL    HW222945   0.726   0.267  21.822
 3773SOL     OW22946   1.631   3.727   6.319
 3773SOL    HW122947   1.585   3.798   6.275
 3773SOL    HW222948   1.704   3.705   6.261
 3774SOL     OW22949   0.196   1.004   0.102
 3774SOL    HW122950   0.220   1.097   0.100
 3774SOL    HW222951   0.175   0.983   0.011
 3775SOL     OW22952   3.895   4.717  11.638
 3775SOL    HW122953   3.807   4.752  11.631
 3775SOL    HW222954   3.950   0.011  11.660
 3776SOL     OW22955   4.706   4.217  21.219
 3776SOL    HW122956   4.673   4.264  21.296
 3776SOL    HW222957   4.631   4.211  21.160
 3777SOL     OW22958   1.971   0.434   1.057
 3777SOL    HW122959   2.005   0.362   1.108
 3777SOL    HW222960   2.014   0.512   1.093
 3778SOL     OW22961   4.452   2.090  25.239
 3778SOL    HW122962   4.431   2.035  25.164
 3778SOL    HW222963   4.411   2.174  25.220
 3779SOL     OW22964   3.553   3.207  11.366
 3779SOL    HW122965   3.489   3.271  11.335
 3779SOL    HW222966   3.568   3.229  11.457
 3780SOL     OW22967   1.307   4.740  25.946
 3780SOL    HW122968   1.226   4.693  25.924
 3780SOL    HW222969   1.343   4.765  25.861
 3781SOL     OW22970   4.228   1.206   5.664
 3781SOL    HW122971   4.321   1.207   5.645
 3781SOL    HW222972   4.194   1.131   5.616
 3782SOL     OW22973   4.562   3.509   3.580
 3782SOL    HW122974   4.496   3.578   3.577
 3782SOL    HW222975   4.516   3.433   3.615
 3783SOL     OW22976   3.844   1.490   5.384
 3783SOL    HW122977   3.802   1.576   5.375
 3783SOL    HW222978   3.794   1.447   5.453
 3784SOL     OW22979   1.914   2.827  21.714
 3784SOL    HW122980   1.933   2.894  21.649
 3784SOL    HW222981   1.819   2.833  21.727
 3785SOL     OW22982   2.717   1.978  23.435
 3785SOL    HW122983   2.630   2.008  23.462
 3785SOL    HW222984   2.770   1.981  23.515
 3786SOL     OW22985   1.369   2.890  24.796
 3786SOL    HW122986   1.338   2.914  24.709
 3786SOL    HW222987   1.305   2.928  24.856
 3787SOL     OW22988   2.462   0.244   4.315
 3787SOL    HW122989   2.386   0.301   4.325
 3787SOL    HW222990   2.425   0.157   4.302
 3788SOL     OW22991   0.361   0.172   1.951
 3788SOL    HW122992   0.393   0.103   2.008
 3788SOL    HW222993   0.290   0.132   1.901
 3789SOL     OW22994   4.467   0.507  28.467
 3789SOL    HW122995   4.412   0.505   0.023
 3789SOL    HW222996   4.427   0.574  28.412
 3790SOL     OW22997   3.592   1.351  20.173
 3790SOL    HW122998   3.612   1.260  20.193
 3790SOL    HW222999   3.594   1.395  20.259
 3791SOL     OW23000   3.480   2.330  24.346
 3791SOL    HW123001   3.443   2.418  24.355
 3791SOL    HW223002   3.524   2.314  24.430
 3792SOL     OW23003   1.466   0.291   4.380
 3792SOL    HW123004   1.519   0.348   4.436
 3792SOL    HW223005   1.527   0.223   4.351
 3793SOL     OW23006   3.902   2.148   0.292
 3793SOL    HW123007   3.857   2.064   0.296
 3793SOL    HW223008   3.882   2.182   0.205
 3794SOL     OW23009   2.210   3.016  27.369
 3794SOL    HW123010   2.118   2.993  27.371
 3794SOL    HW223011   2.244   2.972  27.291
 3795SOL     OW23012   3.715   0.951  23.798
 3795SOL    HW123013   3.631   0.947  23.753
 3795SOL    HW223014   3.693   0.964  23.890
 3796SOL     OW23015   0.200   2.605  26.404
 3796SOL    HW123016   0.204   2.528  26.461
 3796SOL    HW223017   0.205   2.569  26.315
 3797SOL     OW23018   0.352   4.652  25.213
 3797SOL    HW123019   0.401   4.596  25.152
 3797SOL    HW223020   0.260   4.633  25.194
 3798SOL     OW23021   0.931   1.841  11.006
 3798SOL    HW123022   0.984   1.871  11.080
 3798SOL    HW223023   0.874   1.915  10.987
 3799SOL     OW23024   4.692   4.230   4.246
 3799SOL    HW123025   4.674   4.177   4.169
 3799SOL    HW223026   4.608   4.234   4.292
 3800SOL     OW23027   2.756   0.620  21.141
 3800SOL    HW123028   2.811   0.693  21.113
 3800SOL    HW223029   2.786   0.600  21.230
 3801SOL     OW23030   2.656   3.655  24.237
 3801SOL    HW123031   2.667   3.735  24.186
 3801SOL    HW223032   2.734   3.603  24.216
 3802SOL     OW23033   1.518   3.109  25.129
 3802SOL    HW123034   1.468   3.038  25.171
 3802SOL    HW223035   1.604   3.070  25.112
 3803SOL     OW23036   1.691   2.331  26.289
 3803SOL    HW123037   1.646   2.249  26.308
 3803SOL    HW223038   1.782   2.315  26.312
 3804SOL     OW23039   3.865   1.008  25.993
 3804SOL    HW123040   3.812   1.017  26.072
 3804SOL    HW223041   3.928   1.080  25.998
 3805SOL     OW23042   2.307   1.792  20.530
 3805SOL    HW123043   2.326   1.782  20.437
 3805SOL    HW223044   2.299   1.886  20.543
 3806SOL     OW23045   4.732   2.528   7.214
 3806SOL    HW123046   4.733   2.441   7.176
 3806SOL    HW223047   4.656   2.529   7.272
 3807SOL     OW23048   4.436   4.701  26.142
 3807SOL    HW123049   4.384   4.683  26.221
 3807SOL    HW223050   4.489   4.777  26.165
 3808SOL     OW23051   2.348   3.351  25.848
 3808SOL    HW123052   2.386   3.271  25.885
 3808SOL    HW223053   2.287   3.382  25.915
 3809SOL     OW23054   1.426   4.176   7.200
 3809SOL    HW123055   1.494   4.204   7.261
 3809SOL    HW223056   1.377   4.256   7.181
 3810SOL     OW23057   1.962   0.282   9.704
 3810SOL    HW123058   2.033   0.297   9.767
 3810SOL    HW223059   1.886   0.325   9.743
 3811SOL     OW23060   3.591   0.393  25.646
 3811SOL    HW123061   3.596   0.457  25.717
 3811SOL    HW223062   3.618   0.311  25.686
 3812SOL     OW23063   2.048   2.350  22.566
 3812SOL    HW123064   2.000   2.284  22.615
 3812SOL    HW223065   2.128   2.365  22.616
 3813SOL     OW23066   2.611   3.488  26.094
 3813SOL    HW123067   2.543   3.483  26.161
 3813SOL    HW223068   2.588   3.564  26.041
 3814SOL     OW23069   4.471   0.030  22.536
 3814SOL    HW123070   4.538   4.754  22.575
 3814SOL    HW223071   4.500   0.118  22.558
 3815SOL     OW23072   4.201   4.554   7.825
 3815SOL    HW123073   4.198   4.625   7.889
 3815SOL    HW223074   4.142   4.488   7.860
 3816SOL     OW23075   3.296   4.375   9.901
 3816SOL    HW123076   3.208   4.352   9.931
 3816SOL    HW223077   3.342   4.403   9.980
 3817SOL     OW23078   0.534   3.584  27.016
 3817SOL    HW123079   0.548   3.577  27.110
 3817SOL    HW223080   0.580   3.663  26.990
 3818SOL     OW23081   3.256   3.075  19.372
 3818SOL    HW123082   3.329   3.070  19.311
 3818SOL    HW223083   3.207   3.152  19.344
 3819SOL     OW23084   1.339   3.597  10.956
 3819SOL    HW123085   1.344   3.544  11.036
 3819SOL    HW223086   1.396   3.672  10.974
 3820SOL     OW23087   3.594   0.332   7.720
 3820SOL    HW123088   3.656   0.384   7.669
 3820SOL    HW223089   3.555   0.393   7.782
 3821SOL     OW23090   0.666   3.357   5.076
 3821SOL    HW123091   0.676   3.351   4.981
 3821SOL    HW223092   0.641   3.448   5.092
 3822SOL     OW23093   3.514   2.379  21.454
 3822SOL    HW123094   3.606   2.361  21.470
 3822SOL    HW223095   3.468   2.339  21.527
 3823SOL     OW23096   2.536   0.067   9.259
 3823SOL    HW123097   2.528   0.110   9.174
 3823SOL    HW223098   2.446   0.041   9.281
 3824SOL     OW23099   1.454   1.399  26.004
 3824SOL    HW123100   1.487   1.341  25.935
 3824SOL    HW223101   1.359   1.383  26.004
 3825SOL     OW23102   2.367   2.798  21.466
 3825SOL    HW123103   2.324   2.775  21.549
 3825SOL    HW223104   2.382   2.715  21.422
 3826SOL     OW23105   3.158   2.495  21.544
 3826SOL    HW123106   3.219   2.517  21.614
 3826SOL    HW223107   3.182   2.553  21.471
 3827SOL     OW23108   3.626   1.494  22.421
 3827SOL    HW123109   3.532   1.485  22.404
 3827SOL    HW223110   3.654   1.566  22.364
 3828SOL     OW23111   3.557   2.825  24.579
 3828SOL    HW123112   3.626   2.843  24.516
 3828SOL    HW223113   3.562   2.731  24.595
 3829SOL     OW23114   0.030   1.665   2.856
 3829SOL    HW123115   0.083   1.586   2.841
 3829SOL    HW223116   0.093   1.730   2.886
 3830SOL     OW23117   0.897   0.971   2.662
 3830SOL    HW123118   0.882   0.893   2.609
 3830SOL    HW223119   0.872   1.045   2.606
 3831SOL     OW23120   3.613   0.846   9.348
 3831SOL    HW123121   3.527   0.831   9.387
 3831SOL    HW223122   3.615   0.940   9.329
 3832SOL     OW23123   0.267   1.731   4.101
 3832SOL    HW123124   0.233   1.798   4.160
 3832SOL    HW223125   0.256   1.767   4.013
 3833SOL     OW23126   4.569   4.198   8.345
 3833SOL    HW123127   4.546   4.281   8.386
 3833SOL    HW223128   4.523   4.199   8.262
 3834SOL     OW23129   4.007   1.105  22.031
 3834SOL    HW123130   3.938   1.041  22.046
 3834SOL    HW223131   3.999   1.128  21.939
 3835SOL     OW23132   0.050   2.956   5.580
 3835SOL    HW123133   4.742   2.975   5.550
 3835SOL    HW223134   0.083   3.040   5.611
 3836SOL     OW23135   4.489   2.216  22.011
 3836SOL    HW123136   4.398   2.187  22.004
 3836SOL    HW223137   4.505   2.224  22.105
 3837SOL     OW23138   3.776   4.402  27.364
 3837SOL    HW123139   3.857   4.353  27.371
 3837SOL    HW223140   3.801   4.484  27.320
 3838SOL     OW23141   2.369   0.019  19.333
 3838SOL    HW123142   2.389   4.709  19.312
 3838SOL    HW223143   2.274   0.023  19.334
 3839SOL     OW23144   0.465   4.412  21.282
 3839SOL    HW123145   0.515   4.464  21.219
 3839SOL    HW223146   0.435   4.475  21.347
 3840SOL     OW23147   4.479   4.285  19.878
 3840SOL    HW123148   4.571   4.260  19.880
 3840SOL    HW223149   4.469   4.336  19.797
 3841SOL     OW23150   0.655   1.405   6.060
 3841SOL    HW123151   0.568   1.370   6.040
 3841SOL    HW223152   0.654   1.421   6.154
 3842SOL     OW23153   1.145   0.165  24.094
 3842SOL    HW123154   1.160   0.260  24.083
 3842SOL    HW223155   1.164   0.129  24.007
 3843SOL     OW23156   1.656   3.919   4.544
 3843SOL    HW123157   1.594   3.894   4.475
 3843SOL    HW223158   1.684   4.007   4.520
 3844SOL     OW23159   2.872   0.500   4.471
 3844SOL    HW123160   2.833   0.525   4.387
 3844SOL    HW223161   2.918   0.578   4.501
 3845SOL     OW23162   2.209   3.205   8.744
 3845SOL    HW123163   2.190   3.126   8.795
 3845SOL    HW223164   2.220   3.274   8.809
 3846SOL     OW23165   4.524   3.884  26.489
 3846SOL    HW123166   4.538   3.800  26.446
 3846SOL    HW223167   4.448   3.921  26.443
 3847SOL     OW23168   0.551   4.609   3.533
 3847SOL    HW123169   0.560   4.627   3.440
 3847SOL    HW223170   0.508   4.687   3.569
 3848SOL     OW23171   4.131   3.609   1.390
 3848SOL    HW123172   4.204   3.564   1.346
 3848SOL    HW223173   4.053   3.565   1.357
 3849SOL     OW23174   3.278   2.754  18.829
 3849SOL    HW123175   3.245   2.665  18.836
 3849SOL    HW223176   3.218   2.797  18.768
 3850SOL     OW23177   4.225   1.453   0.327
 3850SOL    HW123178   4.226   1.359   0.347
 3850SOL    HW223179   4.136   1.481   0.347
 3851SOL     OW23180   2.061   4.346  23.078
 3851SOL    HW123181   2.138   4.300  23.110
 3851SOL    HW223182   2.061   4.429  23.128
 3852SOL     OW23183   4.415   4.396   8.505
 3852SOL    HW123184   4.409   4.400   8.600
 3852SOL    HW223185   4.400   4.486   8.476
 3853SOL     OW23186   1.744   3.774  24.387
 3853SOL    HW123187   1.665   3.800  24.436
 3853SOL    HW223188   1.801   3.734  24.453
 3854SOL     OW23189   0.149   3.657   6.312
 3854SOL    HW123190   0.228   3.606   6.329
 3854SOL    HW223191   0.103   3.608   6.243
 3855SOL     OW23192   4.060   0.776   8.493
 3855SOL    HW123193   3.996   0.754   8.560
 3855SOL    HW223194   4.050   0.708   8.426
 3856SOL     OW23195   2.947   1.562   2.605
 3856SOL    HW123196   3.020   1.606   2.561
 3856SOL    HW223197   2.974   1.557   2.696
 3857SOL     OW23198   2.596   1.921   6.441
 3857SOL    HW123199   2.660   1.933   6.372
 3857SOL    HW223200   2.629   1.847   6.492
 3858SOL     OW23201   0.203   0.650   2.094
 3858SOL    HW123202   0.208   0.555   2.086
 3858SOL    HW223203   0.266   0.683   2.029
 3859SOL     OW23204   2.803   1.640  22.387
 3859SOL    HW123205   2.805   1.700  22.462
 3859SOL    HW223206   2.868   1.674  22.326
 3860SOL     OW23207   0.061   3.852   0.191
 3860SOL    HW123208   4.772   3.917   0.187
 3860SOL    HW223209   0.141   3.904   0.190
 3861SOL     OW23210   3.413   3.126  25.748
 3861SOL    HW123211   3.450   3.148  25.662
 3861SOL    HW223212   3.406   3.210  25.793
 3862SOL     OW23213   3.672   2.499   0.627
 3862SOL    HW123214   3.638   2.442   0.696
 3862SOL    HW223215   3.727   2.441   0.574
 3863SOL     OW23216   3.788   2.290  19.829
 3863SOL    HW123217   3.748   2.290  19.742
 3863SOL    HW223218   3.735   2.352  19.880
 3864SOL     OW23219   2.421   2.734  26.786
 3864SOL    HW123220   2.497   2.717  26.842
 3864SOL    HW223221   2.449   2.707  26.699
 3865SOL     OW23222   1.114   4.649  21.465
 3865SOL    HW123223   1.058   4.723  21.489
 3865SOL    HW223224   1.171   4.637  21.541
 3866SOL     OW23225   2.881   0.390   2.082
 3866SOL    HW123226   2.834   0.367   2.002
 3866SOL    HW223227   2.881   0.310   2.134
 3867SOL     OW23228   2.231   0.575   0.491
 3867SOL    HW123229   2.175   0.634   0.540
 3867SOL    HW223230   2.192   0.488   0.503
 3868SOL     OW23231   1.900   0.462   2.789
 3868SOL    HW123232   1.882   0.515   2.711
 3868SOL    HW223233   1.845   0.385   2.779
 3869SOL     OW23234   4.513   1.545   8.958
 3869SOL    HW123235   4.535   1.635   8.984
 3869SOL    HW223236   4.597   1.507   8.932
 3870SOL     OW23237   3.677   3.283   5.968
 3870SOL    HW123238   3.707   3.197   5.995
 3870SOL    HW223239   3.647   3.271   5.877
 3871SOL     OW23240   2.357   4.737  10.803
 3871SOL    HW123241   2.424   4.668  10.810
 3871SOL    HW223242   2.358   4.779  10.889
 3872SOL     OW23243   3.402   2.560  10.497
 3872SOL    HW123244   3.444   2.646  10.505
 3872SOL    HW223245   3.414   2.520  10.583
 3873SOL     OW23246   2.682   2.230   9.540
 3873SOL    HW123247   2.760   2.215   9.486
 3873SOL    HW223248   2.621   2.275   9.481
 3874SOL     OW23249   2.562   0.095  21.355
 3874SOL    HW123250   2.584   0.162  21.290
 3874SOL    HW223251   2.639   0.040  21.360
 3875SOL     OW23252   0.661   2.466  26.602
 3875SOL    HW123253   0.669   2.531  26.533
 3875SOL    HW223254   0.625   2.515  26.677
 3876SOL     OW23255   3.274   3.221  23.248
 3876SOL    HW123256   3.263   3.208  23.154
 3876SOL    HW223257   3.189   3.251  23.279
 3877SOL     OW23258   3.190   2.161  22.276
 3877SOL    HW123259   3.258   2.127  22.217
 3877SOL    HW223260   3.132   2.211  22.218
 3878SOL     OW23261   1.635   1.153  19.046
 3878SOL    HW123262   1.724   1.150  19.012
 3878SOL    HW223263   1.604   1.241  19.024
 3879SOL     OW23264   3.519   4.754  27.089
 3879SOL    HW123265   3.564   0.057  27.084
 3879SOL    HW223266   3.590   4.689  27.090
 3880SOL     OW23267   3.407   0.244   3.465
 3880SOL    HW123268   3.449   0.302   3.401
 3880SOL    HW223269   3.373   0.171   3.413
 3881SOL     OW23270   4.004   1.446  10.354
 3881SOL    HW123271   4.063   1.371  10.362
 3881SOL    HW223272   3.961   1.452  10.440
 3882SOL     OW23273   0.824   1.913   3.211
 3882SOL    HW123274   0.746   1.959   3.179
 3882SOL    HW223275   0.887   1.982   3.230
 3883SOL     OW23276   1.930   2.094  20.740
 3883SOL    HW123277   1.944   2.149  20.663
 3883SOL    HW223278   1.836   2.100  20.757
 3884SOL     OW23279   4.615   2.276  27.315
 3884SOL    HW123280   4.700   2.242  27.290
 3884SOL    HW223281   4.633   2.337  27.386
 3885SOL     OW23282   1.717   3.273  26.419
 3885SOL    HW123283   1.722   3.354  26.469
 3885SOL    HW223284   1.631   3.236  26.439
 3886SOL     OW23285   2.740   1.255   3.610
 3886SOL    HW123286   2.709   1.326   3.554
 3886SOL    HW223287   2.835   1.258   3.602
 3887SOL     OW23288   2.127   3.817  11.527
 3887SOL    HW123289   2.213   3.840  11.492
 3887SOL    HW223290   2.140   3.731  11.568
 3888SOL     OW23291   4.484   2.316   9.265
 3888SOL    HW123292   4.402   2.364   9.270
 3888SOL    HW223293   4.551   2.384   9.256
 3889SOL     OW23294   0.040   3.550   6.083
 3889SOL    HW123295   0.089   3.496   6.021
 3889SOL    HW223296   4.752   3.591   6.030
 3890SOL     OW23297   3.405   3.745  22.733
 3890SOL    HW123298   3.452   3.675  22.688
 3890SOL    HW223299   3.321   3.705  22.757
 3891SOL     OW23300   4.498   0.300   2.912
 3891SOL    HW123301   4.542   0.376   2.951
 3891SOL    HW223302   4.522   0.227   2.969
 3892SOL     OW23303   4.710   3.574   5.178
 3892SOL    HW123304   4.698   3.669   5.184
 3892SOL    HW223305   4.624   3.540   5.153
 3893SOL     OW23306   1.552   1.209   2.965
 3893SOL    HW123307   1.644   1.184   2.959
 3893SOL    HW223308   1.552   1.291   3.014
 3894SOL     OW23309   1.314   0.848   8.051
 3894SOL    HW123310   1.300   0.773   7.992
 3894SOL    HW223311   1.228   0.865   8.088
 3895SOL     OW23312   3.149   2.719  23.751
 3895SOL    HW123313   3.170   2.633  23.714
 3895SOL    HW223314   3.229   2.770  23.743
 3896SOL     OW23315   0.310   0.674   6.043
 3896SOL    HW123316   0.222   0.676   6.079
 3896SOL    HW223317   0.367   0.692   6.118
 3897SOL     OW23318   0.097   2.073   3.681
 3897SOL    HW123319   0.084   1.992   3.632
 3897SOL    HW223320   0.176   2.111   3.643
 3898SOL     OW23321   1.523   0.403   6.105
 3898SOL    HW123322   1.559   0.344   6.171
 3898SOL    HW223323   1.433   0.418   6.132
 3899SOL     OW23324   4.551   3.905  10.461
 3899SOL    HW123325   4.536   3.906  10.555
 3899SOL    HW223326   4.477   3.954  10.424
 3900SOL     OW23327   2.455   4.676  23.374
 3900SOL    HW123328   2.362   4.654  23.377
 3900SOL    HW223329   2.457   4.771  23.360
 3901SOL     OW23330   2.500   2.818  26.228
 3901SOL    HW123331   2.468   2.907  26.215
 3901SOL    HW223332   2.594   2.823  26.211
 3902SOL     OW23333   2.418   0.364   2.792
 3902SOL    HW123334   2.420   0.343   2.886
 3902SOL    HW223335   2.506   0.395   2.772
 3903SOL     OW23336   0.320   2.403   5.477
 3903SOL    HW123337   0.228   2.417   5.500
 3903SOL    HW223338   0.367   2.470   5.525
 3904SOL     OW23339   4.563   1.105  28.196
 3904SOL    HW123340   4.527   1.046  28.263
 3904SOL    HW223341   4.643   1.062  28.167
 3905SOL     OW23342   3.556   4.457   8.320
 3905SOL    HW123343   3.596   4.506   8.391
 3905SOL    HW223344   3.491   4.516   8.283
 3906SOL     OW23345   1.489   2.728   4.688
 3906SOL    HW123346   1.395   2.726   4.671
 3906SOL    HW223347   1.523   2.797   4.631
 3907SOL     OW23348   1.818   1.494  21.430
 3907SOL    HW123349   1.832   1.538  21.346
 3907SOL    HW223350   1.896   1.516  21.481
 3908SOL     OW23351   0.883   2.467   1.228
 3908SOL    HW123352   0.943   2.506   1.164
 3908SOL    HW223353   0.940   2.423   1.291
 3909SOL     OW23354   2.157   2.647  21.583
 3909SOL    HW123355   2.157   2.608  21.495
 3909SOL    HW223356   2.067   2.679  21.594
 3910SOL     OW23357   2.783   3.731   4.330
 3910SOL    HW123358   2.802   3.809   4.278
 3910SOL    HW223359   2.835   3.741   4.410
 3911SOL     OW23360   1.805   1.880   2.015
 3911SOL    HW123361   1.745   1.896   2.088
 3911SOL    HW223362   1.888   1.856   2.056
 3912SOL     OW23363   0.693   2.991  25.015
 3912SOL    HW123364   0.624   2.969  25.077
 3912SOL    HW223365   0.679   3.084  24.995
 3913SOL     OW23366   2.504   3.442   8.733
 3913SOL    HW123367   2.474   3.363   8.778
 3913SOL    HW223368   2.513   3.507   8.803
 3914SOL     OW23369   1.740   2.007   8.815
 3914SOL    HW123370   1.740   2.102   8.809
 3914SOL    HW223371   1.832   1.982   8.804
 3915SOL     OW23372   1.584   3.523  28.116
 3915SOL    HW123373   1.536   3.481  28.044
 3915SOL    HW223374   1.644   3.456  28.147
 3916SOL     OW23375   2.404   4.400  22.837
 3916SOL    HW123376   2.369   4.482  22.873
 3916SOL    HW223377   2.484   4.385  22.887
 3917SOL     OW23378   3.165   3.830  20.480
 3917SOL    HW123379   3.082   3.852  20.438
 3917SOL    HW223380   3.229   3.889  20.440
 3918SOL     OW23381   4.332   2.485  10.562
 3918SOL    HW123382   4.261   2.478  10.499
 3918SOL    HW223383   4.410   2.457  10.514
 3919SOL     OW23384   2.392   1.041  20.093
 3919SOL    HW123385   2.300   1.063  20.080
 3919SOL    HW223386   2.432   1.124  20.121
 3920SOL     OW23387   1.648   2.695  28.225
 3920SOL    HW123388   1.663   2.603  28.246
 3920SOL    HW223389   1.706   2.713  28.152
 3921SOL     OW23390   4.051   1.220   3.711
 3921SOL    HW123391   4.015   1.305   3.737
 3921SOL    HW223392   4.146   1.233   3.715
 3922SOL     OW23393   3.895   0.530   1.715
 3922SOL    HW123394   3.886   0.482   1.797
 3922SOL    HW223395   3.815   0.582   1.709
 3923SOL     OW23396   4.702   3.898  22.442
 3923SOL    HW123397   4.611   3.914  22.468
 3923SOL    HW223398   4.731   3.980  22.403
 3924SOL     OW23399   3.331   3.863  17.386
 3924SOL    HW123400   3.398   3.861  17.317
 3924SOL    HW223401   3.248   3.867  17.339
 3925SOL     OW23402   3.995   0.842   6.105
 3925SOL    HW123403   3.998   0.792   6.187
 3925SOL    HW223404   3.922   0.903   6.116
 3926SOL     OW23405   1.275   2.607   2.892
 3926SOL    HW123406   1.202   2.636   2.836
 3926SOL    HW223407   1.242   2.618   2.981
 3927SOL     OW23408   3.049   0.287  19.757
 3927SOL    HW123409   3.130   0.237  19.755
 3927SOL    HW223410   3.072   0.374  19.724
 3928SOL     OW23411   4.429   2.741  18.769
 3928SOL    HW123412   4.415   2.648  18.752
 3928SOL    HW223413   4.360   2.785  18.720
 3929SOL     OW23414   4.704   0.334  19.723
 3929SOL    HW123415   0.009   0.362  19.691
 3929SOL    HW223416   4.658   0.416  19.742
 3930SOL     OW23417   3.560   0.218   8.160
 3930SOL    HW123418   3.502   0.218   8.236
 3930SOL    HW223419   3.640   0.175   8.191
 3931SOL     OW23420   3.995   2.158  22.562
 3931SOL    HW123421   4.050   2.212  22.505
 3931SOL    HW223422   3.911   2.202  22.563
 3932SOL     OW23423   0.617   3.869  24.475
 3932SOL    HW123424   0.543   3.838  24.526
 3932SOL    HW223425   0.579   3.931  24.413
 3933SOL     OW23426   3.691   1.939   2.206
 3933SOL    HW123427   3.609   1.928   2.253
 3933SOL    HW223428   3.757   1.897   2.261
 3934SOL     OW23429   0.122   0.881  24.226
 3934SOL    HW123430   0.091   0.846  24.143
 3934SOL    HW223431   0.043   0.896  24.277
 3935SOL     OW23432   0.092   2.047  20.168
 3935SOL    HW123433   0.028   2.052  20.239
 3935SOL    HW223434   0.119   2.137  20.153
 3936SOL     OW23435   1.850   2.662   0.299
 3936SOL    HW123436   1.884   2.681   0.387
 3936SOL    HW223437   1.756   2.673   0.307
 3937SOL     OW23438   2.779   4.470  19.385
 3937SOL    HW123439   2.759   4.557  19.419
 3937SOL    HW223440   2.744   4.471  19.296
 3938SOL     OW23441   1.280   2.505  23.653
 3938SOL    HW123442   1.190   2.477  23.639
 3938SOL    HW223443   1.325   2.479  23.573
 3939SOL     OW23444   1.573   2.139  25.386
 3939SOL    HW123445   1.602   2.048  25.388
 3939SOL    HW223446   1.484   2.136  25.352
 3940SOL     OW23447   2.670   3.136   9.841
 3940SOL    HW123448   2.721   3.065   9.803
 3940SOL    HW223449   2.580   3.118   9.813
 3941SOL     OW23450   0.977   0.131   9.074
 3941SOL    HW123451   0.924   0.052   9.061
 3941SOL    HW223452   0.981   0.171   8.988
 3942SOL     OW23453   3.462   3.196   2.645
 3942SOL    HW123454   3.385   3.181   2.699
 3942SOL    HW223455   3.517   3.120   2.660
 3943SOL     OW23456   1.826   3.364  27.276
 3943SOL    HW123457   1.743   3.397  27.243
 3943SOL    HW223458   1.820   3.374  27.371
 3944SOL     OW23459   0.290   4.500  24.290
 3944SOL    HW123460   0.331   4.471  24.208
 3944SOL    HW223461   0.359   4.491  24.356
 3945SOL     OW23462   3.401   0.253   3.175
 3945SOL    HW123463   3.451   0.251   3.093
 3945SOL    HW223464   3.344   0.177   3.170
 3946SOL     OW23465   4.040   0.769  22.572
 3946SOL    HW123466   4.069   0.737  22.486
 3946SOL    HW223467   4.044   0.864  22.564
 3947SOL     OW23468   1.130   3.322   7.520
 3947SOL    HW123469   1.216   3.281   7.528
 3947SOL    HW223470   1.083   3.268   7.457
 3948SOL     OW23471   0.183   0.034  19.652
 3948SOL    HW123472   0.128   4.777  19.583
 3948SOL    HW223473   0.130   0.028  19.731
 3949SOL     OW23474   1.106   3.059   2.936
 3949SOL    HW123475   1.158   3.131   2.901
 3949SOL    HW223476   1.075   3.012   2.859
 3950SOL     OW23477   0.383   1.602   5.913
 3950SOL    HW123478   0.426   1.601   5.827
 3950SOL    HW223479   0.377   1.510   5.937
 3951SOL     OW23480   2.114   1.307  23.036
 3951SOL    HW123481   2.116   1.238  22.969
 3951SOL    HW223482   2.071   1.381  22.992
 3952SOL     OW23483   1.326   3.451   3.421
 3952SOL    HW123484   1.261   3.423   3.485
 3952SOL    HW223485   1.385   3.376   3.413
 3953SOL     OW23486   3.471   3.085  23.561
 3953SOL    HW123487   3.565   3.101  23.556
 3953SOL    HW223488   3.431   3.171  23.549
 3954SOL     OW23489   1.713   1.450   0.424
 3954SOL    HW123490   1.708   1.355   0.414
 3954SOL    HW223491   1.685   1.466   0.514
 3955SOL     OW23492   2.470   2.926  22.431
 3955SOL    HW123493   2.497   2.875  22.508
 3955SOL    HW223494   2.434   3.007  22.468
 3956SOL     OW23495   4.643   4.379   0.115
 3956SOL    HW123496   4.620   4.423   0.197
 3956SOL    HW223497   4.560   4.371   0.068
 3957SOL     OW23498   3.093   4.565   8.143
 3957SOL    HW123499   3.116   4.648   8.102
 3957SOL    HW223500   3.092   4.502   8.072
 3958SOL     OW23501   2.244   4.031  19.730
 3958SOL    HW123502   2.256   3.966  19.799
 3958SOL    HW223503   2.187   4.097  19.768
 3959SOL     OW23504   1.911   2.120   5.944
 3959SOL    HW123505   1.916   2.065   5.866
 3959SOL    HW223506   2.002   2.135   5.969
 3960SOL     OW23507   0.086   0.163   9.154
 3960SOL    HW123508   0.149   0.123   9.214
 3960SOL    HW223509   0.020   0.203   9.210
 3961SOL     OW23510   0.277   4.761  27.301
 3961SOL    HW123511   0.355   4.777  27.248
 3961SOL    HW223512   0.206   0.023  27.254
 3962SOL     OW23513   1.405   4.690   8.199
 3962SOL    HW123514   1.415   4.603   8.236
 3962SOL    HW223515   1.416   4.677   8.104
 3963SOL     OW23516   4.695   4.438  27.903
 3963SOL    HW123517   4.668   4.459  27.992
 3963SOL    HW223518   4.640   4.493  27.847
 3964SOL     OW23519   1.928   0.430  10.873
 3964SOL    HW123520   1.845   0.478  10.868
 3964SOL    HW223521   1.912   0.360  10.936
 3965SOL     OW23522   2.493   3.529  10.131
 3965SOL    HW123523   2.524   3.471  10.062
 3965SOL    HW223524   2.398   3.531  10.120
 3966SOL     OW23525   3.947   2.318  25.416
 3966SOL    HW123526   3.887   2.390  25.439
 3966SOL    HW223527   4.023   2.331  25.473
 3967SOL     OW23528   1.052   1.775   9.117
 3967SOL    HW123529   0.993   1.777   9.193
 3967SOL    HW223530   1.140   1.783   9.155
 3968SOL     OW23531   1.756   1.806  27.803
 3968SOL    HW123532   1.801   1.732  27.843
 3968SOL    HW223533   1.825   1.869  27.782
 3969SOL     OW23534   0.888   0.163  28.384
 3969SOL    HW123535   0.831   0.235  28.411
 3969SOL    HW223536   0.971   0.180  28.428
 3970SOL     OW23537   4.534   3.411  27.508
 3970SOL    HW123538   4.567   3.500  27.496
 3970SOL    HW223539   4.551   3.367  27.425
 3971SOL     OW23540   3.447   3.391  27.742
 3971SOL    HW123541   3.493   3.333  27.803
 3971SOL    HW223542   3.354   3.370  27.755
 3972SOL     OW23543   0.373   4.114  24.041
 3972SOL    HW123544   0.339   4.027  24.063
 3972SOL    HW223545   0.298   4.173  24.054
 3973SOL     OW23546   4.686   0.408  13.132
 3973SOL    HW123547   4.677   0.490  13.083
 3973SOL    HW223548   4.757   0.425  13.195
 3974SOL     OW23549   3.523   2.301   1.543
 3974SOL    HW123550   3.466   2.254   1.483
 3974SOL    HW223551   3.529   2.244   1.620
 3975SOL     OW23552   0.308   1.945  19.432
 3975SOL    HW123553   0.337   2.010  19.497
 3975SOL    HW223554   0.326   1.861  19.474
 3976SOL     OW23555   1.274   0.300  20.564
 3976SOL    HW123556   1.222   0.342  20.633
 3976SOL    HW223557   1.209   0.263  20.504
 3977SOL     OW23558   3.249   4.679   8.447
 3977SOL    HW123559   3.227   4.588   8.426
 3977SOL    HW223560   3.304   4.708   8.374
 3978SOL     OW23561   4.427   2.060  21.436
 3978SOL    HW123562   4.521   2.071  21.453
 3978SOL    HW223563   4.416   1.966  21.424
 3979SOL     OW23564   4.582   1.496  20.509
 3979SOL    HW123565   4.640   1.471  20.581
 3979SOL    HW223566   4.540   1.414  20.483
 3980SOL     OW23567   2.691   2.482   7.688
 3980SOL    HW123568   2.749   2.406   7.694
 3980SOL    HW223569   2.721   2.528   7.609
 3981SOL     OW23570   3.653   2.072   9.090
 3981SOL    HW123571   3.637   2.167   9.086
 3981SOL    HW223572   3.611   2.038   9.011
 3982SOL     OW23573   2.819   4.748   2.802
 3982SOL    HW123574   2.876   0.030   2.844
 3982SOL    HW223575   2.876   4.699   2.743
 3983SOL     OW23576   1.689   0.157   5.651
 3983SOL    HW123577   1.661   0.097   5.720
 3983SOL    HW223578   1.629   0.140   5.578
 3984SOL     OW23579   1.801   1.979   8.475
 3984SOL    HW123580   1.780   1.911   8.411
 3984SOL    HW223581   1.802   1.933   8.559
 3985SOL     OW23582   3.653   2.777   4.903
 3985SOL    HW123583   3.680   2.767   4.812
 3985SOL    HW223584   3.623   2.690   4.929
 3986SOL     OW23585   2.271   2.007  22.658
 3986SOL    HW123586   2.331   1.940  22.624
 3986SOL    HW223587   2.192   1.958  22.682
 3987SOL     OW23588   2.288   2.368   0.635
 3987SOL    HW123589   2.349   2.305   0.673
 3987SOL    HW223590   2.258   2.421   0.709
 3988SOL     OW23591   0.549   3.880  19.951
 3988SOL    HW123592   0.626   3.921  19.990
 3988SOL    HW223593   0.575   3.860  19.861
 3989SOL     OW23594   3.567   1.646  19.868
 3989SOL    HW123595   3.507   1.714  19.838
 3989SOL    HW223596   3.551   1.639  19.962
 3990SOL     OW23597   1.687   1.523  10.686
 3990SOL    HW123598   1.675   1.443  10.738
 3990SOL    HW223599   1.743   1.578  10.741
 3991SOL     OW23600   2.319   0.016   4.197
 3991SOL    HW123601   2.355   4.755   4.119
 3991SOL    HW223602   2.243   0.066   4.166
 3992SOL     OW23603   0.713   1.400  18.892
 3992SOL    HW123604   0.642   1.411  18.956
 3992SOL    HW223605   0.742   1.489  18.873
 3993SOL     OW23606   2.017   3.128  24.539
 3993SOL    HW123607   1.987   3.072  24.468
 3993SOL    HW223608   2.112   3.119  24.538
 3994SOL     OW23609   1.495   3.412  27.855
 3994SOL    HW123610   1.474   3.476  27.787
 3994SOL    HW223611   1.411   3.375  27.881
 3995SOL     OW23612   4.059   4.447   2.074
 3995SOL    HW123613   4.115   4.454   2.151
 3995SOL    HW223614   4.112   4.401   2.009
 3996SOL     OW23615   4.068   4.729   4.506
 3996SOL    HW123616   4.087   4.672   4.580
 3996SOL    HW223617   4.065   4.671   4.430
 3997SOL     OW23618   2.891   1.208   2.533
 3997SOL    HW123619   2.869   1.137   2.594
 3997SOL    HW223620   2.812   1.219   2.480
 3998SOL     OW23621   1.439   3.738  28.215
 3998SOL    HW123622   1.414   3.743  28.307
 3998SOL    HW223623   1.511   3.675  28.212
 3999SOL     OW23624   4.339   1.970  27.124
 3999SOL    HW123625   4.348   1.898  27.186
 3999SOL    HW223626   4.312   2.045  27.177
 4000SOL     OW23627   4.034   2.197  23.970
 4000SOL    HW123628   4.076   2.275  24.007
 4000SOL    HW223629   3.980   2.229  23.899
 4001SOL     OW23630   4.148   1.636  28.019
 4001SOL    HW123631   4.096   1.714  28.005
 4001SOL    HW223632   4.212   1.661  28.086
 4002SOL     OW23633   4.028   4.180  20.308
 4002SOL    HW123634   3.991   4.241  20.243
 4002SOL    HW223635   4.070   4.112  20.255
 4003SOL     OW23636   3.616   1.480   3.959
 4003SOL    HW123637   3.690   1.424   3.939
 4003SOL    HW223638   3.555   1.467   3.886
 4004SOL     OW23639   2.771   1.252   1.619
 4004SOL    HW123640   2.785   1.248   1.714
 4004SOL    HW223641   2.825   1.181   1.584
 4005SOL     OW23642   1.516   4.431  26.664
 4005SOL    HW123643   1.575   4.451  26.591
 4005SOL    HW223644   1.570   4.442  26.742
 4006SOL     OW23645   0.086   2.590  24.632
 4006SOL    HW123646   0.154   2.657  24.629
 4006SOL    HW223647   0.127   2.517  24.678
 4007SOL     OW23648   0.382   3.057   1.330
 4007SOL    HW123649   0.472   3.048   1.360
 4007SOL    HW223650   0.385   3.035   1.237
 4008SOL     OW23651   1.514   3.354  24.205
 4008SOL    HW123652   1.567   3.275  24.190
 4008SOL    HW223653   1.435   3.339  24.154
 4009SOL     OW23654   3.185   1.024   1.728
 4009SOL    HW123655   3.190   0.992   1.818
 4009SOL    HW223656   3.206   0.947   1.674
 4010SOL     OW23657   1.976   1.133  23.945
 4010SOL    HW123658   1.947   1.050  23.983
 4010SOL    HW223659   1.901   1.164  23.894
 4011SOL     OW23660   0.815   1.768   2.398
 4011SOL    HW123661   0.734   1.798   2.355
 4011SOL    HW223662   0.874   1.748   2.325
 4012SOL     OW23663   1.015   3.151  20.181
 4012SOL    HW123664   1.022   3.117  20.270
 4012SOL    HW223665   0.932   3.116  20.148
 4013SOL     OW23666   3.256   0.787  11.027
 4013SOL    HW123667   3.308   0.802  11.105
 4013SOL    HW223668   3.241   0.874  10.990
 4014SOL     OW23669   0.666   1.156  22.301
 4014SOL    HW123670   0.644   1.080  22.248
 4014SOL    HW223671   0.741   1.128  22.354
 4015SOL     OW23672   1.808   4.468  23.988
 4015SOL    HW123673   1.871   4.510  23.929
 4015SOL    HW223674   1.825   4.507  24.073
 4016SOL     OW23675   4.178   4.462   2.781
 4016SOL    HW123676   4.176   4.376   2.739
 4016SOL    HW223677   4.132   4.520   2.721
 4017SOL     OW23678   1.736   4.780   2.313
 4017SOL    HW123679   1.754   0.064   2.382
 4017SOL    HW223680   1.822   4.747   2.288
 4018SOL     OW23681   4.448   1.170  27.293
 4018SOL    HW123682   4.463   1.246  27.349
 4018SOL    HW223683   4.522   1.169  27.233
 4019SOL     OW23684   1.435   3.030   5.483
 4019SOL    HW123685   1.389   3.039   5.400
 4019SOL    HW223686   1.528   3.024   5.459
 4020SOL     OW23687   1.347   1.016  27.883
 4020SOL    HW123688   1.341   1.023  27.787
 4020SOL    HW223689   1.401   0.938  27.897
 4021SOL     OW23690   3.079   2.342   8.538
 4021SOL    HW123691   3.110   2.287   8.610
 4021SOL    HW223692   2.995   2.303   8.512
 4022SOL     OW23693   0.417   3.545  25.222
 4022SOL    HW123694   0.373   3.624  25.189
 4022SOL    HW223695   0.453   3.571  25.306
 4023SOL     OW23696   2.988   0.696  11.104
 4023SOL    HW123697   2.957   0.647  11.179
 4023SOL    HW223698   2.930   0.772  11.098
 4024SOL     OW23699   0.640   1.474  19.682
 4024SOL    HW123700   0.565   1.488  19.739
 4024SOL    HW223701   0.603   1.435  19.602
 4025SOL     OW23702   0.526   0.008  27.677
 4025SOL    HW123703   0.488   4.720  27.622
 4025SOL    HW223704   0.571   4.741  27.747
 4026SOL     OW23705   4.088   4.650  18.350
 4026SOL    HW123706   4.154   4.645  18.419
 4026SOL    HW223707   4.136   4.629  18.270
 4027SOL     OW23708   1.069   0.170   5.474
 4027SOL    HW123709   1.069   0.235   5.544
 4027SOL    HW223710   1.158   0.134   5.473
 4028SOL     OW23711   3.255   2.967  25.914
 4028SOL    HW123712   3.181   3.012  25.872
 4028SOL    HW223713   3.332   2.997  25.864
 4029SOL     OW23714   2.490   1.661  22.891
 4029SOL    HW123715   2.419   1.725  22.891
 4029SOL    HW223716   2.569   1.711  22.910
 4030SOL     OW23717   4.587   2.175  26.985
 4030SOL    HW123718   4.632   2.259  26.985
 4030SOL    HW223719   4.496   2.196  27.005
 4031SOL     OW23720   2.445   3.893   5.639
 4031SOL    HW123721   2.360   3.933   5.624
 4031SOL    HW223722   2.461   3.903   5.733
 4032SOL     OW23723   1.773   0.430   7.055
 4032SOL    HW123724   1.833   0.481   7.001
 4032SOL    HW223725   1.803   0.445   7.145
 4033SOL     OW23726   3.521   3.423   0.409
 4033SOL    HW123727   3.605   3.382   0.427
 4033SOL    HW223728   3.461   3.350   0.395
 4034SOL     OW23729   2.409   1.522   3.184
 4034SOL    HW123730   2.378   1.506   3.273
 4034SOL    HW223731   2.363   1.457   3.130
 4035SOL     OW23732   3.748   2.229  18.291
 4035SOL    HW123733   3.771   2.322  18.300
 4035SOL    HW223734   3.652   2.227  18.297
 4036SOL     OW23735   1.496   2.393  21.991
 4036SOL    HW123736   1.525   2.478  22.024
 4036SOL    HW223737   1.486   2.406  21.896
 4037SOL     OW23738   4.259   2.131  24.197
 4037SOL    HW123739   4.260   2.064  24.129
 4037SOL    HW223740   4.226   2.086  24.275
 4038SOL     OW23741   3.569   1.884  19.050
 4038SOL    HW123742   3.663   1.871  19.068
 4038SOL    HW223743   3.524   1.831  19.115
 4039SOL     OW23744   1.815   0.729  22.390
 4039SOL    HW123745   1.851   0.810  22.427
 4039SOL    HW223746   1.723   0.749  22.374
 4040SOL     OW23747   2.598   3.640   1.986
 4040SOL    HW123748   2.538   3.700   2.031
 4040SOL    HW223749   2.644   3.695   1.923
 4041SOL     OW23750   1.046   0.634  25.680
 4041SOL    HW123751   1.013   0.641  25.769
 4041SOL    HW223752   0.983   0.683  25.627
 4042SOL     OW23753   1.275   2.303   8.074
 4042SOL    HW123754   1.232   2.256   8.146
 4042SOL    HW223755   1.359   2.258   8.064
 4043SOL     OW23756   0.320   0.461  26.588
 4043SOL    HW123757   0.274   0.382  26.617
 4043SOL    HW223758   0.263   0.498  26.520
 4044SOL     OW23759   3.221   0.582  11.233
 4044SOL    HW123760   3.204   0.640  11.306
 4044SOL    HW223761   3.289   0.522  11.265
 4045SOL     OW23762   1.875   2.968  20.873
 4045SOL    HW123763   1.933   3.044  20.884
 4045SOL    HW223764   1.857   2.939  20.962
 4046SOL     OW23765   1.188   0.153   3.519
 4046SOL    HW123766   1.202   0.202   3.600
 4046SOL    HW223767   1.207   0.215   3.449
 4047SOL     OW23768   3.998   2.150  22.233
 4047SOL    HW123769   4.002   2.133  22.139
 4047SOL    HW223770   4.084   2.125  22.266
 4048SOL     OW23771   3.375   4.497   2.636
 4048SOL    HW123772   3.357   4.403   2.637
 4048SOL    HW223773   3.404   4.516   2.725
 4049SOL     OW23774   2.436   1.694  20.753
 4049SOL    HW123775   2.420   1.781  20.788
 4049SOL    HW223776   2.374   1.685  20.681
 4050SOL     OW23777   3.079   2.659   5.278
 4050SOL    HW123778   3.074   2.695   5.190
 4050SOL    HW223779   3.020   2.584   5.277
 4051SOL     OW23780   0.881   4.181  21.001
 4051SOL    HW123781   0.858   4.211  20.913
 4051SOL    HW223782   0.825   4.232  21.059
 4052SOL     OW23783   4.616   0.608  19.777
 4052SOL    HW123784   4.687   0.619  19.841
 4052SOL    HW223785   4.551   0.673  19.802
 4053SOL     OW23786   1.497   1.650  28.334
 4053SOL    HW123787   1.495   1.741  28.305
 4053SOL    HW223788   1.574   1.612  28.293
 4054SOL     OW23789   2.824   4.395   5.377
 4054SOL    HW123790   2.739   4.361   5.350
 4054SOL    HW223791   2.819   4.401   5.472
 4055SOL     OW23792   1.451   3.525  23.483
 4055SOL    HW123793   1.478   3.569  23.564
 4055SOL    HW223794   1.478   3.586  23.414
 4056SOL     OW23795   4.120   1.893  16.900
 4056SOL    HW123796   4.152   1.883  16.990
 4056SOL    HW223797   4.181   1.841  16.847
 4057SOL     OW23798   0.281   2.951  28.100
 4057SOL    HW123799   0.273   2.871  28.048
 4057SOL    HW223800   0.375   2.965  28.109
 4058SOL     OW23801   3.673   0.690  26.837
 4058SOL    HW123802   3.608   0.625  26.808
 4058SOL    HW223803   3.656   0.766  26.782
 4059SOL     OW23804   0.184   3.216  25.645
 4059SOL    HW123805   0.215   3.298  25.684
 4059SOL    HW223806   0.144   3.169  25.718
 4060SOL     OW23807   1.481   4.780   0.798
 4060SOL    HW123808   1.463   4.717   0.868
 4060SOL    HW223809   1.424   4.751   0.726
 4061SOL     OW23810   3.568   0.939  21.680
 4061SOL    HW123811   3.478   0.949  21.711
 4061SOL    HW223812   3.565   0.963  21.588
 4062SOL     OW23813   1.645   1.931  23.292
 4062SOL    HW123814   1.570   1.933  23.233
 4062SOL    HW223815   1.654   2.021  23.324
 4063SOL     OW23816   4.232   1.073   6.591
 4063SOL    HW123817   4.250   0.981   6.612
 4063SOL    HW223818   4.225   1.115   6.677
 4064SOL     OW23819   0.769   1.004   8.710
 4064SOL    HW123820   0.690   1.005   8.655
 4064SOL    HW223821   0.833   1.056   8.662
 4065SOL     OW23822   4.237   1.906  19.699
 4065SOL    HW123823   4.284   1.863  19.627
 4065SOL    HW223824   4.291   1.981  19.721
 4066SOL     OW23825   3.916   2.307  27.945
 4066SOL    HW123826   3.965   2.282  27.866
 4066SOL    HW223827   3.919   2.229  28.000
 4067SOL     OW23828   3.413   3.557  22.462
 4067SOL    HW123829   3.462   3.579  22.383
 4067SOL    HW223830   3.328   3.600  22.451
 4068SOL     OW23831   2.358   3.492   1.660
 4068SOL    HW123832   2.356   3.576   1.705
 4068SOL    HW223833   2.279   3.492   1.605
 4069SOL     OW23834   1.059   4.200   1.411
 4069SOL    HW123835   1.041   4.291   1.436
 4069SOL    HW223836   1.002   4.185   1.336
 4070SOL     OW23837   2.585   4.210   8.756
 4070SOL    HW123838   2.608   4.236   8.667
 4070SOL    HW223839   2.665   4.170   8.791
 4071SOL     OW23840   2.278   0.155  17.800
 4071SOL    HW123841   2.289   0.250  17.797
 4071SOL    HW223842   2.310   0.125  17.715
 4072SOL     OW23843   0.202   3.284  22.369
 4072SOL    HW123844   0.161   3.248  22.448
 4072SOL    HW223845   0.293   3.299  22.395
 4073SOL     OW23846   0.875   0.947  11.197
 4073SOL    HW123847   0.926   0.989  11.267
 4073SOL    HW223848   0.849   1.020  11.140
 4074SOL     OW23849   2.346   0.837  24.220
 4074SOL    HW123850   2.272   0.805  24.168
 4074SOL    HW223851   2.317   0.921  24.255
 4075SOL     OW23852   1.939   0.014   0.267
 4075SOL    HW123853   1.888   0.093   0.281
 4075SOL    HW223854   1.908   4.761   0.183
 4076SOL     OW23855   2.049   1.660  25.964
 4076SOL    HW123856   2.144   1.648  25.973
 4076SOL    HW223857   2.040   1.722  25.891
 4077SOL     OW23858   3.477   4.090   9.759
 4077SOL    HW123859   3.521   4.152   9.817
 4077SOL    HW223860   3.403   4.057   9.811
 4078SOL     OW23861   2.794   1.115   8.973
 4078SOL    HW123862   2.777   1.071   9.056
 4078SOL    HW223863   2.719   1.175   8.962
 4079SOL     OW23864   3.138   3.518  21.493
 4079SOL    HW123865   3.180   3.579  21.554
 4079SOL    HW223866   3.208   3.492  21.433
 4080SOL     OW23867   2.694   0.908   2.204
 4080SOL    HW123868   2.733   0.866   2.127
 4080SOL    HW223869   2.623   0.850   2.230
 4081SOL     OW23870   3.689   2.850   6.363
 4081SOL    HW123871   3.656   2.908   6.431
 4081SOL    HW223872   3.721   2.908   6.294
 4082SOL     OW23873   2.885   4.126   2.141
 4082SOL    HW123874   2.916   4.050   2.091
 4082SOL    HW223875   2.887   4.199   2.078
 4083SOL     OW23876   2.934   1.312  21.721
 4083SOL    HW123877   2.920   1.310  21.816
 4083SOL    HW223878   2.996   1.384  21.708
 4084SOL     OW23879   4.446   3.402   0.758
 4084SOL    HW123880   4.369   3.344   0.754
 4084SOL    HW223881   4.518   3.349   0.723
 4085SOL     OW23882   2.213   3.519  23.299
 4085SOL    HW123883   2.294   3.515  23.350
 4085SOL    HW223884   2.237   3.484  23.213
 4086SOL     OW23885   3.517   2.816  10.515
 4086SOL    HW123886   3.480   2.900  10.544
 4086SOL    HW223887   3.592   2.802  10.573
 4087SOL     OW23888   0.442   1.978   2.098
 4087SOL    HW123889   0.477   1.933   2.020
 4087SOL    HW223890   0.425   2.067   2.068
 4088SOL     OW23891   4.432   1.254  20.479
 4088SOL    HW123892   4.381   1.303  20.543
 4088SOL    HW223893   4.370   1.193  20.439
 4089SOL     OW23894   4.116   2.753   9.741
 4089SOL    HW123895   4.050   2.812   9.778
 4089SOL    HW223896   4.173   2.732   9.815
 4090SOL     OW23897   2.137   2.241  21.524
 4090SOL    HW123898   2.223   2.238  21.566
 4090SOL    HW223899   2.094   2.317  21.564
 4091SOL     OW23900   0.522   4.711   9.036
 4091SOL    HW123901   0.567   4.635   9.000
 4091SOL    HW223902   0.567   4.729   9.118
 4092SOL     OW23903   3.305   2.525  24.057
 4092SOL    HW123904   3.376   2.581  24.026
 4092SOL    HW223905   3.300   2.544  24.151
 4093SOL     OW23906   3.248   3.184  24.410
 4093SOL    HW123907   3.207   3.195  24.324
 4093SOL    HW223908   3.340   3.206  24.396
 4094SOL     OW23909   3.085   1.354   8.724
 4094SOL    HW123910   3.175   1.352   8.689
 4094SOL    HW223911   3.047   1.433   8.687
 4095SOL     OW23912   2.700   3.560   1.006
 4095SOL    HW123913   2.751   3.568   0.925
 4095SOL    HW223914   2.644   3.637   1.007
 4096SOL     OW23915   0.531   0.326  24.727
 4096SOL    HW123916   0.437   0.339  24.719
 4096SOL    HW223917   0.569   0.412  24.711
 4097SOL     OW23918   1.066   2.592   0.163
 4097SOL    HW123919   1.012   2.611   0.086
 4097SOL    HW223920   1.143   2.547   0.128
 4098SOL     OW23921   0.903   4.117   8.244
 4098SOL    HW123922   0.856   4.061   8.306
 4098SOL    HW223923   0.883   4.206   8.272
 4099SOL     OW23924   0.177   1.191  23.770
 4099SOL    HW123925   0.170   1.135  23.693
 4099SOL    HW223926   0.257   1.242  23.754
 4100SOL     OW23927   1.037   2.237  26.396
 4100SOL    HW123928   1.009   2.327  26.414
 4100SOL    HW223929   1.081   2.242  26.311
 4101SOL     OW23930   0.599   1.485   1.754
 4101SOL    HW123931   0.675   1.540   1.775
 4101SOL    HW223932   0.539   1.497   1.827
 4102SOL     OW23933   3.982   3.501   3.736
 4102SOL    HW123934   3.953   3.515   3.645
 4102SOL    HW223935   3.975   3.587   3.776
 4103SOL     OW23936   4.311   3.551   4.261
 4103SOL    HW123937   4.401   3.581   4.270
 4103SOL    HW223938   4.258   3.625   4.292
 4104SOL     OW23939   3.173   4.468  23.524
 4104SOL    HW123940   3.216   4.399  23.574
 4104SOL    HW223941   3.079   4.453  23.536
 4105SOL     OW23942   4.691   2.434  20.309
 4105SOL    HW123943   4.624   2.490  20.271
 4105SOL    HW223944   4.643   2.372  20.363
 4106SOL     OW23945   3.927   2.224   5.353
 4106SOL    HW123946   3.941   2.282   5.279
 4106SOL    HW223947   3.922   2.282   5.429
 4107SOL     OW23948   3.309   3.929   1.548
 4107SOL    HW123949   3.340   4.015   1.519
 4107SOL    HW223950   3.372   3.868   1.510
 4108SOL     OW23951   2.874   3.368  22.891
 4108SOL    HW123952   2.949   3.423  22.913
 4108SOL    HW223953   2.853   3.390  22.800
 4109SOL     OW23954   2.601   3.943  27.120
 4109SOL    HW123955   2.523   3.894  27.145
 4109SOL    HW223956   2.569   4.032  27.103
 4110SOL     OW23957   3.888   4.167  19.438
 4110SOL    HW123958   3.939   4.108  19.383
 4110SOL    HW223959   3.842   4.110  19.499
 4111SOL     OW23960   3.388   1.084   4.131
 4111SOL    HW123961   3.297   1.053   4.123
 4111SOL    HW223962   3.424   1.074   4.043
 4112SOL     OW23963   3.197   3.779  24.671
 4112SOL    HW123964   3.116   3.756  24.625
 4112SOL    HW223965   3.248   3.697  24.671
 4113SOL     OW23966   3.049   1.210   4.306
 4113SOL    HW123967   3.018   1.268   4.237
 4113SOL    HW223968   3.089   1.137   4.260
 4114SOL     OW23969   3.864   1.586   7.164
 4114SOL    HW123970   3.892   1.496   7.182
 4114SOL    HW223971   3.820   1.614   7.244
 4115SOL     OW23972   3.803   3.833   0.702
 4115SOL    HW123973   3.729   3.882   0.739
 4115SOL    HW223974   3.856   3.809   0.778
 4116SOL     OW23975   4.660   2.231  21.573
 4116SOL    HW123976   4.602   2.283  21.629
 4116SOL    HW223977   4.748   2.263  21.594
 4117SOL     OW23978   2.266   0.086   5.590
 4117SOL    HW123979   2.173   0.108   5.585
 4117SOL    HW223980   2.268   4.775   5.615
 4118SOL     OW23981   3.083   1.620   1.505
 4118SOL    HW123982   3.017   1.575   1.559
 4118SOL    HW223983   3.075   1.579   1.419
 4119SOL     OW23984   0.900   4.122   5.232
 4119SOL    HW123985   0.915   4.179   5.157
 4119SOL    HW223986   0.886   4.181   5.306
 4120SOL     OW23987   4.379   4.669   3.811
 4120SOL    HW123988   4.320   4.731   3.769
 4120SOL    HW223989   4.322   4.617   3.868
 4121SOL     OW23990   3.005   4.697   6.571
 4121SOL    HW123991   3.063   4.727   6.640
 4121SOL    HW223992   2.980   4.776   6.524
 4122SOL     OW23993   2.007   4.000   2.244
 4122SOL    HW123994   2.078   4.020   2.304
 4122SOL    HW223995   1.960   4.083   2.234
 4123SOL     OW23996   3.087   0.470   8.370
 4123SOL    HW123997   3.117   0.530   8.438
 4123SOL    HW223998   3.069   0.388   8.416
 4124SOL     OW23999   2.790   4.281   6.924
 4124SOL    HW124000   2.784   4.316   7.013
 4124SOL    HW224001   2.873   4.313   6.891
 4125SOL     OW24002   2.985   2.429  20.830
 4125SOL    HW124003   2.944   2.510  20.860
 4125SOL    HW224004   3.065   2.457  20.787
 4126SOL     OW24005   3.030   3.196   7.970
 4126SOL    HW124006   3.116   3.193   7.927
 4126SOL    HW224007   3.050   3.198   8.064
 4127SOL     OW24008   2.384   2.520  27.931
 4127SOL    HW124009   2.332   2.516  28.011
 4127SOL    HW224010   2.472   2.495  27.958
 4128SOL     OW24011   2.117   4.744  21.497
 4128SOL    HW124012   2.037   4.693  21.486
 4128SOL    HW224013   2.109   0.001  21.585
 4129SOL     OW24014   1.678   0.193  12.921
 4129SOL    HW124015   1.592   0.164  12.953
 4129SOL    HW224016   1.713   0.246  12.992
 4130SOL     OW24017   0.613   3.770   2.165
 4130SOL    HW124018   0.628   3.680   2.137
 4130SOL    HW224019   0.684   3.820   2.125
 4131SOL     OW24020   1.730   0.515  25.107
 4131SOL    HW124021   1.734   0.420  25.112
 4131SOL    HW224022   1.748   0.535  25.015
 4132SOL     OW24023   4.374   0.354  21.668
 4132SOL    HW124024   4.417   0.330  21.586
 4132SOL    HW224025   4.365   0.449  21.664
 4133SOL     OW24026   4.455   2.344  26.191
 4133SOL    HW124027   4.436   2.326  26.283
 4133SOL    HW224028   4.475   2.438  26.188
 4134SOL     OW24029   2.751   0.209  24.625
 4134SOL    HW124030   2.737   0.256  24.543
 4134SOL    HW224031   2.689   0.249  24.686
 4135SOL     OW24032   4.561   1.071   2.467
 4135SOL    HW124033   4.494   1.003   2.476
 4135SOL    HW224034   4.555   1.099   2.376
 4136SOL     OW24035   1.475   3.951   5.368
 4136SOL    HW124036   1.426   4.014   5.315
 4136SOL    HW224037   1.510   4.003   5.441
 4137SOL     OW24038   1.551   3.857   9.032
 4137SOL    HW124039   1.484   3.803   8.990
 4137SOL    HW224040   1.590   3.801   9.098
 4138SOL     OW24041   4.258   1.861  24.514
 4138SOL    HW124042   4.259   1.775  24.473
 4138SOL    HW224043   4.180   1.904  24.477
 4139SOL     OW24044   1.937   4.254  21.896
 4139SOL    HW124045   1.988   4.213  21.966
 4139SOL    HW224046   1.998   4.316  21.855
 4140SOL     OW24047   3.438   0.754   4.808
 4140SOL    HW124048   3.356   0.802   4.802
 4140SOL    HW224049   3.468   0.767   4.898
 4141SOL     OW24050   3.357   1.184  28.448
 4141SOL    HW124051   3.368   1.102  28.497
 4141SOL    HW224052   3.370   1.253  28.513
 4142SOL     OW24053   4.631   4.293   3.904
 4142SOL    HW124054   4.545   4.254   3.917
 4142SOL    HW224055   4.644   4.290   3.809
 4143SOL     OW24056   1.792   3.093   2.309
 4143SOL    HW124057   1.828   3.146   2.238
 4143SOL    HW224058   1.768   3.011   2.268
 4144SOL     OW24059   0.344   2.956  27.614
 4144SOL    HW124060   0.419   2.938  27.670
 4144SOL    HW224061   0.330   3.051  27.623
 4145SOL     OW24062   3.718   2.654  19.732
 4145SOL    HW124063   3.672   2.737  19.747
 4145SOL    HW224064   3.799   2.663  19.781
 4146SOL     OW24065   2.902   1.629   7.170
 4146SOL    HW124066   2.857   1.691   7.226
 4146SOL    HW224067   2.867   1.543   7.194
 4147SOL     OW24068   1.924   2.304   3.231
 4147SOL    HW124069   1.988   2.313   3.160
 4147SOL    HW224070   1.843   2.338   3.194
 4148SOL     OW24071   3.292   3.984  20.276
 4148SOL    HW124072   3.247   3.916  20.227
 4148SOL    HW224073   3.224   4.025  20.330
 4149SOL     OW24074   1.806   0.844   0.115
 4149SOL    HW124075   1.852   0.928   0.121
 4149SOL    HW224076   1.856   0.793   0.051
 4150SOL     OW24077   3.596   3.378  28.231
 4150SOL    HW124078   3.630   3.294  28.263
 4150SOL    HW224079   3.637   3.389  28.145
 4151SOL     OW24080   2.676   3.454  19.443
 4151SOL    HW124081   2.629   3.536  19.426
 4151SOL    HW224082   2.618   3.386  19.410
 4152SOL     OW24083   4.165   0.275  20.109
 4152SOL    HW124084   4.229   0.205  20.097
 4152SOL    HW224085   4.120   0.253  20.191
 4153SOL     OW24086   2.237   3.065  18.926
 4153SOL    HW124087   2.211   2.983  18.970
 4153SOL    HW224088   2.228   3.045  18.833
 4154SOL     OW24089   3.299   0.750   1.012
 4154SOL    HW124090   3.267   0.836   0.986
 4154SOL    HW224091   3.220   0.698   1.027
 4155SOL     OW24092   2.843   2.061   9.713
 4155SOL    HW124093   2.784   2.123   9.670
 4155SOL    HW224094   2.842   1.984   9.658
 4156SOL     OW24095   1.134   0.594   6.615
 4156SOL    HW124096   1.143   0.500   6.631
 4156SOL    HW224097   1.189   0.609   6.538
 4157SOL     OW24098   3.829   0.748   8.681
 4157SOL    HW124099   3.833   0.711   8.770
 4157SOL    HW224100   3.843   0.841   8.693
 4158SOL     OW24101   1.277   2.268   4.957
 4158SOL    HW124102   1.351   2.305   4.909
 4158SOL    HW224103   1.294   2.174   4.958
 4159SOL     OW24104   4.698   0.923   0.718
 4159SOL    HW124105   4.694   0.839   0.673
 4159SOL    HW224106   4.651   0.910   0.800
 4160SOL     OW24107   1.568   1.498   9.522
 4160SOL    HW124108   1.557   1.415   9.475
 4160SOL    HW224109   1.520   1.485   9.604
 4161SOL     OW24110   1.221   2.198  23.676
 4161SOL    HW124111   1.260   2.255  23.742
 4161SOL    HW224112   1.168   2.257  23.622
 4162SOL     OW24113   2.593   3.695  21.568
 4162SOL    HW124114   2.654   3.625  21.594
 4162SOL    HW224115   2.610   3.766  21.629
 4163SOL     OW24116   3.539   3.778   5.387
 4163SOL    HW124117   3.477   3.766   5.459
 4163SOL    HW224118   3.518   3.864   5.351
 4164SOL     OW24119   4.067   2.330  17.872
 4164SOL    HW124120   4.079   2.259  17.935
 4164SOL    HW224121   4.154   2.343  17.834
 4165SOL     OW24122   1.014   1.451   4.481
 4165SOL    HW124123   0.931   1.439   4.528
 4165SOL    HW224124   1.031   1.545   4.488
 4166SOL     OW24125   3.971   4.714   6.179
 4166SOL    HW124126   3.958   0.027   6.193
 4166SOL    HW224127   3.962   4.675   6.266
 4167SOL     OW24128   4.721   2.764  28.148
 4167SOL    HW124129   4.679   2.842  28.112
 4167SOL    HW224130   4.650   2.717  28.192
 4168SOL     OW24131   1.747   1.181   5.979
 4168SOL    HW124132   1.656   1.200   5.959
 4168SOL    HW224133   1.757   1.088   5.964
 4169SOL     OW24134   1.114   1.963  23.231
 4169SOL    HW124135   1.067   1.897  23.180
 4169SOL    HW224136   1.068   1.968  23.314
 4170SOL     OW24137   4.155   3.810  21.837
 4170SOL    HW124138   4.183   3.797  21.928
 4170SOL    HW224139   4.236   3.808  21.787
 4171SOL     OW24140   3.919   0.963   8.329
 4171SOL    HW124141   3.983   0.914   8.382
 4171SOL    HW224142   3.859   1.001   8.393
 4172SOL     OW24143   0.159   3.869  20.055
 4172SOL    HW124144   0.229   3.812  20.024
 4172SOL    HW224145   0.138   3.925  19.981
 4173SOL     OW24146   3.559   3.724   2.401
 4173SOL    HW124147   3.552   3.700   2.494
 4173SOL    HW224148   3.625   3.794   2.400
 4174SOL     OW24149   4.227   3.783  26.535
 4174SOL    HW124150   4.279   3.820  26.606
 4174SOL    HW224151   4.180   3.710  26.575
 4175SOL     OW24152   4.511   4.624   6.894
 4175SOL    HW124153   4.557   4.708   6.892
 4175SOL    HW224154   4.550   4.578   6.969
 4176SOL     OW24155   0.772   0.995  27.431
 4176SOL    HW124156   0.814   0.909  27.429
 4176SOL    HW224157   0.844   1.057  27.417
 4177SOL     OW24158   0.411   0.173   1.222
 4177SOL    HW124159   0.481   0.236   1.241
 4177SOL    HW224160   0.330   0.223   1.234
 4178SOL     OW24161   0.157   4.289  20.026
 4178SOL    HW124162   0.097   4.239  19.971
 4178SOL    HW224163   0.238   4.238  20.027
 4179SOL     OW24164   1.525   2.042   5.686
 4179SOL    HW124165   1.444   2.019   5.641
 4179SOL    HW224166   1.497   2.080   5.770
 4180SOL     OW24167   0.391   3.103   3.004
 4180SOL    HW124168   0.401   3.035   3.070
 4180SOL    HW224169   0.481   3.134   2.989
 4181SOL     OW24170   1.947   2.988  11.485
 4181SOL    HW124171   1.867   2.935  11.488
 4181SOL    HW224172   1.971   2.998  11.577
 4182SOL     OW24173   0.077   1.798  26.930
 4182SOL    HW124174   0.105   1.770  27.017
 4182SOL    HW224175   0.085   1.893  26.931
 4183SOL     OW24176   3.587   4.307   6.608
 4183SOL    HW124177   3.593   4.211   6.614
 4183SOL    HW224178   3.506   4.322   6.559
 4184SOL     OW24179   2.647   3.062   8.581
 4184SOL    HW124180   2.604   3.008   8.647
 4184SOL    HW224181   2.708   3.117   8.631
 4185SOL     OW24182   2.879   2.089  23.165
 4185SOL    HW124183   2.948   2.058  23.224
 4185SOL    HW224184   2.800   2.047  23.198
 4186SOL     OW24185   3.629   0.261  27.341
 4186SOL    HW124186   3.651   0.269  27.434
 4186SOL    HW224187   3.541   0.224  27.340
 4187SOL     OW24188   4.503   1.173   5.585
 4187SOL    HW124189   4.590   1.204   5.560
 4187SOL    HW224190   4.518   1.083   5.615
 4188SOL     OW24191   1.627   0.462   3.695
 4188SOL    HW124192   1.577   0.396   3.646
 4188SOL    HW224193   1.704   0.415   3.727
 4189SOL     OW24194   3.409   1.810   5.040
 4189SOL    HW124195   3.358   1.877   5.086
 4189SOL    HW224196   3.365   1.728   5.061
 4190SOL     OW24197   0.908   1.539   8.355
 4190SOL    HW124198   0.993   1.539   8.398
 4190SOL    HW224199   0.928   1.547   8.262
 4191SOL     OW24200   2.813   0.903   4.226
 4191SOL    HW124201   2.752   0.973   4.248
 4191SOL    HW224202   2.779   0.864   4.146
 4192SOL     OW24203   2.201   0.925  28.289
 4192SOL    HW124204   2.210   0.905  28.382
 4192SOL    HW224205   2.125   0.874  28.261
 4193SOL     OW24206   4.108   0.312   4.815
 4193SOL    HW124207   4.102   0.346   4.904
 4193SOL    HW224208   4.017   0.313   4.783
 4194SOL     OW24209   4.508   0.263  27.480
 4194SOL    HW124210   4.524   0.225  27.567
 4194SOL    HW224211   4.483   0.188  27.426
 4195SOL     OW24212   3.308   4.315  22.579
 4195SOL    HW124213   3.401   4.302  22.561
 4195SOL    HW224214   3.267   4.322  22.492
 4196SOL     OW24215   4.768   2.005   8.999
 4196SOL    HW124216   0.069   1.964   8.972
 4196SOL    HW224217   0.009   2.052   9.080
 4197SOL     OW24218   3.121   1.721   2.449
 4197SOL    HW124219   3.210   1.689   2.437
 4197SOL    HW224220   3.107   1.781   2.376
 4198SOL     OW24221   0.814   0.225  24.775
 4198SOL    HW124222   0.750   0.294  24.793
 4198SOL    HW224223   0.818   0.219  24.680
 4199SOL     OW24224   2.537   3.242   0.337
 4199SOL    HW124225   2.486   3.163   0.352
 4199SOL    HW224226   2.487   3.290   0.270
 4200SOL     OW24227   0.210   2.571  22.630
 4200SOL    HW124228   0.169   2.487  22.649
 4200SOL    HW224229   0.184   2.628  22.702
 4201SOL     OW24230   2.519   2.165   1.607
 4201SOL    HW124231   2.468   2.155   1.527
 4201SOL    HW224232   2.480   2.103   1.669
 4202SOL     OW24233   1.093   0.775  24.784
 4202SOL    HW124234   1.175   0.817  24.810
 4202SOL    HW224235   1.045   0.844  24.737
 4203SOL     OW24236   2.478   1.383  24.127
 4203SOL    HW124237   2.554   1.348  24.080
 4203SOL    HW224238   2.431   1.434  24.060
 4204SOL     OW24239   2.676   0.482  21.770
 4204SOL    HW124240   2.581   0.473  21.763
 4204SOL    HW224241   2.698   0.436  21.851
 4205SOL     OW24242   2.252   2.595  12.250
 4205SOL    HW124243   2.305   2.674  12.255
 4205SOL    HW224244   2.246   2.564  12.341
 4206SOL     OW24245   0.905   3.497  20.832
 4206SOL    HW124246   0.917   3.416  20.781
 4206SOL    HW224247   0.881   3.562  20.767
 4207SOL     OW24248   3.166   2.743  27.942
 4207SOL    HW124249   3.163   2.781  27.854
 4207SOL    HW224250   3.139   2.652  27.929
 4208SOL     OW24251   0.948   1.648  28.120
 4208SOL    HW124252   1.005   1.604  28.057
 4208SOL    HW224253   1.000   1.655  28.199
 4209SOL     OW24254   2.621   0.002  26.580
 4209SOL    HW124255   2.603   0.044  26.664
 4209SOL    HW224256   2.572   0.054  26.516
 4210SOL     OW24257   0.995   4.318  26.661
 4210SOL    HW124258   0.900   4.328  26.651
 4210SOL    HW224259   1.031   4.361  26.583
 4211SOL     OW24260   1.805   1.004  27.879
 4211SOL    HW124261   1.789   0.964  27.965
 4211SOL    HW224262   1.741   0.962  27.821
 4212SOL     OW24263   4.160   4.002  20.118
 4212SOL    HW124264   4.194   4.044  20.039
 4212SOL    HW224265   4.234   4.002  20.179
 4213SOL     OW24266   1.781   2.642  27.960
 4213SOL    HW124267   1.819   2.565  28.003
 4213SOL    HW224268   1.757   2.611  27.872
 4214SOL     OW24269   3.014   1.441  20.051
 4214SOL    HW124270   3.032   1.380  19.980
 4214SOL    HW224271   3.101   1.475  20.075
 4215SOL     OW24272   4.562   1.806  26.627
 4215SOL    HW124273   4.484   1.756  26.603
 4215SOL    HW224274   4.530   1.895  26.641
 4216SOL     OW24275   1.754   3.109  27.933
 4216SOL    HW124276   1.691   3.064  27.877
 4216SOL    HW224277   1.814   3.041  27.961
 4217SOL     OW24278   2.131   0.892  27.353
 4217SOL    HW124279   2.089   0.907  27.438
 4217SOL    HW224280   2.096   0.808  27.324
 4218SOL     OW24281   2.732   0.407  26.078
 4218SOL    HW124282   2.704   0.351  26.150
 4218SOL    HW224283   2.771   0.483  26.120
 4219SOL     OW24284   4.702   4.455  25.283
 4219SOL    HW124285   4.682   4.363  25.303
 4219SOL    HW224286   4.688   4.501  25.365
 4220SOL     OW24287   4.316   2.496   1.688
 4220SOL    HW124288   4.248   2.563   1.688
 4220SOL    HW224289   4.331   2.477   1.780
 4221SOL     OW24290   1.460   4.748   2.530
 4221SOL    HW124291   1.381   4.780   2.486
 4221SOL    HW224292   1.453   4.653   2.526
 4222SOL     OW24293   3.421   4.006  26.489
 4222SOL    HW124294   3.344   4.056  26.463
 4222SOL    HW224295   3.478   4.070  26.532
 4223SOL     OW24296   3.754   3.718   7.868
 4223SOL    HW124297   3.741   3.786   7.934
 4223SOL    HW224298   3.709   3.641   7.903
 4224SOL     OW24299   1.195   1.101  27.099
 4224SOL    HW124300   1.260   1.046  27.054
 4224SOL    HW224301   1.157   1.154  27.030
 4225SOL     OW24302   3.192   0.043  20.899
 4225SOL    HW124303   3.159   4.742  20.863
 4225SOL    HW224304   3.117   0.103  20.893
 4226SOL     OW24305   3.200   2.233   5.754
 4226SOL    HW124306   3.184   2.258   5.663
 4226SOL    HW224307   3.166   2.144   5.761
 4227SOL     OW24308   3.413   2.263  13.084
 4227SOL    HW124309   3.326   2.235  13.058
 4227SOL    HW224310   3.406   2.282  13.177
 4228SOL     OW24311   0.918   1.463  10.120
 4228SOL    HW124312   0.974   1.456  10.197
 4228SOL    HW224313   0.845   1.518  10.149
 4229SOL     OW24314   2.630   1.133   9.762
 4229SOL    HW124315   2.563   1.096   9.705
 4229SOL    HW224316   2.707   1.078   9.747
 4230SOL     OW24317   2.247   3.963   7.097
 4230SOL    HW124318   2.156   3.967   7.066
 4230SOL    HW224319   2.297   4.006   7.028
 4231SOL     OW24320   3.419   3.105   7.265
 4231SOL    HW124321   3.401   3.015   7.293
 4231SOL    HW224322   3.435   3.153   7.346
 4232SOL     OW24323   1.074   0.626   8.591
 4232SOL    HW124324   1.107   0.536   8.599
 4232SOL    HW224325   1.138   0.670   8.536
 4233SOL     OW24326   3.872   2.924   7.958
 4233SOL    HW124327   3.906   2.986   8.022
 4233SOL    HW224328   3.937   2.854   7.956
 4234SOL     OW24329   1.183   1.486  20.745
 4234SOL    HW124330   1.259   1.446  20.702
 4234SOL    HW224331   1.171   1.569  20.698
 4235SOL     OW24332   0.652   1.959  24.072
 4235SOL    HW124333   0.600   2.010  24.009
 4235SOL    HW224334   0.588   1.917  24.129
 4236SOL     OW24335   0.677   4.448  26.651
 4236SOL    HW124336   0.628   4.433  26.569
 4236SOL    HW224337   0.697   4.541  26.650
 4237SOL     OW24338   1.574   4.736  19.810
 4237SOL    HW124339   1.621   4.753  19.728
 4237SOL    HW224340   1.497   0.012  19.805
 4238SOL     OW24341   0.110   4.568   4.955
 4238SOL    HW124342   0.059   4.631   4.905
 4238SOL    HW224343   0.094   4.591   5.046
 4239SOL     OW24344   0.743   2.992  23.380
 4239SOL    HW124345   0.716   3.040  23.302
 4239SOL    HW224346   0.823   2.947  23.353
 4240SOL     OW24347   4.755   1.471   7.092
 4240SOL    HW124348   4.769   1.445   7.001
 4240SOL    HW224349   0.057   1.453   7.135
 4241SOL     OW24350   2.288   0.944  24.757
 4241SOL    HW124351   2.235   0.909  24.685
 4241SOL    HW224352   2.224   0.984  24.817
 4242SOL     OW24353   3.227   3.085   1.416
 4242SOL    HW124354   3.227   3.165   1.363
 4242SOL    HW224355   3.320   3.063   1.426
 4243SOL     OW24356   0.137   1.597  24.720
 4243SOL    HW124357   0.216   1.630  24.763
 4243SOL    HW224358   0.169   1.533  24.656
 4244SOL     OW24359   2.535   3.013   8.329
 4244SOL    HW124360   2.532   3.097   8.283
 4244SOL    HW224361   2.592   3.029   8.404
 4245SOL     OW24362   1.076   0.317   5.731
 4245SOL    HW124363   1.050   0.370   5.806
 4245SOL    HW224364   1.059   0.227   5.757
 4246SOL     OW24365   4.207   4.458   1.123
 4246SOL    HW124366   4.227   4.552   1.122
 4246SOL    HW224367   4.264   4.421   1.190
 4247SOL     OW24368   4.151   2.447   1.115
 4247SOL    HW124369   4.224   2.391   1.142
 4247SOL    HW224370   4.127   2.415   1.028
 4248SOL     OW24371   2.792   2.887   3.597
 4248SOL    HW124372   2.809   2.963   3.653
 4248SOL    HW224373   2.878   2.852   3.576
 4249SOL     OW24374   2.335   1.734  25.520
 4249SOL    HW124375   2.321   1.813  25.572
 4249SOL    HW224376   2.378   1.673  25.581
 4250SOL     OW24377   0.351   2.231  23.841
 4250SOL    HW124378   0.308   2.264  23.920
 4250SOL    HW224379   0.305   2.149  23.821
 4251SOL     OW24380   2.747   3.166   2.136
 4251SOL    HW124381   2.769   3.153   2.044
 4251SOL    HW224382   2.813   3.115   2.184
 4252SOL     OW24383   1.627   0.860   8.087
 4252SOL    HW124384   1.574   0.910   8.025
 4252SOL    HW224385   1.599   0.891   8.173
 4253SOL     OW24386   0.896   1.790   0.878
 4253SOL    HW124387   0.804   1.787   0.904
 4253SOL    HW224388   0.896   1.771   0.785
 4254SOL     OW24389   3.956   0.065  24.450
 4254SOL    HW124390   4.045   0.078  24.483
 4254SOL    HW224391   3.960   4.762  24.403
 4255SOL     OW24392   3.798   2.510  20.180
 4255SOL    HW124393   3.892   2.502  20.164
 4255SOL    HW224394   3.759   2.508  20.092
 4256SOL     OW24395   4.593   3.074   5.485
 4256SOL    HW124396   4.562   3.164   5.483
 4256SOL    HW224397   4.513   3.021   5.484
 4257SOL     OW24398   4.679   0.792   6.731
 4257SOL    HW124399   4.585   0.799   6.712
 4257SOL    HW224400   4.707   0.882   6.746
 4258SOL     OW24401   3.819   0.454   6.103
 4258SOL    HW124402   3.790   0.498   6.024
 4258SOL    HW224403   3.770   0.371   6.105
 4259SOL     OW24404   3.976   1.017  19.301
 4259SOL    HW124405   3.941   1.044  19.216
 4259SOL    HW224406   3.989   1.099  19.349
 4260SOL     OW24407   4.075   4.207  23.143
 4260SOL    HW124408   4.003   4.189  23.203
 4260SOL    HW224409   4.038   4.267  23.078
 4261SOL     OW24410   1.816   2.188  22.040
 4261SOL    HW124411   1.824   2.190  22.135
 4261SOL    HW224412   1.774   2.104  22.021
 4262SOL     OW24413   1.079   3.564  28.079
 4262SOL    HW124414   1.092   3.470  28.064
 4262SOL    HW224415   1.054   3.570  28.171
 4263SOL     OW24416   3.555   3.919  22.003
 4263SOL    HW124417   3.496   3.852  21.967
 4263SOL    HW224418   3.517   4.002  21.973
 4264SOL     OW24419   3.967   0.339  24.226
 4264SOL    HW124420   4.000   0.255  24.258
 4264SOL    HW224421   3.986   0.338  24.132
 4265SOL     OW24422   1.552   2.356  21.437
 4265SOL    HW124423   1.545   2.262  21.422
 4265SOL    HW224424   1.646   2.375  21.430
 4266SOL     OW24425   3.285   1.424   3.374
 4266SOL    HW124426   3.266   1.505   3.422
 4266SOL    HW224427   3.363   1.389   3.417
 4267SOL     OW24428   4.597   2.267   2.388
 4267SOL    HW124429   4.549   2.189   2.359
 4267SOL    HW224430   4.538   2.307   2.453
 4268SOL     OW24431   2.709   0.859  28.147
 4268SOL    HW124432   2.631   0.914  28.143
 4268SOL    HW224433   2.731   0.843  28.055
 4269SOL     OW24434   1.972   4.471  22.836
 4269SOL    HW124435   1.997   4.402  22.897
 4269SOL    HW224436   1.913   4.428  22.774
 4270SOL     OW24437   2.299   1.013  21.172
 4270SOL    HW124438   2.386   1.049  21.157
 4270SOL    HW224439   2.239   1.080  21.138
 4271SOL     OW24440   2.202   3.942  23.452
 4271SOL    HW124441   2.159   3.935  23.537
 4271SOL    HW224442   2.276   3.882  23.457
 4272SOL     OW24443   1.752   2.887  22.464
 4272SOL    HW124444   1.719   2.849  22.383
 4272SOL    HW224445   1.678   2.882  22.524
 4273SOL     OW24446   0.611   2.211   6.077
 4273SOL    HW124447   0.699   2.247   6.086
 4273SOL    HW224448   0.561   2.279   6.032
 4274SOL     OW24449   4.045   1.012  28.291
 4274SOL    HW124450   4.112   1.029  28.224
 4274SOL    HW224451   3.962   1.019  28.244
 4275SOL     OW24452   3.773   1.450  22.877
 4275SOL    HW124453   3.691   1.492  22.851
 4275SOL    HW224454   3.841   1.514  22.855
 4276SOL     OW24455   1.947   1.572  25.162
 4276SOL    HW124456   2.014   1.640  25.166
 4276SOL    HW224457   1.978   1.511  25.095
 4277SOL     OW24458   0.902   2.695   6.597
 4277SOL    HW124459   0.966   2.702   6.668
 4277SOL    HW224460   0.955   2.701   6.517
 4278SOL     OW24461   1.786   3.715   3.707
 4278SOL    HW124462   1.754   3.795   3.749
 4278SOL    HW224463   1.717   3.691   3.646
 4279SOL     OW24464   0.723   4.170  11.798
 4279SOL    HW124465   0.639   4.155  11.843
 4279SOL    HW224466   0.771   4.088  11.811
 4280SOL     OW24467   0.136   1.596  26.091
 4280SOL    HW124468   0.115   1.643  26.172
 4280SOL    HW224469   0.145   1.664  26.025
 4281SOL     OW24470   1.793   3.565  20.261
 4281SOL    HW124471   1.795   3.530  20.350
 4281SOL    HW224472   1.849   3.507  20.211
 4282SOL     OW24473   2.208   1.070   8.994
 4282SOL    HW124474   2.219   0.976   9.011
 4282SOL    HW224475   2.122   1.077   8.953
 4283SOL     OW24476   4.257   2.972   3.545
 4283SOL    HW124477   4.238   2.965   3.638
 4283SOL    HW224478   4.351   2.993   3.541
 4284SOL     OW24479   3.590   1.247   2.082
 4284SOL    HW124480   3.568   1.265   1.991
 4284SOL    HW224481   3.507   1.256   2.129
 4285SOL     OW24482   2.257   1.581  24.823
 4285SOL    HW124483   2.275   1.671  24.851
 4285SOL    HW224484   2.337   1.533  24.842
 4286SOL     OW24485   4.622   1.704  10.345
 4286SOL    HW124486   4.535   1.732  10.372
 4286SOL    HW224487   4.615   1.609  10.333
 4287SOL     OW24488   1.643   4.374   9.650
 4287SOL    HW124489   1.627   4.422   9.731
 4287SOL    HW224490   1.637   4.281   9.675
 4288SOL     OW24491   4.117   1.297  25.153
 4288SOL    HW124492   4.071   1.310  25.070
 4288SOL    HW224493   4.075   1.220  25.191
 4289SOL     OW24494   3.629   1.089   5.936
 4289SOL    HW124495   3.567   1.153   5.972
 4289SOL    HW224496   3.694   1.077   6.004
 4290SOL     OW24497   4.687   3.803   1.028
 4290SOL    HW124498   4.743   3.800   1.105
 4290SOL    HW224499   4.736   3.757   0.960
 4291SOL     OW24500   4.412   2.767  26.654
 4291SOL    HW124501   4.425   2.757  26.749
 4291SOL    HW224502   4.421   2.861  26.638
 4292SOL     OW24503   2.627   2.537   8.085
 4292SOL    HW124504   2.593   2.478   8.018
 4292SOL    HW224505   2.582   2.620   8.069
 4293SOL     OW24506   0.204   2.383   2.661
 4293SOL    HW124507   0.180   2.385   2.568
 4293SOL    HW224508   0.228   2.291   2.677
 4294SOL     OW24509   0.847   0.309  24.489
 4294SOL    HW124510   0.848   0.252  24.412
 4294SOL    HW224511   0.933   0.351  24.490
 4295SOL     OW24512   0.045   3.567  23.613
 4295SOL    HW124513   4.761   3.631  23.586
 4295SOL    HW224514   4.778   3.484  23.618
 4296SOL     OW24515   4.379   3.261  25.233
 4296SOL    HW124516   4.470   3.289  25.224
 4296SOL    HW224517   4.352   3.238  25.144
 4297SOL     OW24518   4.164   0.320  27.889
 4297SOL    HW124519   4.146   0.342  27.981
 4297SOL    HW224520   4.231   0.382  27.862
 4298SOL     OW24521   1.043   3.664  21.694
 4298SOL    HW124522   1.073   3.725  21.761
 4298SOL    HW224523   1.086   3.582  21.715
 4299SOL     OW24524   0.378   0.931  21.323
 4299SOL    HW124525   0.309   0.997  21.325
 4299SOL    HW224526   0.406   0.929  21.231
 4300SOL     OW24527   3.107   2.512   3.528
 4300SOL    HW124528   3.189   2.552   3.558
 4300SOL    HW224529   3.040   2.578   3.547
 4301SOL     OW24530   0.994   1.335  25.634
 4301SOL    HW124531   0.953   1.350  25.549
 4301SOL    HW224532   0.921   1.332  25.696
 4302SOL     OW24533   4.293   3.445   5.534
 4302SOL    HW124534   4.326   3.534   5.533
 4302SOL    HW224535   4.369   3.390   5.513
 4303SOL     OW24536   0.123   3.040  20.002
 4303SOL    HW124537   0.082   2.964  20.043
 4303SOL    HW224538   0.103   3.032  19.909
 4304SOL     OW24539   0.840   2.473  27.447
 4304SOL    HW124540   0.840   2.569  27.440
 4304SOL    HW224541   0.770   2.445  27.387
 4305SOL     OW24542   1.748   4.185  23.967
 4305SOL    HW124543   1.806   4.258  23.991
 4305SOL    HW224544   1.692   4.173  24.044
 4306SOL     OW24545   1.123   0.034   9.297
 4306SOL    HW124546   1.053   0.038   9.232
 4306SOL    HW224547   1.199   0.002   9.249
 4307SOL     OW24548   1.514   3.337  22.490
 4307SOL    HW124549   1.507   3.363  22.582
 4307SOL    HW224550   1.423   3.335  22.459
 4308SOL     OW24551   0.594   0.535  20.486
 4308SOL    HW124552   0.593   0.571  20.575
 4308SOL    HW224553   0.591   0.440  20.499
 4309SOL     OW24554   2.289   1.546  22.633
 4309SOL    HW124555   2.301   1.588  22.719
 4309SOL    HW224556   2.209   1.585  22.598
 4310SOL     OW24557   2.013   2.206  27.898
 4310SOL    HW124558   2.052   2.226  27.813
 4310SOL    HW224559   2.012   2.111  27.902
 4311SOL     OW24560   0.009   1.871  23.508
 4311SOL    HW124561   0.088   1.876  23.453
 4311SOL    HW224562   4.758   1.782  23.496
 4312SOL     OW24563   3.365   1.880   1.175
 4312SOL    HW124564   3.270   1.887   1.169
 4312SOL    HW224565   3.380   1.802   1.227
 4313SOL     OW24566   4.065   1.830  22.308
 4313SOL    HW124567   4.102   1.843  22.395
 4313SOL    HW224568   4.118   1.885  22.250
 4314SOL     OW24569   4.569   0.025   6.191
 4314SOL    HW124570   4.613   4.747   6.253
 4314SOL    HW224571   4.593   0.113   6.220
 4315SOL     OW24572   0.810   0.230  10.522
 4315SOL    HW124573   0.901   0.200  10.528
 4315SOL    HW224574   0.778   0.228  10.612
 4316SOL     OW24575   0.821   3.328  26.648
 4316SOL    HW124576   0.905   3.349  26.607
 4316SOL    HW224577   0.827   3.235  26.669
 4317SOL     OW24578   1.175   2.368  24.736
 4317SOL    HW124579   1.131   2.317  24.804
 4317SOL    HW224580   1.265   2.337  24.738
 4318SOL     OW24581   1.603   0.559   9.819
 4318SOL    HW124582   1.538   0.626   9.796
 4318SOL    HW224583   1.583   0.485   9.762
 4319SOL     OW24584   2.147   3.842   0.746
 4319SOL    HW124585   2.086   3.899   0.793
 4319SOL    HW224586   2.219   3.827   0.808
 4320SOL     OW24587   3.957   1.120   8.098
 4320SOL    HW124588   3.925   1.069   8.172
 4320SOL    HW224589   3.964   1.209   8.130
 4321SOL     OW24590   3.576   0.729   4.407
 4321SOL    HW124591   3.591   0.643   4.368
 4321SOL    HW224592   3.630   0.730   4.486
 4322SOL     OW24593   3.543   1.039  25.618
 4322SOL    HW124594   3.629   1.014  25.651
 4322SOL    HW224595   3.561   1.088  25.538
 4323SOL     OW24596   2.764   0.747  23.056
 4323SOL    HW124597   2.669   0.755  23.067
 4323SOL    HW224598   2.799   0.771  23.141
 4324SOL     OW24599   0.678   0.500  10.676
 4324SOL    HW124600   0.584   0.489  10.685
 4324SOL    HW224601   0.712   0.495  10.765
 4325SOL     OW24602   0.789   4.277  26.382
 4325SOL    HW124603   0.807   4.368  26.407
 4325SOL    HW224604   0.695   4.276  26.362
 4326SOL     OW24605   1.181   3.662   3.447
 4326SOL    HW124606   1.248   3.593   3.445
 4326SOL    HW224607   1.178   3.693   3.357
 4327SOL     OW24608   0.892   0.318   6.653
 4327SOL    HW124609   0.980   0.319   6.689
 4327SOL    HW224610   0.836   0.351   6.724
 4328SOL     OW24611   3.527   1.370   2.448
 4328SOL    HW124612   3.510   1.372   2.542
 4328SOL    HW224613   3.504   1.281   2.421
 4329SOL     OW24614   4.222   3.606   3.015
 4329SOL    HW124615   4.161   3.664   2.969
 4329SOL    HW224616   4.246   3.540   2.951
 4330SOL     OW24617   0.927   4.723   5.039
 4330SOL    HW124618   0.899   4.723   4.948
 4330SOL    HW224619   0.847   4.743   5.089
 4331SOL     OW24620   2.233   1.653  24.550
 4331SOL    HW124621   2.142   1.681  24.545
 4331SOL    HW224622   2.247   1.634  24.643
 4332SOL     OW24623   2.951   2.072  24.894
 4332SOL    HW124624   2.932   2.089  24.986
 4332SOL    HW224625   3.025   2.012  24.895
 4333SOL     OW24626   3.817   2.836  23.052
 4333SOL    HW124627   3.768   2.891  22.990
 4333SOL    HW224628   3.750   2.787  23.099
 4334SOL     OW24629   3.426   2.661  28.174
 4334SOL    HW124630   3.475   2.732  28.131
 4334SOL    HW224631   3.417   2.595  28.106
 4335SOL     OW24632   2.317   2.630  24.508
 4335SOL    HW124633   2.392   2.607  24.453
 4335SOL    HW224634   2.260   2.553  24.504
 4336SOL     OW24635   2.561   2.606  24.843
 4336SOL    HW124636   2.561   2.702  24.850
 4336SOL    HW224637   2.472   2.581  24.868
 4337SOL     OW24638   0.400   3.558  25.511
 4337SOL    HW124639   0.318   3.512  25.533
 4337SOL    HW224640   0.433   3.589  25.596
 4338SOL     OW24641   3.603   0.664  20.408
 4338SOL    HW124642   3.610   0.697  20.319
 4338SOL    HW224643   3.686   0.687  20.449
 4339SOL     OW24644   3.742   3.626   3.330
 4339SOL    HW124645   3.823   3.579   3.350
 4339SOL    HW224646   3.759   3.716   3.360
 4340SOL     OW24647   2.016   3.720   8.792
 4340SOL    HW124648   1.937   3.707   8.845
 4340SOL    HW224649   2.019   3.642   8.736
 4341SOL     OW24650   1.760   3.653  23.897
 4341SOL    HW124651   1.721   3.653  23.984
 4341SOL    HW224652   1.798   3.741  23.888
 4342SOL     OW24653   1.175   4.304   2.926
 4342SOL    HW124654   1.242   4.325   2.990
 4342SOL    HW224655   1.121   4.383   2.921
 4343SOL     OW24656   2.032   2.895   1.058
 4343SOL    HW124657   2.066   2.962   0.998
 4343SOL    HW224658   1.985   2.944   1.125
 4344SOL     OW24659   4.472   4.579  23.570
 4344SOL    HW124660   4.537   4.647  23.552
 4344SOL    HW224661   4.440   4.598  23.658
 4345SOL     OW24662   4.702   0.008  23.677
 4345SOL    HW124663   4.754   4.773  23.755
 4345SOL    HW224664   4.620   0.045  23.711
 4346SOL     OW24665   2.820   1.450   6.393
 4346SOL    HW124666   2.759   1.382   6.364
 4346SOL    HW224667   2.818   1.445   6.488
 4347SOL     OW24668   2.534   3.215   7.872
 4347SOL    HW124669   2.487   3.272   7.933
 4347SOL    HW224670   2.534   3.129   7.914
 4348SOL     OW24671   2.143   4.757  27.779
 4348SOL    HW124672   2.150   4.770  27.873
 4348SOL    HW224673   2.081   4.685  27.769
 4349SOL     OW24674   2.805   3.009   0.235
 4349SOL    HW124675   2.773   3.003   0.145
 4349SOL    HW224676   2.750   2.948   0.285
 4350SOL     OW24677   2.939   1.142  25.505
 4350SOL    HW124678   2.943   1.198  25.583
 4350SOL    HW224679   2.968   1.199  25.434
 4351SOL     OW24680   4.513   1.565   7.035
 4351SOL    HW124681   4.602   1.538   7.053
 4351SOL    HW224682   4.480   1.598   7.119
 4352SOL     OW24683   2.995   3.015  11.596
 4352SOL    HW124684   3.039   2.954  11.655
 4352SOL    HW224685   3.059   3.085  11.581
 4353SOL     OW24686   1.461   2.086   0.784
 4353SOL    HW124687   1.441   2.026   0.712
 4353SOL    HW224688   1.376   2.108   0.822
 4354SOL     OW24689   2.613   4.083  10.851
 4354SOL    HW124690   2.599   4.142  10.926
 4354SOL    HW224691   2.690   4.032  10.875
 4355SOL     OW24692   1.871   1.244  25.359
 4355SOL    HW124693   1.875   1.337  25.382
 4355SOL    HW224694   1.794   1.211  25.404
 4356SOL     OW24695   4.384   1.194  28.517
 4356SOL    HW124696   4.370   1.105   0.028
 4356SOL    HW224697   4.300   1.219  28.479
 4357SOL     OW24698   4.108   3.206  17.367
 4357SOL    HW124699   4.107   3.274  17.434
 4357SOL    HW224700   4.084   3.250  17.286
 4358SOL     OW24701   1.422   4.781  11.291
 4358SOL    HW124702   1.454   4.716  11.228
 4358SOL    HW224703   1.483   0.073  11.283
 4359SOL     OW24704   1.527   1.412  11.482
 4359SOL    HW124705   1.532   1.504  11.456
 4359SOL    HW224706   1.455   1.408  11.545
 4360SOL     OW24707   0.512   3.945  25.181
 4360SOL    HW124708   0.439   3.909  25.232
 4360SOL    HW224709   0.486   4.034  25.160
 4361SOL     OW24710   0.089   1.801  24.902
 4361SOL    HW124711   0.107   1.738  24.832
 4361SOL    HW224712   4.776   1.793  24.917
 4362SOL     OW24713   4.018   0.797   0.899
 4362SOL    HW124714   4.005   0.734   0.827
 4362SOL    HW224715   3.936   0.847   0.901
 4363SOL     OW24716   3.531   2.583  18.181
 4363SOL    HW124717   3.497   2.665  18.216
 4363SOL    HW224718   3.521   2.591  18.086
 4364SOL     OW24719   2.770   4.381  21.524
 4364SOL    HW124720   2.828   4.456  21.537
 4364SOL    HW224721   2.683   4.414  21.548
 4365SOL     OW24722   3.551   1.714   6.160
 4365SOL    HW124723   3.636   1.729   6.200
 4365SOL    HW224724   3.571   1.667   6.079
 4366SOL     OW24725   3.556   2.014   5.767
 4366SOL    HW124726   3.532   1.934   5.719
 4366SOL    HW224727   3.607   2.066   5.705
 4367SOL     OW24728   2.889   1.980  21.699
 4367SOL    HW124729   2.933   1.900  21.671
 4367SOL    HW224730   2.806   1.979  21.653
 4368SOL     OW24731   1.700   0.043   1.438
 4368SOL    HW124732   1.684   0.115   1.378
 4368SOL    HW224733   1.680   0.078   1.524
 4369SOL     OW24734   2.591   0.143   2.281
 4369SOL    HW124735   2.634   0.075   2.334
 4369SOL    HW224736   2.532   0.187   2.342
 4370SOL     OW24737   4.404   3.440  10.447
 4370SOL    HW124738   4.395   3.515  10.507
 4370SOL    HW224739   4.322   3.437  10.400
 4371SOL     OW24740   2.151   3.401   0.460
 4371SOL    HW124741   2.094   3.477   0.451
 4371SOL    HW224742   2.126   3.344   0.387
 4372SOL     OW24743   0.758   0.177  10.058
 4372SOL    HW124744   0.786   0.086  10.045
 4372SOL    HW224745   0.745   0.184  10.153
 4373SOL     OW24746   4.691   3.758   3.482
 4373SOL    HW124747   4.662   3.701   3.411
 4373SOL    HW224748   4.620   3.756   3.545
 4374SOL     OW24749   4.056   3.669   6.969
 4374SOL    HW124750   3.996   3.596   6.984
 4374SOL    HW224751   4.037   3.698   6.880
 4375SOL     OW24752   2.064   2.294   2.980
 4375SOL    HW124753   2.024   2.209   2.964
 4375SOL    HW224754   2.156   2.282   2.957
 4376SOL     OW24755   0.389   2.541  24.570
 4376SOL    HW124756   0.422   2.468  24.623
 4376SOL    HW224757   0.452   2.549  24.499
 4377SOL     OW24758   2.812   4.721   9.146
 4377SOL    HW124759   2.775   4.746   9.230
 4377SOL    HW224760   2.739   4.681   9.098
 4378SOL     OW24761   2.043   2.600   7.469
 4378SOL    HW124762   2.027   2.675   7.412
 4378SOL    HW224763   2.137   2.584   7.463
 4379SOL     OW24764   3.833   3.611  16.511
 4379SOL    HW124765   3.837   3.691  16.458
 4379SOL    HW224766   3.762   3.560  16.472
 4380SOL     OW24767   3.739   0.276   1.656
 4380SOL    HW124768   3.680   0.295   1.729
 4380SOL    HW224769   3.827   0.288   1.692
 4381SOL     OW24770   4.067   3.987  20.693
 4381SOL    HW124771   4.024   3.914  20.648
 4381SOL    HW224772   4.019   4.064  20.665
 4382SOL     OW24773   4.353   0.712   1.171
 4382SOL    HW124774   4.313   0.667   1.245
 4382SOL    HW224775   4.293   0.783   1.150
 4383SOL     OW24776   3.579   3.222   5.034
 4383SOL    HW124777   3.545   3.255   5.118
 4383SOL    HW224778   3.592   3.128   5.049
 4384SOL     OW24779   1.383   2.956   8.235
 4384SOL    HW124780   1.388   2.940   8.141
 4384SOL    HW224781   1.472   2.981   8.260
 4385SOL     OW24782   3.980   0.286  11.880
 4385SOL    HW124783   4.010   0.218  11.820
 4385SOL    HW224784   4.022   0.366  11.848
 4386SOL     OW24785   0.527   1.450   4.314
 4386SOL    HW124786   0.490   1.504   4.385
 4386SOL    HW224787   0.468   1.466   4.240
 4387SOL     OW24788   0.793   0.749  22.383
 4387SOL    HW124789   0.714   0.736  22.331
 4387SOL    HW224790   0.790   0.678  22.448
 4388SOL     OW24791   4.695   0.961  20.572
 4388SOL    HW124792   0.006   0.978  20.594
 4388SOL    HW224793   4.699   0.918  20.487
 4389SOL     OW24794   3.437   2.446  20.588
 4389SOL    HW124795   3.464   2.465  20.498
 4389SOL    HW224796   3.510   2.396  20.625
 4390SOL     OW24797   2.028   4.054   2.990
 4390SOL    HW124798   2.078   4.022   3.065
 4390SOL    HW224799   2.091   4.102   2.937
 4391SOL     OW24800   0.358   1.917   1.468
 4391SOL    HW124801   0.419   1.930   1.396
 4391SOL    HW224802   0.290   1.983   1.455
 4392SOL     OW24803   4.382   2.807  11.077
 4392SOL    HW124804   4.312   2.784  11.139
 4392SOL    HW224805   4.439   2.867  11.126
 4393SOL     OW24806   1.440   1.681  24.478
 4393SOL    HW124807   1.459   1.772  24.503
 4393SOL    HW224808   1.375   1.652  24.542
 4394SOL     OW24809   1.386   2.664  27.660
 4394SOL    HW124810   1.405   2.647  27.752
 4394SOL    HW224811   1.291   2.655  27.652
 4395SOL     OW24812   3.571   2.811   6.603
 4395SOL    HW124813   3.633   2.792   6.533
 4395SOL    HW224814   3.595   2.750   6.673
 4396SOL     OW24815   1.042   3.963  27.890
 4396SOL    HW124816   1.106   3.957  27.819
 4396SOL    HW224817   1.064   4.044  27.936
 4397SOL     OW24818   1.075   1.395   4.941
 4397SOL    HW124819   1.084   1.350   5.025
 4397SOL    HW224820   1.029   1.333   4.885
 4398SOL     OW24821   0.029   3.848  27.907
 4398SOL    HW124822   0.042   3.766  27.953
 4398SOL    HW224823   0.045   3.916  27.973
 4399SOL     OW24824   4.069   4.650  21.400
 4399SOL    HW124825   4.029   4.726  21.444
 4399SOL    HW224826   4.103   4.686  21.318
 4400SOL     OW24827   1.290   2.922  28.509
 4400SOL    HW124828   1.351   2.992  28.486
 4400SOL    HW224829   1.337   2.871   0.052
 4401SOL     OW24830   2.905   3.332   4.195
 4401SOL    HW124831   2.995   3.318   4.227
 4401SOL    HW224832   2.914   3.403   4.131
 4402SOL     OW24833   2.891   2.385  23.760
 4402SOL    HW124834   2.975   2.371  23.804
 4402SOL    HW224835   2.850   2.457  23.808
 4403SOL     OW24836   3.410   1.145   3.687
 4403SOL    HW124837   3.474   1.105   3.746
 4403SOL    HW224838   3.455   1.222   3.652
 4404SOL     OW24839   1.550   3.293   8.285
 4404SOL    HW124840   1.511   3.300   8.198
 4404SOL    HW224841   1.575   3.201   8.293
 4405SOL     OW24842   0.798   4.018   4.471
 4405SOL    HW124843   0.797   3.979   4.558
 4405SOL    HW224844   0.777   3.946   4.411
 4406SOL     OW24845   4.607   0.335  24.388
 4406SOL    HW124846   4.554   0.413  24.372
 4406SOL    HW224847   4.574   0.300  24.470
 4407SOL     OW24848   0.345   2.628  11.488
 4407SOL    HW124849   0.287   2.552  11.484
 4407SOL    HW224850   0.319   2.674  11.568
 4408SOL     OW24851   1.030   2.327   3.294
 4408SOL    HW124852   0.942   2.346   3.261
 4408SOL    HW224853   1.027   2.235   3.319
 4409SOL     OW24854   0.450   4.389   8.211
 4409SOL    HW124855   0.384   4.321   8.226
 4409SOL    HW224856   0.486   4.368   8.125
 4410SOL     OW24857   3.712   3.608  27.313
 4410SOL    HW124858   3.651   3.555  27.364
 4410SOL    HW224859   3.663   3.634  27.235
 4411SOL     OW24860   3.963   0.439  24.623
 4411SOL    HW124861   3.880   0.401  24.593
 4411SOL    HW224862   3.963   0.528  24.589
 4412SOL     OW24863   0.738   2.265   7.802
 4412SOL    HW124864   0.729   2.359   7.817
 4412SOL    HW224865   0.791   2.234   7.874
 4413SOL     OW24866   1.829   1.560  27.937
 4413SOL    HW124867   1.805   1.468  27.942
 4413SOL    HW224868   1.922   1.562  27.960
 4414SOL     OW24869   2.949   0.029   1.379
 4414SOL    HW124870   2.995   0.110   1.399
 4414SOL    HW224871   2.866   0.058   1.340
 4415SOL     OW24872   0.019   0.108  25.088
 4415SOL    HW124873   0.013   0.129  24.995
 4415SOL    HW224874   0.006   0.191  25.134
 4416SOL     OW24875   3.939   0.149  23.335
 4416SOL    HW124876   3.938   0.216  23.403
 4416SOL    HW224877   3.848   0.118  23.331
 4417SOL     OW24878   2.433   4.384   0.781
 4417SOL    HW124879   2.381   4.363   0.858
 4417SOL    HW224880   2.518   4.412   0.816
 4418SOL     OW24881   3.937   0.060   8.885
 4418SOL    HW124882   4.002   0.117   8.925
 4418SOL    HW224883   3.867   0.053   8.950
 4419SOL     OW24884   0.466   1.406   1.238
 4419SOL    HW124885   0.540   1.468   1.230
 4419SOL    HW224886   0.507   1.322   1.256
 4420SOL     OW24887   3.427   0.852   5.466
 4420SOL    HW124888   3.427   0.937   5.510
 4420SOL    HW224889   3.479   0.866   5.387
 4421SOL     OW24890   0.299   2.952   6.343
 4421SOL    HW124891   0.304   2.939   6.437
 4421SOL    HW224892   0.295   2.864   6.306
 4422SOL     OW24893   3.199   3.998  25.624
 4422SOL    HW124894   3.208   3.915  25.670
 4422SOL    HW224895   3.110   4.026  25.642
 4423SOL     OW24896   3.491   3.799  22.981
 4423SOL    HW124897   3.569   3.743  22.977
 4423SOL    HW224898   3.467   3.814  22.890
 4424SOL     OW24899   3.023   1.909  19.027
 4424SOL    HW124900   2.947   1.925  18.970
 4424SOL    HW224901   3.096   1.951  18.982
 4425SOL     OW24902   3.592   2.427  17.345
 4425SOL    HW124903   3.607   2.407  17.252
 4425SOL    HW224904   3.643   2.506  17.361
 4426SOL     OW24905   2.115   4.611  24.917
 4426SOL    HW124906   2.141   4.653  24.998
 4426SOL    HW224907   2.160   4.661  24.848
 4427SOL     OW24908   4.439   2.483   3.775
 4427SOL    HW124909   4.389   2.563   3.757
 4427SOL    HW224910   4.510   2.512   3.833
 4428SOL     OW24911   4.307   2.491  21.446
 4428SOL    HW124912   4.342   2.420  21.392
 4428SOL    HW224913   4.365   2.565  21.431
 4429SOL     OW24914   4.446   0.636  26.537
 4429SOL    HW124915   4.364   0.666  26.575
 4429SOL    HW224916   4.432   0.645  26.442
 4430SOL     OW24917   3.142   3.152  21.847
 4430SOL    HW124918   3.163   3.170  21.756
 4430SOL    HW224919   3.083   3.223  21.873
 4431SOL     OW24920   0.558   4.733   4.834
 4431SOL    HW124921   0.539   4.640   4.821
 4431SOL    HW224922   0.630   4.734   4.896
 4432SOL     OW24923   0.846   1.305   0.398
 4432SOL    HW124924   0.935   1.334   0.419
 4432SOL    HW224925   0.832   1.334   0.308
 4433SOL     OW24926   3.273   1.875  12.590
 4433SOL    HW124927   3.287   1.951  12.533
 4433SOL    HW224928   3.251   1.914  12.675
 4434SOL     OW24929   0.256   4.438   8.742
 4434SOL    HW124930   0.178   4.469   8.789
 4434SOL    HW224931   0.278   4.355   8.784
 4435SOL     OW24932   2.956   1.790  22.214
 4435SOL    HW124933   2.988   1.853  22.280
 4435SOL    HW224934   2.981   1.829  22.130
 4436SOL     OW24935   2.403   3.688   3.427
 4436SOL    HW124936   2.444   3.736   3.355
 4436SOL    HW224937   2.317   3.662   3.393
 4437SOL     OW24938   2.996   3.997   9.432
 4437SOL    HW124939   3.073   3.941   9.439
 4437SOL    HW224940   3.030   4.082   9.405
 4438SOL     OW24941   3.351   1.526  18.891
 4438SOL    HW124942   3.401   1.570  18.823
 4438SOL    HW224943   3.263   1.562  18.883
 4439SOL     OW24944   4.557   0.103  19.124
 4439SOL    HW124945   4.610   0.174  19.161
 4439SOL    HW224946   4.488   0.148  19.074
 4440SOL     OW24947   1.295   0.283   4.879
 4440SOL    HW124948   1.361   0.269   4.948
 4440SOL    HW224949   1.212   0.285   4.926
 4441SOL     OW24950   3.558   4.592   1.200
 4441SOL    HW124951   3.473   4.607   1.243
 4441SOL    HW224952   3.550   4.638   1.116
 4442SOL     OW24953   1.893   3.877  21.816
 4442SOL    HW124954   1.822   3.940  21.823
 4442SOL    HW224955   1.920   3.860  21.907
 4443SOL     OW24956   2.349   4.258   2.333
 4443SOL    HW124957   2.281   4.246   2.400
 4443SOL    HW224958   2.367   4.170   2.301
 4444SOL     OW24959   1.714   0.930   1.604
 4444SOL    HW124960   1.776   0.858   1.591
 4444SOL    HW224961   1.770   1.006   1.621
 4445SOL     OW24962   3.914   1.034  17.622
 4445SOL    HW124963   3.868   1.098  17.568
 4445SOL    HW224964   3.844   0.988  17.669
 4446SOL     OW24965   3.533   1.426  11.439
 4446SOL    HW124966   3.551   1.338  11.472
 4446SOL    HW224967   3.461   1.457  11.495
 4447SOL     OW24968   3.526   0.794  20.171
 4447SOL    HW124969   3.439   0.774  20.137
 4447SOL    HW224970   3.577   0.818  20.094
 4448SOL     OW24971   1.617   0.534   9.121
 4448SOL    HW124972   1.568   0.485   9.188
 4448SOL    HW224973   1.709   0.521   9.143
 4449SOL     OW24974   0.351   3.942  22.153
 4449SOL    HW124975   0.259   3.916  22.160
 4449SOL    HW224976   0.353   4.032  22.184
 4450SOL     OW24977   1.520   3.736  22.876
 4450SOL    HW124978   1.451   3.724  22.941
 4450SOL    HW224979   1.600   3.712  22.921
 4451SOL     OW24980   2.199   0.388   6.156
 4451SOL    HW124981   2.163   0.450   6.093
 4451SOL    HW224982   2.142   0.395   6.233
 4452SOL     OW24983   2.414   2.730   7.971
 4452SOL    HW124984   2.357   2.679   7.914
 4452SOL    HW224985   2.361   2.747   8.050
 4453SOL     OW24986   0.100   1.821  17.710
 4453SOL    HW124987   0.173   1.821  17.648
 4453SOL    HW224988   0.141   1.815  17.796
 4454SOL     OW24989   2.840   2.712   8.546
 4454SOL    HW124990   2.745   2.704   8.553
 4454SOL    HW224991   2.855   2.762   8.466
 4455SOL     OW24992   1.166   2.596   5.411
 4455SOL    HW124993   1.207   2.604   5.325
 4455SOL    HW224994   1.102   2.667   5.413
 4456SOL     OW24995   4.072   0.375   7.453
 4456SOL    HW124996   4.089   0.468   7.438
 4456SOL    HW224997   3.988   0.359   7.410
 4457SOL     OW24998   3.954   2.143  25.963
 4457SOL    HW124999   3.939   2.227  25.919
 4457SOL    HW225000   3.929   2.160  26.054
 4458SOL     OW25001   0.316   4.738   6.921
 4458SOL    HW125002   0.276   0.041   6.899
 4458SOL    HW225003   0.254   4.697   6.981
 4459SOL     OW25004   3.415   4.307   5.722
 4459SOL    HW125005   3.443   4.358   5.798
 4459SOL    HW225006   3.358   4.366   5.673
 4460SOL     OW25007   0.225   2.607   2.965
 4460SOL    HW125008   0.179   2.555   2.899
 4460SOL    HW225009   0.181   2.692   2.964
 4461SOL     OW25010   1.841   2.390   3.821
 4461SOL    HW125011   1.921   2.439   3.802
 4461SOL    HW225012   1.799   2.379   3.735
 4462SOL     OW25013   2.494   2.542   4.856
 4462SOL    HW125014   2.546   2.577   4.929
 4462SOL    HW225015   2.405   2.537   4.891
 4463SOL     OW25016   0.495   2.317  10.825
 4463SOL    HW125017   0.449   2.237  10.798
 4463SOL    HW225018   0.425   2.382  10.836
 4464SOL     OW25019   0.538   1.702   9.202
 4464SOL    HW125020   0.485   1.698   9.282
 4464SOL    HW225021   0.552   1.611   9.178
 4465SOL     OW25022   4.230   2.303   5.608
 4465SOL    HW125023   4.198   2.317   5.696
 4465SOL    HW225024   4.279   2.221   5.613
 4466SOL     OW25025   4.005   0.149  21.979
 4466SOL    HW125026   4.074   0.183  21.922
 4466SOL    HW225027   4.051   0.124  22.059
 4467SOL     OW25028   0.333   1.620   8.834
 4467SOL    HW125029   0.239   1.627   8.818
 4467SOL    HW225030   0.346   1.529   8.863
 4468SOL     OW25031   4.077   1.737   3.766
 4468SOL    HW125032   4.170   1.715   3.777
 4468SOL    HW225033   4.047   1.758   3.854
 4469SOL     OW25034   1.104   0.110   4.661
 4469SOL    HW125035   1.141   0.182   4.610
 4469SOL    HW225036   1.012   0.134   4.674
 4470SOL     OW25037   0.977   0.761   4.023
 4470SOL    HW125038   0.928   0.782   4.102
 4470SOL    HW225039   0.912   0.765   3.953
 4471SOL     OW25040   1.413   2.496   7.258
 4471SOL    HW125041   1.349   2.460   7.320
 4471SOL    HW225042   1.360   2.544   7.195
 4472SOL     OW25043   3.753   0.605   3.257
 4472SOL    HW125044   3.834   0.601   3.308
 4472SOL    HW225045   3.683   0.608   3.322
 4473SOL     OW25046   0.418   0.056   3.084
 4473SOL    HW125047   0.396   0.008   3.004
 4473SOL    HW225048   0.447   0.141   3.054
 4474SOL     OW25049   1.242   2.267   0.480
 4474SOL    HW125050   1.334   2.294   0.482
 4474SOL    HW225051   1.240   2.195   0.417
 4475SOL     OW25052   1.159   4.044  21.240
 4475SOL    HW125053   1.109   4.008  21.168
 4475SOL    HW225054   1.251   4.037  21.212
 4476SOL     OW25055   0.826   2.803   1.249
 4476SOL    HW125056   0.804   2.720   1.207
 4476SOL    HW225057   0.742   2.836   1.280
 4477SOL     OW25058   2.525   3.563  25.454
 4477SOL    HW125059   2.540   3.501  25.526
 4477SOL    HW225060   2.462   3.626  25.489
 4478SOL     OW25061   1.609   4.577  26.423
 4478SOL    HW125062   1.575   4.665  26.405
 4478SOL    HW225063   1.557   4.519  26.368
 4479SOL     OW25064   2.196   1.188   8.720
 4479SOL    HW125065   2.270   1.239   8.752
 4479SOL    HW225066   2.229   1.098   8.716
 4480SOL     OW25067   0.240   4.057   3.659
 4480SOL    HW125068   0.286   4.119   3.715
 4480SOL    HW225069   0.166   4.106   3.623
 4481SOL     OW25070   2.414   0.949  22.189
 4481SOL    HW125071   2.453   0.949  22.276
 4481SOL    HW225072   2.478   0.904  22.133
 4482SOL     OW25073   3.224   2.269   2.631
 4482SOL    HW125074   3.303   2.308   2.594
 4482SOL    HW225075   3.243   2.176   2.636
 4483SOL     OW25076   4.626   2.961   6.632
 4483SOL    HW125077   4.544   2.918   6.608
 4483SOL    HW225078   4.694   2.904   6.596
 4484SOL     OW25079   2.840   1.307  28.313
 4484SOL    HW125080   2.879   1.226  28.346
 4484SOL    HW225081   2.823   1.289  28.220
 4485SOL     OW25082   2.777   3.733   4.901
 4485SOL    HW125083   2.726   3.653   4.890
 4485SOL    HW225084   2.864   3.712   4.866
 4486SOL     OW25085   0.126   3.959   8.413
 4486SOL    HW125086   0.143   4.052   8.397
 4486SOL    HW225087   0.117   3.920   8.326
 4487SOL     OW25088   2.336   4.206   9.124
 4487SOL    HW125089   2.365   4.121   9.089
 4487SOL    HW225090   2.344   4.197   9.219
 4488SOL     OW25091   1.754   4.228  20.391
 4488SOL    HW125092   1.809   4.251  20.316
 4488SOL    HW225093   1.680   4.289  20.385
 4489SOL     OW25094   0.718   3.606  21.369
 4489SOL    HW125095   0.803   3.642  21.396
 4489SOL    HW225096   0.738   3.552  21.292
 4490SOL     OW25097   4.097   3.599   3.262
 4490SOL    HW125098   4.149   3.576   3.185
 4490SOL    HW225099   4.058   3.684   3.240
 4491SOL     OW25100   2.229   0.515   0.221
 4491SOL    HW125101   2.317   0.540   0.193
 4491SOL    HW225102   2.228   0.532   0.315
 4492SOL     OW25103   4.413   2.368  20.713
 4492SOL    HW125104   4.436   2.444  20.767
 4492SOL    HW225105   4.466   2.378  20.634
 4493SOL     OW25106   4.191   2.247  24.858
 4493SOL    HW125107   4.209   2.288  24.943
 4493SOL    HW225108   4.273   2.207  24.833
 4494SOL     OW25109   0.376   0.373   6.508
 4494SOL    HW125110   0.458   0.329   6.485
 4494SOL    HW225111   0.313   0.301   6.519
 4495SOL     OW25112   1.104   4.007  10.870
 4495SOL    HW125113   1.072   4.092  10.839
 4495SOL    HW225114   1.077   4.003  10.962
 4496SOL     OW25115   2.392   1.439   5.564
 4496SOL    HW125116   2.420   1.528   5.544
 4496SOL    HW225117   2.342   1.448   5.646
 4497SOL     OW25118   1.342   2.062  18.316
 4497SOL    HW125119   1.403   2.121  18.271
 4497SOL    HW225120   1.260   2.071  18.267
 4498SOL     OW25121   4.168   4.600   4.001
 4498SOL    HW125122   4.095   4.628   3.945
 4498SOL    HW225123   4.136   4.520   4.043
 4499SOL     OW25124   3.118   4.490  24.236
 4499SOL    HW125125   3.040   4.532  24.199
 4499SOL    HW225126   3.085   4.438  24.309
 4500SOL     OW25127   2.841   3.161   6.316
 4500SOL    HW125128   2.751   3.157   6.283
 4500SOL    HW225129   2.892   3.192   6.242
 4501SOL     OW25130   2.144   1.178   9.266
 4501SOL    HW125131   2.231   1.217   9.263
 4501SOL    HW225132   2.150   1.104   9.205
 4502SOL     OW25133   2.278   4.387   0.361
 4502SOL    HW125134   2.300   4.439   0.438
 4502SOL    HW225135   2.362   4.354   0.330
 4503SOL     OW25136   2.335   1.286   2.511
 4503SOL    HW125137   2.310   1.246   2.428
 4503SOL    HW225138   2.293   1.372   2.510
 4504SOL     OW25139   1.080   0.782  22.740
 4504SOL    HW125140   1.108   0.710  22.796
 4504SOL    HW225141   0.989   0.797  22.763
 4505SOL     OW25142   0.609   3.917  27.559
 4505SOL    HW125143   0.624   4.011  27.560
 4505SOL    HW225144   0.514   3.907  27.550
 4506SOL     OW25145   0.849   0.776   5.570
 4506SOL    HW125146   0.863   0.682   5.580
 4506SOL    HW225147   0.922   0.806   5.515
 4507SOL     OW25148   1.838   3.141  27.591
 4507SOL    HW125149   1.812   3.222  27.636
 4507SOL    HW225150   1.908   3.105  27.645
 4508SOL     OW25151   1.223   0.023   7.761
 4508SOL    HW125152   1.151   0.007   7.701
 4508SOL    HW225153   1.181   0.032   7.847
 4509SOL     OW25154   4.399   3.842   8.642
 4509SOL    HW125155   4.317   3.892   8.639
 4509SOL    HW225156   4.374   3.754   8.613
 4510SOL     OW25157   1.026   3.002   5.282
 4510SOL    HW125158   1.045   2.932   5.344
 4510SOL    HW225159   1.080   2.982   5.206
 4511SOL     OW25160   3.808   1.083   2.310
 4511SOL    HW125161   3.828   0.990   2.319
 4511SOL    HW225162   3.712   1.087   2.305
 4512SOL     OW25163   0.382   4.028   5.513
 4512SOL    HW125164   0.448   4.031   5.581
 4512SOL    HW225165   0.348   3.939   5.515
 4513SOL     OW25166   1.824   1.436   9.349
 4513SOL    HW125167   1.767   1.480   9.285
 4513SOL    HW225168   1.878   1.377   9.297
 4514SOL     OW25169   2.819   4.065  20.128
 4514SOL    HW125170   2.730   4.033  20.117
 4514SOL    HW225171   2.858   4.006  20.193
 4515SOL     OW25172   0.127   1.007   4.024
 4515SOL    HW125173   0.215   0.970   4.029
 4515SOL    HW225174   0.141   1.098   3.998
 4516SOL     OW25175   2.110   1.352  22.408
 4516SOL    HW125176   2.144   1.353  22.497
 4516SOL    HW225177   2.164   1.288  22.362
 4517SOL     OW25178   1.725   0.623  25.397
 4517SOL    HW125179   1.766   0.707  25.373
 4517SOL    HW225180   1.673   0.599  25.320
 4518SOL     OW25181   4.113   3.360   9.580
 4518SOL    HW125182   4.158   3.358   9.495
 4518SOL    HW225183   4.036   3.416   9.565
 4519SOL     OW25184   0.972   3.940  21.025
 4519SOL    HW125185   0.892   3.891  21.045
 4519SOL    HW225186   0.945   4.032  21.031
 4520SOL     OW25187   4.034   0.203   5.161
 4520SOL    HW125188   4.120   0.201   5.202
 4520SOL    HW225189   3.999   0.290   5.183
 4521SOL     OW25190   4.258   0.881  10.249
 4521SOL    HW125191   4.305   0.799  10.237
 4521SOL    HW225192   4.308   0.945  10.198
 4522SOL     OW25193   2.326   3.840   9.685
 4522SOL    HW125194   2.394   3.896   9.648
 4522SOL    HW225195   2.314   3.771   9.620
 4523SOL     OW25196   2.163   4.681   2.414
 4523SOL    HW125197   2.224   4.643   2.477
 4523SOL    HW225198   2.098   4.612   2.400
 4524SOL     OW25199   4.776   0.432   2.470
 4524SOL    HW125200   4.686   0.440   2.440
 4524SOL    HW225201   0.035   0.517   2.451
 4525SOL     OW25202   1.687   1.043  20.152
 4525SOL    HW125203   1.764   0.987  20.157
 4525SOL    HW225204   1.622   0.999  20.207
 4526SOL     OW25205   2.393   0.002  21.061
 4526SOL    HW125206   2.407   0.095  21.044
 4526SOL    HW225207   2.299   4.775  21.075
 4527SOL     OW25208   1.160   1.390  22.379
 4527SOL    HW125209   1.135   1.319  22.322
 4527SOL    HW225210   1.168   1.466  22.321
 4528SOL     OW25211   3.359   2.189  10.994
 4528SOL    HW125212   3.338   2.102  11.027
 4528SOL    HW225213   3.274   2.228  10.974
 4529SOL     OW25214   3.730   1.618  11.501
 4529SOL    HW125215   3.694   1.682  11.440
 4529SOL    HW225216   3.674   1.541  11.491
 4530SOL     OW25217   0.194   1.981   4.199
 4530SOL    HW125218   0.149   1.975   4.284
 4530SOL    HW225219   0.132   2.028   4.143
 4531SOL     OW25220   2.394   3.954   5.167
 4531SOL    HW125221   2.360   3.867   5.143
 4531SOL    HW225222   2.478   3.960   5.121
 4532SOL     OW25223   3.566   0.680   8.652
 4532SOL    HW125224   3.661   0.685   8.665
 4532SOL    HW225225   3.534   0.767   8.678
 4533SOL     OW25226   3.508   3.871  24.123
 4533SOL    HW125227   3.535   3.904  24.037
 4533SOL    HW225228   3.550   3.929  24.186
 4534SOL     OW25229   3.007   2.045   6.811
 4534SOL    HW125230   2.956   2.100   6.752
 4534SOL    HW225231   3.098   2.059   6.785
 4535SOL     OW25232   2.536   3.706   7.708
 4535SOL    HW125233   2.479   3.641   7.750
 4535SOL    HW225234   2.610   3.656   7.675
 4536SOL     OW25235   0.919   2.096  25.098
 4536SOL    HW125236   0.917   2.188  25.071
 4536SOL    HW225237   0.888   2.097  25.188
 4537SOL     OW25238   1.898   4.660   1.333
 4537SOL    HW125239   1.833   4.725   1.361
 4537SOL    HW225240   1.959   4.655   1.406
 4538SOL     OW25241   0.557   4.430   2.914
 4538SOL    HW125242   0.573   4.477   2.996
 4538SOL    HW225243   0.484   4.477   2.873
 4539SOL     OW25244   3.219   0.103   9.310
 4539SOL    HW125245   3.247   0.027   9.360
 4539SOL    HW225246   3.159   0.069   9.244
 4540SOL     OW25247   4.771   0.706   6.979
 4540SOL    HW125248   4.776   0.794   7.016
 4540SOL    HW225249   4.730   0.719   6.893
 4541SOL     OW25250   3.772   2.360   3.592
 4541SOL    HW125251   3.792   2.310   3.671
 4541SOL    HW225252   3.824   2.440   3.601
 4542SOL     OW25253   2.744   2.655  21.292
 4542SOL    HW125254   2.701   2.615  21.217
 4542SOL    HW225255   2.816   2.595  21.313
 4543SOL     OW25256   1.251   3.766  24.293
 4543SOL    HW125257   1.265   3.837  24.356
 4543SOL    HW225258   1.156   3.761  24.283
 4544SOL     OW25259   2.103   1.084   8.041
 4544SOL    HW125260   2.141   1.100   7.955
 4544SOL    HW225261   2.155   1.012   8.077
 4545SOL     OW25262   3.565   1.066   0.659
 4545SOL    HW125263   3.477   1.040   0.685
 4545SOL    HW225264   3.558   1.159   0.640
 4546SOL     OW25265   3.557   2.646   9.044
 4546SOL    HW125266   3.614   2.675   8.973
 4546SOL    HW225267   3.481   2.609   9.001
 4547SOL     OW25268   0.015   1.794  22.947
 4547SOL    HW125269   0.008   1.790  23.042
 4547SOL    HW225270   4.736   1.864  22.922
 4548SOL     OW25271   3.829   1.848  25.055
 4548SOL    HW125272   3.903   1.855  24.994
 4548SOL    HW225273   3.820   1.936  25.091
 4549SOL     OW25274   4.698   4.600  26.368
 4549SOL    HW125275   4.712   4.688  26.401
 4549SOL    HW225276   4.622   4.608  26.310
 4550SOL     OW25277   0.715   4.119   7.996
 4550SOL    HW125278   0.795   4.123   7.943
 4550SOL    HW225279   0.747   4.105   8.086
 4551SOL     OW25280   1.391   3.469   5.424
 4551SOL    HW125281   1.363   3.561   5.429
 4551SOL    HW225282   1.320   3.425   5.378
 4552SOL     OW25283   3.395   0.892  20.382
 4552SOL    HW125284   3.458   0.855  20.320
 4552SOL    HW225285   3.408   0.839  20.462
 4553SOL     OW25286   3.835   0.399  10.966
 4553SOL    HW125287   3.851   0.492  10.946
 4553SOL    HW225288   3.842   0.355  10.881
 4554SOL     OW25289   4.524   1.407   5.064
 4554SOL    HW125290   4.572   1.376   5.142
 4554SOL    HW225291   4.591   1.450   5.011
 4555SOL     OW25292   2.928   4.153  23.152
 4555SOL    HW125293   3.011   4.155  23.106
 4555SOL    HW225294   2.863   4.175  23.086
 4556SOL     OW25295   0.225   0.115   4.989
 4556SOL    HW125296   0.170   0.154   4.921
 4556SOL    HW225297   0.196   0.157   5.070
 4557SOL     OW25298   3.330   4.200   8.943
 4557SOL    HW125299   3.371   4.251   9.013
 4557SOL    HW225300   3.404   4.164   8.894
 4558SOL     OW25301   2.339   1.829  18.913
 4558SOL    HW125302   2.379   1.879  18.841
 4558SOL    HW225303   2.308   1.896  18.974
 4559SOL     OW25304   1.896   1.506   1.069
 4559SOL    HW125305   1.874   1.477   1.158
 4559SOL    HW225306   1.987   1.535   1.075
 4560SOL     OW25307   1.517   2.598  26.047
 4560SOL    HW125308   1.431   2.634  26.068
 4560SOL    HW225309   1.578   2.669  26.068
 4561SOL     OW25310   4.625   3.792  23.210
 4561SOL    HW125311   4.676   3.798  23.129
 4561SOL    HW225312   4.563   3.721  23.194
 4562SOL     OW25313   1.037   3.883  11.479
 4562SOL    HW125314   0.969   3.946  11.502
 4562SOL    HW225315   1.114   3.937  11.458
 4563SOL     OW25316   2.626   2.568  21.706
 4563SOL    HW125317   2.650   2.496  21.764
 4563SOL    HW225318   2.537   2.592  21.732
 4564SOL     OW25319   2.100   2.172   0.635
 4564SOL    HW125320   2.158   2.248   0.628
 4564SOL    HW225321   2.094   2.139   0.545
 4565SOL     OW25322   4.065   2.711  11.480
 4565SOL    HW125323   4.108   2.757  11.552
 4565SOL    HW225324   4.059   2.620  11.509
 4566SOL     OW25325   2.468   2.447  12.165
 4566SOL    HW125326   2.432   2.363  12.191
 4566SOL    HW225327   2.395   2.508  12.172
 4567SOL     OW25328   3.280   3.032  20.727
 4567SOL    HW125329   3.270   3.002  20.637
 4567SOL    HW225330   3.270   2.952  20.780
 4568SOL     OW25331   2.102   3.211  22.160
 4568SOL    HW125332   2.094   3.153  22.235
 4568SOL    HW225333   2.191   3.247  22.168
 4569SOL     OW25334   4.090   3.888   1.396
 4569SOL    HW125335   4.098   3.793   1.384
 4569SOL    HW225336   4.179   3.918   1.414
 4570SOL     OW25337   3.219   0.108   0.875
 4570SOL    HW125338   3.289   0.094   0.812
 4570SOL    HW225339   3.187   0.196   0.856
 4571SOL     OW25340   4.247   1.776  22.758
 4571SOL    HW125341   4.186   1.849  22.749
 4571SOL    HW225342   4.194   1.706  22.798
 4572SOL     OW25343   2.372   3.051   0.411
 4572SOL    HW125344   2.292   3.004   0.388
 4572SOL    HW225345   2.395   3.018   0.498
 4573SOL     OW25346   2.119   4.351   7.518
 4573SOL    HW125347   2.027   4.325   7.521
 4573SOL    HW225348   2.157   4.298   7.447
 4574SOL     OW25349   4.021   0.995   3.858
 4574SOL    HW125350   3.971   1.006   3.939
 4574SOL    HW225351   4.009   1.078   3.812
 4575SOL     OW25352   4.641   4.726  27.498
 4575SOL    HW125353   4.547   4.735  27.484
 4575SOL    HW225354   4.680   4.732  27.410
 4576SOL     OW25355   4.217   4.204  19.913
 4576SOL    HW125356   4.195   4.218  19.821
 4576SOL    HW225357   4.309   4.230  19.921
 4577SOL     OW25358   1.467   1.950   8.829
 4577SOL    HW125359   1.411   2.027   8.827
 4577SOL    HW225360   1.556   1.984   8.837
 4578SOL     OW25361   3.568   3.235   7.867
 4578SOL    HW125362   3.545   3.225   7.960
 4578SOL    HW225363   3.601   3.149   7.842
 4579SOL     OW25364   2.788   4.728  19.508
 4579SOL    HW125365   2.806   0.023  19.563
 4579SOL    HW225366   2.864   4.722  19.450
 4580SOL     OW25367   2.749   1.035  10.649
 4580SOL    HW125368   2.759   1.036  10.745
 4580SOL    HW225369   2.696   1.113  10.631
 4581SOL     OW25370   3.421   1.561  10.954
 4581SOL    HW125371   3.441   1.527  11.042
 4581SOL    HW225372   3.477   1.638  10.945
 4582SOL     OW25373   2.752   3.017   5.137
 4582SOL    HW125374   2.814   2.953   5.103
 4582SOL    HW225375   2.690   2.964   5.188
 4583SOL     OW25376   4.567   1.939   4.529
 4583SOL    HW125377   4.565   2.032   4.507
 4583SOL    HW225378   4.480   1.908   4.508
 4584SOL     OW25379   2.619   3.129  11.122
 4584SOL    HW125380   2.691   3.143  11.182
 4584SOL    HW225381   2.550   3.088  11.175
 4585SOL     OW25382   3.778   4.548  25.301
 4585SOL    HW125383   3.742   4.584  25.382
 4585SOL    HW225384   3.704   4.506  25.257
 4586SOL     OW25385   4.117   2.292  18.388
 4586SOL    HW125386   4.160   2.297  18.474
 4586SOL    HW225387   4.058   2.218  18.395
 4587SOL     OW25388   4.247   1.818   0.607
 4587SOL    HW125389   4.326   1.848   0.562
 4587SOL    HW225390   4.209   1.897   0.643
 4588SOL     OW25391   1.806   2.637  12.856
 4588SOL    HW125392   1.729   2.640  12.913
 4588SOL    HW225393   1.881   2.644  12.916
 4589SOL     OW25394   2.513   0.317  10.078
 4589SOL    HW125395   2.588   0.297  10.133
 4589SOL    HW225396   2.476   0.231  10.055
 4590SOL     OW25397   3.846   0.195  28.310
 4590SOL    HW125398   3.839   0.109  28.267
 4590SOL    HW225399   3.755   0.227  28.312
 4591SOL     OW25400   2.263   3.820   7.973
 4591SOL    HW125401   2.256   3.773   8.056
 4591SOL    HW225402   2.240   3.910   7.994
 4592SOL     OW25403   3.277   0.295   7.116
 4592SOL    HW125404   3.204   0.357   7.116
 4592SOL    HW225405   3.331   0.321   7.191
 4593SOL     OW25406   2.331   0.897  12.690
 4593SOL    HW125407   2.299   0.820  12.736
 4593SOL    HW225408   2.306   0.971  12.746
 4594SOL     OW25409   2.092   4.747  11.608
 4594SOL    HW125410   2.070   0.049  11.566
 4594SOL    HW225411   2.098   4.684  11.537
 4595SOL     OW25412   1.854   3.554   7.383
 4595SOL    HW125413   1.946   3.564   7.408
 4595SOL    HW225414   1.807   3.548   7.466
 4596SOL     OW25415   3.835   2.325  13.436
 4596SOL    HW125416   3.840   2.375  13.355
 4596SOL    HW225417   3.760   2.266  13.424
 4597SOL     OW25418   2.283   0.357  12.828
 4597SOL    HW125419   2.301   0.355  12.734
 4597SOL    HW225420   2.340   0.427  12.862
 4598SOL     OW25421   3.543   2.379  12.105
 4598SOL    HW125422   3.512   2.291  12.085
 4598SOL    HW225423   3.590   2.370  12.187
 4599SOL     OW25424   2.481   1.475  13.073
 4599SOL    HW125425   2.559   1.509  13.116
 4599SOL    HW225426   2.416   1.469  13.142
 4600SOL     OW25427   1.605   2.607  12.363
 4600SOL    HW125428   1.585   2.699  12.382
 4600SOL    HW225429   1.560   2.558  12.431
 4601SOL     OW25430   4.394   0.121  12.812
 4601SOL    HW125431   4.392   0.102  12.718
 4601SOL    HW225432   4.305   0.150  12.832
 4602SOL     OW25433   2.640   0.913  13.378
 4602SOL    HW125434   2.724   0.938  13.415
 4602SOL    HW225435   2.616   0.986  13.321
 4603SOL     OW25436   3.416   3.440  12.901
 4603SOL    HW125437   3.501   3.465  12.935
 4603SOL    HW225438   3.368   3.523  12.894
 4604SOL     OW25439   2.506   4.317  12.647
 4604SOL    HW125440   2.461   4.247  12.600
 4604SOL    HW225441   2.578   4.272  12.694
 4605SOL     OW25442   2.706   1.906  11.724
 4605SOL    HW125443   2.707   1.811  11.739
 4605SOL    HW225444   2.615   1.927  11.707
 4606SOL     OW25445   1.939   0.784  10.935
 4606SOL    HW125446   1.858   0.783  10.985
 4606SOL    HW225447   1.987   0.861  10.967
 4607SOL     OW25448   2.184   1.670  11.854
 4607SOL    HW125449   2.276   1.645  11.842
 4607SOL    HW225450   2.146   1.600  11.907
 4608SOL     OW25451   3.112   1.645  12.619
 4608SOL    HW125452   3.151   1.579  12.676
 4608SOL    HW225453   3.168   1.722  12.630
 4609SOL     OW25454   3.371   3.070  12.486
 4609SOL    HW125455   3.397   2.978  12.490
 4609SOL    HW225456   3.443   3.116  12.529
 4610SOL     OW25457   2.200   0.003  13.408
 4610SOL    HW125458   2.263   4.761  13.340
 4610SOL    HW225459   2.252   0.006  13.489
 4611SOL     OW25460   4.516   0.586  11.850
 4611SOL    HW125461   4.518   0.677  11.820
 4611SOL    HW225462   4.589   0.545  11.804
 4612SOL     OW25463   2.520   1.418  12.791
 4612SOL    HW125464   2.557   1.499  12.756
 4612SOL    HW225465   2.517   1.431  12.886
 4613SOL     OW25466   4.122   4.447  12.239
 4613SOL    HW125467   4.115   4.400  12.322
 4613SOL    HW225468   4.062   4.401  12.180
 4614SOL     OW25469   2.906   1.057  10.406
 4614SOL    HW125470   2.861   1.022  10.483
 4614SOL    HW225471   2.985   1.098  10.442
 4615SOL     OW25472   2.010   0.516  12.368
 4615SOL    HW125473   2.000   0.546  12.458
 4615SOL    HW225474   2.030   0.595  12.318
 4616SOL     OW25475   2.702   0.220  13.922
 4616SOL    HW125476   2.648   0.298  13.938
 4616SOL    HW225477   2.774   0.253  13.868
 4617SOL     OW25478   1.731   0.804  11.120
 4617SOL    HW125479   1.649   0.853  11.111
 4617SOL    HW225480   1.772   0.842  11.199
 4618SOL     OW25481   0.835   0.926  12.182
 4618SOL    HW125482   0.831   0.837  12.218
 4618SOL    HW225483   0.929   0.946  12.177
 4619SOL     OW25484   2.397   4.622  11.934
 4619SOL    HW125485   2.306   4.651  11.930
 4619SOL    HW225486   2.418   4.599  11.844
 4620SOL     OW25487   3.527   2.827  12.648
 4620SOL    HW125488   3.583   2.793  12.577
 4620SOL    HW225489   3.443   2.783  12.636
 4621SOL     OW25490   2.314   1.266  12.721
 4621SOL    HW125491   2.385   1.314  12.763
 4621SOL    HW225492   2.290   1.198  12.784
 4622SOL     OW25493   2.107   1.838  13.462
 4622SOL    HW125494   2.047   1.900  13.503
 4622SOL    HW225495   2.113   1.765  13.524
 4623SOL     OW25496   2.908   2.961  12.503
 4623SOL    HW125497   2.993   2.979  12.543
 4623SOL    HW225498   2.849   3.026  12.540
 4624SOL     OW25499   3.372   1.447  12.632
 4624SOL    HW125500   3.305   1.422  12.696
 4624SOL    HW225501   3.455   1.421  12.673
 4625SOL     OW25502   1.683   2.982  11.848
 4625SOL    HW125503   1.658   2.905  11.797
 4625SOL    HW225504   1.673   2.954  11.939
 4626SOL     OW25505   2.862   0.386  13.757
 4626SOL    HW125506   2.797   0.455  13.742
 4626SOL    HW225507   2.946   0.431  13.751
 4627SOL     OW25508   2.874   1.424  11.929
 4627SOL    HW125509   2.816   1.350  11.910
 4627SOL    HW225510   2.954   1.384  11.961
 4628SOL     OW25511   1.343   0.901  12.202
 4628SOL    HW125512   1.339   0.847  12.281
 4628SOL    HW225513   1.431   0.887  12.167
 4629SOL     OW25514   4.597   0.560  12.755
 4629SOL    HW125515   4.538   0.490  12.782
 4629SOL    HW225516   4.633   0.594  12.836
 4630SOL     OW25517   1.644   4.715  12.174
 4630SOL    HW125518   1.610   0.014  12.215
 4630SOL    HW225519   1.675   4.662  12.248
 4631SOL     OW25520   1.859   1.613  12.877
 4631SOL    HW125521   1.927   1.553  12.846
 4631SOL    HW225522   1.907   1.682  12.923
 4632SOL     OW25523   0.930   1.538  13.472
 4632SOL    HW125524   0.965   1.536  13.562
 4632SOL    HW225525   0.994   1.590  13.423
 4633SOL     OW25526   3.205   1.634  13.012
 4633SOL    HW125527   3.223   1.581  13.090
 4633SOL    HW225528   3.185   1.569  12.944
 4634SOL     OW25529   2.533   1.188  12.547
 4634SOL    HW125530   2.511   1.096  12.536
 4634SOL    HW225531   2.453   1.229  12.579
 4635SOL     OW25532   3.203   4.473  13.664
 4635SOL    HW125533   3.118   4.438  13.636
 4635SOL    HW225534   3.242   4.508  13.584
 4636SOL     OW25535   2.495   2.612  12.470
 4636SOL    HW125536   2.482   2.519  12.487
 4636SOL    HW225537   2.574   2.634  12.520
 4637SOL     OW25538   1.808   1.319  12.446
 4637SOL    HW125539   1.793   1.226  12.426
 4637SOL    HW225540   1.737   1.341  12.506
 4638SOL     OW25541   2.810   2.306  13.448
 4638SOL    HW125542   2.906   2.298  13.453
 4638SOL    HW225543   2.796   2.373  13.382
 4639SOL     OW25544   3.364   1.135  11.300
 4639SOL    HW125545   3.380   1.176  11.215
 4639SOL    HW225546   3.446   1.148  11.349
 4640SOL     OW25547   3.974   3.333  21.615
 4640SOL    HW125548   4.022   3.351  21.696
 4640SOL    HW225549   3.934   3.417  21.592
 4641SOL     OW25550   2.733   4.294  11.516
 4641SOL    HW125551   2.657   4.350  11.530
 4641SOL    HW225552   2.807   4.354  11.510
 4642SOL     OW25553   2.262   0.562  13.656
 4642SOL    HW125554   2.344   0.556  13.704
 4642SOL    HW225555   2.196   0.528  13.716
 4643SOL     OW25556   4.098   2.803   0.328
 4643SOL    HW125557   4.018   2.789   0.277
 4643SOL    HW225558   4.146   2.870   0.280
 4644SOL     OW25559   3.756   2.877  12.793
 4644SOL    HW125560   3.782   2.969  12.793
 4644SOL    HW225561   3.667   2.878  12.758
 4645SOL     OW25562   3.157   0.675  12.347
 4645SOL    HW125563   3.208   0.635  12.276
 4645SOL    HW225564   3.137   0.763  12.316
 4646SOL     OW25565   2.537   0.927  12.529
 4646SOL    HW125566   2.576   0.839  12.538
 4646SOL    HW225567   2.450   0.919  12.568
 4647SOL     OW25568   2.373   1.205  11.612
 4647SOL    HW125569   2.366   1.264  11.687
 4647SOL    HW225570   2.313   1.242  11.547
 4648SOL     OW25571   2.195   4.481  11.728
 4648SOL    HW125572   2.282   4.502  11.695
 4648SOL    HW225573   2.167   4.560  11.774
 4649SOL     OW25574   4.526   2.024   6.451
 4649SOL    HW125575   4.506   2.067   6.534
 4649SOL    HW225576   4.446   2.034   6.399
 4650SOL     OW25577   3.605   2.067  12.611
 4650SOL    HW125578   3.691   2.056  12.653
 4650SOL    HW225579   3.548   2.097  12.682
 4651SOL     OW25580   2.119   1.407  12.555
 4651SOL    HW125581   2.096   1.436  12.643
 4651SOL    HW225582   2.209   1.373  12.563
 4652SOL     OW25583   3.449   1.783  11.636
 4652SOL    HW125584   3.451   1.757  11.728
 4652SOL    HW225585   3.392   1.720  11.594
 4653SOL     OW25586   1.701   0.289  10.563
 4653SOL    HW125587   1.706   0.248  10.649
 4653SOL    HW225588   1.790   0.318  10.545
 4654SOL     OW25589   1.493   1.490   3.487
 4654SOL    HW125590   1.450   1.438   3.555
 4654SOL    HW225591   1.488   1.436   3.408
 4655SOL     OW25592   0.479   2.290   4.146
 4655SOL    HW125593   0.468   2.271   4.053
 4655SOL    HW225594   0.476   2.205   4.189
 4656SOL     OW25595   3.515   2.096  12.363
 4656SOL    HW125596   3.540   2.084  12.454
 4656SOL    HW225597   3.420   2.082  12.363
 4657SOL     OW25598   3.074   4.446  13.255
 4657SOL    HW125599   3.045   4.402  13.335
 4657SOL    HW225600   3.143   4.506  13.284
 4658SOL     OW25601   2.014   0.869  13.281
 4658SOL    HW125602   1.940   0.809  13.275
 4658SOL    HW225603   2.048   0.858  13.370
 4659SOL     OW25604   2.683   1.247  11.885
 4659SOL    HW125605   2.651   1.287  11.966
 4659SOL    HW225606   2.609   1.254  11.824
 4660SOL     OW25607   1.714   0.488  11.486
 4660SOL    HW125608   1.676   0.569  11.452
 4660SOL    HW225609   1.755   0.513  11.569
 4661SOL     OW25610   2.207   1.731  13.218
 4661SOL    HW125611   2.175   1.739  13.308
 4661SOL    HW225612   2.250   1.814  13.200
 4662SOL     OW25613   2.767   1.217  14.742
 4662SOL    HW125614   2.777   1.138  14.690
 4662SOL    HW225615   2.688   1.202  14.794
 4663SOL     OW25616   2.137   1.591  13.563
 4663SOL    HW125617   2.079   1.533  13.612
 4663SOL    HW225618   2.193   1.532  13.512
 4664SOL     OW25619   3.088   1.862  14.223
 4664SOL    HW125620   3.033   1.825  14.293
 4664SOL    HW225621   3.163   1.803  14.218
 4665SOL     OW25622   2.913   0.634  13.464
 4665SOL    HW125623   2.916   0.656  13.557
 4665SOL    HW225624   2.906   0.718  13.420
 4666SOL     OW25625   2.297   1.395  13.237
 4666SOL    HW125626   2.309   1.304  13.262
 4666SOL    HW225627   2.291   1.442  13.320
 4667SOL     OW25628   3.973   2.162  13.112
 4667SOL    HW125629   3.882   2.155  13.141
 4667SOL    HW225630   3.968   2.213  13.031
 4668SOL     OW25631   2.868   0.355  13.466
 4668SOL    HW125632   2.842   0.345  13.558
 4668SOL    HW225633   2.880   0.449  13.454
 4669SOL     OW25634   3.047   1.456  13.919
 4669SOL    HW125635   3.075   1.377  13.873
 4669SOL    HW225636   3.052   1.434  14.012
 4670SOL     OW25637   2.394   1.579  12.506
 4670SOL    HW125638   2.451   1.632  12.562
 4670SOL    HW225639   2.307   1.616  12.518
 4671SOL     OW25640   3.248   4.456  12.917
 4671SOL    HW125641   3.207   4.519  12.857
 4671SOL    HW225642   3.296   4.510  12.979
 4672SOL     OW25643   3.195   2.715  14.990
 4672SOL    HW125644   3.211   2.798  14.943
 4672SOL    HW225645   3.229   2.730  15.078
 4673SOL     OW25646   4.351   0.832  14.401
 4673SOL    HW125647   4.368   0.883  14.480
 4673SOL    HW225648   4.295   0.888  14.347
 4674SOL     OW25649   3.011   0.278  14.215
 4674SOL    HW125650   3.046   0.344  14.274
 4674SOL    HW225651   3.058   0.292  14.132
 4675SOL     OW25652   3.384   1.352  13.903
 4675SOL    HW125653   3.451   1.283  13.904
 4675SOL    HW225654   3.302   1.306  13.891
 4676SOL     OW25655   2.392   2.359  13.633
 4676SOL    HW125656   2.447   2.324  13.563
 4676SOL    HW225657   2.303   2.330  13.611
 4677SOL     OW25658   2.202   0.828  13.072
 4677SOL    HW125659   2.129   0.824  13.134
 4677SOL    HW225660   2.280   0.838  13.127
 4678SOL     OW25661   2.165   0.198  13.026
 4678SOL    HW125662   2.199   0.264  12.966
 4678SOL    HW225663   2.174   0.238  13.113
 4679SOL     OW25664   2.787   1.603  13.852
 4679SOL    HW125665   2.832   1.672  13.803
 4679SOL    HW225666   2.857   1.554  13.895
 4680SOL     OW25667   3.090   1.022  14.465
 4680SOL    HW125668   3.135   1.002  14.383
 4680SOL    HW225669   3.143   1.090  14.506
 4681SOL     OW25670   3.488   0.594  13.355
 4681SOL    HW125671   3.494   0.533  13.428
 4681SOL    HW225672   3.411   0.648  13.375
 4682SOL     OW25673   3.503   1.400  13.112
 4682SOL    HW125674   3.430   1.349  13.148
 4682SOL    HW225675   3.576   1.338  13.108
 4683SOL     OW25676   2.466   0.554  13.856
 4683SOL    HW125677   2.548   0.544  13.809
 4683SOL    HW225678   2.456   0.472  13.905
 4684SOL     OW25679   3.383   0.417  13.084
 4684SOL    HW125680   3.380   0.405  13.179
 4684SOL    HW225681   3.365   0.330  13.049
 4685SOL     OW25682   3.406   1.055  15.229
 4685SOL    HW125683   3.344   0.987  15.255
 4685SOL    HW225684   3.364   1.099  15.155
 4686SOL     OW25685   1.863   0.913  14.609
 4686SOL    HW125686   1.852   0.965  14.689
 4686SOL    HW225687   1.829   0.969  14.540
 4687SOL     OW25688   2.332   1.058  13.949
 4687SOL    HW125689   2.422   1.089  13.956
 4687SOL    HW225690   2.340   0.968  13.916
 4688SOL     OW25691   3.177   0.538  13.488
 4688SOL    HW125692   3.090   0.545  13.449
 4688SOL    HW225693   3.213   0.626  13.484
 4689SOL     OW25694   2.080   2.058  12.499
 4689SOL    HW125695   2.044   2.001  12.567
 4689SOL    HW225696   2.126   1.999  12.440
 4690SOL     OW25697   3.644   1.604  13.323
 4690SOL    HW125698   3.721   1.656  13.347
 4690SOL    HW225699   3.626   1.550  13.399
 4691SOL     OW25700   1.665   0.932  13.395
 4691SOL    HW125701   1.674   1.026  13.415
 4691SOL    HW225702   1.654   0.891  13.481
 4692SOL     OW25703   3.936   1.734  14.569
 4692SOL    HW125704   3.909   1.825  14.583
 4692SOL    HW225705   3.965   1.704  14.655
 4693SOL     OW25706   3.025   2.040  13.990
 4693SOL    HW125707   2.936   2.019  13.960
 4693SOL    HW225708   3.037   1.986  14.068
 4694SOL     OW25709   2.959   1.411  14.652
 4694SOL    HW125710   3.032   1.350  14.644
 4694SOL    HW225711   2.883   1.355  14.668
 4695SOL     OW25712   2.636   0.348  13.177
 4695SOL    HW125713   2.717   0.307  13.148
 4695SOL    HW225714   2.660   0.439  13.195
 4696SOL     OW25715   2.115   2.018  14.770
 4696SOL    HW125716   2.131   2.096  14.717
 4696SOL    HW225717   2.166   1.949  14.727
 4697SOL     OW25718   2.301   1.968  13.136
 4697SOL    HW125719   2.228   2.030  13.133
 4697SOL    HW225720   2.365   2.004  13.074
 4698SOL     OW25721   2.335   1.589  14.537
 4698SOL    HW125722   2.314   1.632  14.454
 4698SOL    HW225723   2.415   1.539  14.519
 4699SOL     OW25724   3.131   0.514  13.758
 4699SOL    HW125725   3.121   0.606  13.783
 4699SOL    HW225726   3.146   0.517  13.663
 4700SOL     OW25727   2.462   2.220  14.753
 4700SOL    HW125728   2.455   2.208  14.848
 4700SOL    HW225729   2.548   2.182  14.731
 4701SOL     OW25730   3.163   0.320  13.929
 4701SOL    HW125731   3.123   0.240  13.895
 4701SOL    HW225732   3.152   0.384  13.859
 4702SOL     OW25733   3.309   1.198  12.907
 4702SOL    HW125734   3.374   1.202  12.838
 4702SOL    HW225735   3.303   1.105  12.930
 4703SOL     OW25736   3.332   0.797  14.687
 4703SOL    HW125737   3.311   0.807  14.779
 4703SOL    HW225738   3.427   0.810  14.682
 4704SOL     OW25739   2.842   1.001  14.581
 4704SOL    HW125740   2.927   0.991  14.539
 4704SOL    HW225741   2.803   0.914  14.580
 4705SOL     OW25742   2.615   1.367  15.954
 4705SOL    HW125743   2.562   1.288  15.965
 4705SOL    HW225744   2.642   1.366  15.863
 4706SOL     OW25745   3.292   4.589  13.415
 4706SOL    HW125746   3.363   4.528  13.394
 4706SOL    HW225747   3.312   4.668  13.365
 4707SOL     OW25748   3.051   0.596  14.721
 4707SOL    HW125749   3.067   0.613  14.628
 4707SOL    HW225750   3.038   0.501  14.725
 4708SOL     OW25751   3.092   2.905  14.794
 4708SOL    HW125752   3.135   2.965  14.854
 4708SOL    HW225753   3.163   2.868  14.741
 4709SOL     OW25754   3.690   2.044  14.326
 4709SOL    HW125755   3.645   2.003  14.252
 4709SOL    HW225756   3.679   2.138  14.311
 4710SOL     OW25757   2.282   1.815  14.729
 4710SOL    HW125758   2.280   1.728  14.690
 4710SOL    HW225759   2.345   1.864  14.678
 4711SOL     OW25760   4.480   2.663   2.830
 4711SOL    HW125761   4.491   2.758   2.826
 4711SOL    HW225762   4.548   2.629   2.771
 4712SOL     OW25763   2.473   1.642  11.826
 4712SOL    HW125764   2.485   1.700  11.902
 4712SOL    HW225765   2.557   1.642  11.782
 4713SOL     OW25766   3.555   1.354  12.850
 4713SOL    HW125767   3.595   1.279  12.894
 4713SOL    HW225768   3.545   1.419  12.919
 4714SOL     OW25769   2.313   2.643  15.429
 4714SOL    HW125770   2.313   2.629  15.335
 4714SOL    HW225771   2.309   2.554  15.467
 4715SOL     OW25772   3.179   0.083  13.359
 4715SOL    HW125773   3.109   0.061  13.298
 4715SOL    HW225774   3.229   0.151  13.315
 4716SOL     OW25775   3.691   1.242  14.928
 4716SOL    HW125776   3.660   1.280  14.846
 4716SOL    HW225777   3.762   1.183  14.901
 4717SOL     OW25778   1.210   0.374  12.442
 4717SOL    HW125779   1.212   0.279  12.431
 4717SOL    HW225780   1.298   0.403  12.419
 4718SOL     OW25781   3.299   1.599  13.827
 4718SOL    HW125782   3.331   1.511  13.845
 4718SOL    HW225783   3.207   1.597  13.853
 4719SOL     OW25784   3.099   0.793  13.755
 4719SOL    HW125785   3.013   0.753  13.740
 4719SOL    HW225786   3.079   0.879  13.793
 4720SOL     OW25787   0.749   1.007  18.281
 4720SOL    HW125788   0.765   1.021  18.188
 4720SOL    HW225789   0.824   0.955  18.310
 4721SOL     OW25790   2.069   0.564  15.633
 4721SOL    HW125791   1.986   0.555  15.586
 4721SOL    HW225792   2.078   0.658  15.649
 4722SOL     OW25793   3.897   2.255  15.256
 4722SOL    HW125794   3.900   2.192  15.328
 4722SOL    HW225795   3.804   2.275  15.246
 4723SOL     OW25796   3.564   0.848  14.798
 4723SOL    HW125797   3.565   0.920  14.861
 4723SOL    HW225798   3.645   0.800  14.816
 4724SOL     OW25799   1.352   1.969  17.666
 4724SOL    HW125800   1.358   2.009  17.753
 4724SOL    HW225801   1.420   1.901  17.666
 4725SOL     OW25802   1.286   2.634  16.877
 4725SOL    HW125803   1.316   2.544  16.886
 4725SOL    HW225804   1.367   2.686  16.876
 4726SOL     OW25805   1.986   2.291  16.279
 4726SOL    HW125806   2.015   2.218  16.333
 4726SOL    HW225807   1.989   2.367  16.337
 4727SOL     OW25808   4.535   1.696  15.419
 4727SOL    HW125809   4.506   1.694  15.328
 4727SOL    HW225810   4.624   1.730  15.416
 4728SOL     OW25811   1.628   1.865  17.658
 4728SOL    HW125812   1.686   1.827  17.724
 4728SOL    HW225813   1.648   1.959  17.661
 4729SOL     OW25814   3.683   2.362  15.734
 4729SOL    HW125815   3.625   2.312  15.791
 4729SOL    HW225816   3.691   2.310  15.655
 4730SOL     OW25817   2.867   2.264  14.179
 4730SOL    HW125818   2.809   2.188  14.169
 4730SOL    HW225819   2.821   2.335  14.133
 4731SOL     OW25820   1.886   2.699  17.099
 4731SOL    HW125821   1.979   2.716  17.114
 4731SOL    HW225822   1.842   2.779  17.128
 4732SOL     OW25823   2.801   3.066  15.293
 4732SOL    HW125824   2.836   3.060  15.205
 4732SOL    HW225825   2.875   3.096  15.347
 4733SOL     OW25826   3.508   1.181  16.114
 4733SOL    HW125827   3.533   1.242  16.045
 4733SOL    HW225828   3.568   1.107  16.103
 4734SOL     OW25829   3.127   2.005  15.396
 4734SOL    HW125830   3.091   1.921  15.367
 4734SOL    HW225831   3.063   2.070  15.367
 4735SOL     OW25832   3.918   2.448  15.034
 4735SOL    HW125833   3.830   2.481  15.052
 4735SOL    HW225834   3.931   2.378  15.098
 4736SOL     OW25835   1.478   2.602  16.558
 4736SOL    HW125836   1.495   2.542  16.630
 4736SOL    HW225837   1.513   2.557  16.481
 4737SOL     OW25838   1.816   1.836  15.747
 4737SOL    HW125839   1.814   1.743  15.724
 4737SOL    HW225840   1.725   1.857  15.768
 4738SOL     OW25841   2.390   1.821  16.620
 4738SOL    HW125842   2.317   1.776  16.577
 4738SOL    HW225843   2.445   1.851  16.548
 4739SOL     OW25844   2.400   1.251  15.757
 4739SOL    HW125845   2.386   1.198  15.679
 4739SOL    HW225846   2.458   1.198  15.812
 4740SOL     OW25847   2.479   0.352  15.352
 4740SOL    HW125848   2.489   0.397  15.268
 4740SOL    HW225849   2.406   0.397  15.395
 4741SOL     OW25850   2.121   1.714  15.329
 4741SOL    HW125851   2.208   1.704  15.289
 4741SOL    HW225852   2.103   1.808  15.322
 4742SOL     OW25853   3.154   0.862  16.188
 4742SOL    HW125854   3.165   0.929  16.121
 4742SOL    HW225855   3.197   0.898  16.266
 4743SOL     OW25856   3.945   1.009  14.952
 4743SOL    HW125857   3.913   0.993  14.863
 4743SOL    HW225858   4.023   0.954  14.959
 4744SOL     OW25859   3.600   2.156  15.006
 4744SOL    HW125860   3.588   2.245  14.974
 4744SOL    HW225861   3.584   2.100  14.930
 4745SOL     OW25862   1.374   0.685  16.748
 4745SOL    HW125863   1.456   0.731  16.770
 4745SOL    HW225864   1.367   0.616  16.814
 4746SOL     OW25865   3.499   1.858  15.821
 4746SOL    HW125866   3.428   1.794  15.825
 4746SOL    HW225867   3.494   1.894  15.733
 4747SOL     OW25868   3.712   0.437  16.028
 4747SOL    HW125869   3.749   0.368  16.083
 4747SOL    HW225870   3.720   0.404  15.938
 4748SOL     OW25871   2.873   0.570  14.373
 4748SOL    HW125872   2.963   0.538  14.388
 4748SOL    HW225873   2.882   0.636  14.305
 4749SOL     OW25874   2.917   1.684  15.939
 4749SOL    HW125875   2.921   1.685  15.843
 4749SOL    HW225876   2.987   1.744  15.966
 4750SOL     OW25877   4.137   4.752  17.362
 4750SOL    HW125878   4.087   4.781  17.439
 4750SOL    HW225879   4.163   4.663  17.383
 4751SOL     OW25880   2.187   0.673  15.264
 4751SOL    HW125881   2.104   0.628  15.284
 4751SOL    HW225882   2.209   0.644  15.176
 4752SOL     OW25883   1.722   2.857  27.676
 4752SOL    HW125884   1.797   2.871  27.618
 4752SOL    HW225885   1.700   2.765  27.665
 4753SOL     OW25886   2.804   0.811  15.769
 4753SOL    HW125887   2.900   0.810  15.772
 4753SOL    HW225888   2.781   0.727  15.730
 4754SOL     OW25889   3.798   1.352  16.027
 4754SOL    HW125890   3.847   1.422  15.983
 4754SOL    HW225891   3.707   1.384  16.027
 4755SOL     OW25892   2.522   1.106  16.003
 4755SOL    HW125893   2.593   1.090  16.065
 4755SOL    HW225894   2.544   1.053  15.926
 4756SOL     OW25895   2.891   4.575  16.457
 4756SOL    HW125896   2.943   4.550  16.381
 4756SOL    HW225897   2.948   4.559  16.532
 4757SOL     OW25898   2.170   1.411  15.828
 4757SOL    HW125899   2.248   1.359  15.810
 4757SOL    HW225900   2.182   1.491  15.777
 4758SOL     OW25901   1.501   2.442  16.775
 4758SOL    HW125902   1.441   2.368  16.768
 4758SOL    HW225903   1.568   2.412  16.836
 4759SOL     OW25904   1.943   1.626  17.613
 4759SOL    HW125905   1.892   1.680  17.553
 4759SOL    HW225906   1.932   1.668  17.699
 4760SOL     OW25907   3.737   0.769  15.107
 4760SOL    HW125908   3.680   0.840  15.076
 4760SOL    HW225909   3.725   0.769  15.202
 4761SOL     OW25910   2.707   0.608  15.609
 4761SOL    HW125911   2.669   0.521  15.623
 4761SOL    HW225912   2.747   0.602  15.522
 4762SOL     OW25913   2.192   1.655  16.519
 4762SOL    HW125914   2.155   1.572  16.551
 4762SOL    HW225915   2.141   1.675  16.441
 4763SOL     OW25916   1.192   2.024  18.067
 4763SOL    HW125917   1.125   2.091  18.074
 4763SOL    HW225918   1.149   1.951  18.023
 4764SOL     OW25919   1.471   4.044  16.779
 4764SOL    HW125920   1.434   4.050  16.691
 4764SOL    HW225921   1.507   3.955  16.784
 4765SOL     OW25922   2.477   0.787  15.600
 4765SOL    HW125923   2.438   0.781  15.512
 4765SOL    HW225924   2.559   0.739  15.593
 4766SOL     OW25925   1.664   3.666  16.237
 4766SOL    HW125926   1.574   3.637  16.226
 4766SOL    HW225927   1.711   3.588  16.267
 4767SOL     OW25928   3.078   0.727  15.749
 4767SOL    HW125929   3.149   0.733  15.813
 4767SOL    HW225930   3.049   0.635  15.754
 4768SOL     OW25931   2.178   2.211  15.027
 4768SOL    HW125932   2.265   2.172  15.032
 4768SOL    HW225933   2.134   2.162  14.958
 4769SOL     OW25934   3.534   1.076  14.602
 4769SOL    HW125935   3.617   1.121  14.613
 4769SOL    HW225936   3.548   0.990  14.642
 4770SOL     OW25937   2.226   1.699  15.700
 4770SOL    HW125938   2.257   1.704  15.790
 4770SOL    HW225939   2.297   1.654  15.653
 4771SOL     OW25940   1.603   2.477  16.361
 4771SOL    HW125941   1.670   2.524  16.313
 4771SOL    HW225942   1.578   2.404  16.303
 4772SOL     OW25943   3.938   0.980  15.254
 4772SOL    HW125944   3.905   0.965  15.166
 4772SOL    HW225945   4.024   0.938  15.255
 4773SOL     OW25946   3.086   1.597  14.800
 4773SOL    HW125947   3.042   1.528  14.750
 4773SOL    HW225948   3.100   1.667  14.737
 4774SOL     OW25949   1.225   2.487  15.458
 4774SOL    HW125950   1.310   2.524  15.436
 4774SOL    HW225951   1.209   2.514  15.549
 4775SOL     OW25952   3.643   2.061  17.389
 4775SOL    HW125953   3.612   1.992  17.447
 4775SOL    HW225954   3.585   2.057  17.313
 4776SOL     OW25955   1.080   2.279  16.690
 4776SOL    HW125956   1.174   2.262  16.691
 4776SOL    HW225957   1.064   2.335  16.766
 4777SOL     OW25958   3.397   1.616  15.816
 4777SOL    HW125959   3.444   1.589  15.737
 4777SOL    HW225960   3.308   1.634  15.785
 4778SOL     OW25961   3.097   0.394  15.058
 4778SOL    HW125962   3.149   0.465  15.096
 4778SOL    HW225963   3.123   0.391  14.966
 4779SOL     OW25964   3.931   0.635  16.040
 4779SOL    HW125965   3.873   0.565  16.012
 4779SOL    HW225966   3.911   0.708  15.980
 4780SOL     OW25967   4.400   1.223  17.936
 4780SOL    HW125968   4.369   1.241  17.847
 4780SOL    HW225969   4.448   1.140  17.929
 4781SOL     OW25970   3.247   0.715  15.976
 4781SOL    HW125971   3.339   0.698  15.996
 4781SOL    HW225972   3.215   0.766  16.050
 4782SOL     OW25973   1.770   2.324  16.546
 4782SOL    HW125974   1.729   2.238  16.539
 4782SOL    HW225975   1.732   2.374  16.473
 4783SOL     OW25976   3.598   1.110  15.418
 4783SOL    HW125977   3.556   1.142  15.498
 4783SOL    HW225978   3.527   1.106  15.354
 4784SOL     OW25979   2.367   0.235  15.001
 4784SOL    HW125980   2.273   0.244  15.015
 4784SOL    HW225981   2.377   0.227  14.906
 4785SOL     OW25982   1.594   0.870  16.784
 4785SOL    HW125983   1.600   0.929  16.709
 4785SOL    HW225984   1.651   0.910  16.850
 4786SOL     OW25985   1.863   1.661  17.155
 4786SOL    HW125986   1.908   1.583  17.187
 4786SOL    HW225987   1.893   1.670  17.064
 4787SOL     OW25988   1.100   1.127  16.457
 4787SOL    HW125989   1.047   1.207  16.459
 4787SOL    HW225990   1.074   1.082  16.376
 4788SOL     OW25991   0.602   2.236  19.341
 4788SOL    HW125992   0.566   2.322  19.319
 4788SOL    HW225993   0.590   2.228  19.435
 4789SOL     OW25994   3.510   3.603   9.915
 4789SOL    HW125995   3.551   3.535   9.967
 4789SOL    HW225996   3.507   3.679   9.973
 4790SOL     OW25997   1.336   3.536   7.166
 4790SOL    HW125998   1.271   3.474   7.134
 4790SOL    HW225999   1.349   3.596   7.092
 4791SOL     OW26000   2.408   4.382   1.706
 4791SOL    HW126001   2.393   4.326   1.782
 4791SOL    HW226002   2.368   4.336   1.633
 4792SOL     OW26003   2.646   0.022  20.239
 4792SOL    HW126004   2.699   0.084  20.288
 4792SOL    HW226005   2.558   0.032  20.275
 4793SOL     OW26006   1.665   2.612  18.174
 4793SOL    HW126007   1.607   2.606  18.098
 4793SOL    HW226008   1.654   2.702  18.205
 4794SOL     OW26009   2.773   1.531  16.114
 4794SOL    HW126010   2.722   1.478  16.053
 4794SOL    HW226011   2.820   1.593  16.059
 4795SOL     OW26012   3.383   3.757   4.796
 4795SOL    HW126013   3.479   3.757   4.793
 4795SOL    HW226014   3.361   3.680   4.849
 4796SOL     OW26015   2.573   1.799  17.353
 4796SOL    HW126016   2.600   1.886  17.384
 4796SOL    HW226017   2.519   1.764  17.424
 4797SOL     OW26018   1.130   4.729  21.969
 4797SOL    HW126019   1.185   0.020  22.000
 4797SOL    HW226020   1.047   4.741  22.016
 4798SOL     OW26021   2.453   0.436  17.160
 4798SOL    HW126022   2.466   0.447  17.065
 4798SOL    HW226023   2.477   0.521  17.197
 4799SOL     OW26024   3.930   0.122   0.032
 4799SOL    HW126025   3.904   0.154  28.468
 4799SOL    HW226026   3.977   0.041   0.014
 4800SOL     OW26027   1.224   3.322  19.577
 4800SOL    HW126028   1.305   3.372  19.591
 4800SOL    HW226029   1.251   3.249  19.521
 4801SOL     OW26030   3.457   4.122  17.230
 4801SOL    HW126031   3.545   4.155  17.248
 4801SOL    HW226032   3.471   4.033  17.197
 4802SOL     OW26033   2.529   4.084   3.757
 4802SOL    HW126034   2.551   4.157   3.700
 4802SOL    HW226035   2.446   4.051   3.723
 4803SOL     OW26036   3.887   0.401  21.595
 4803SOL    HW126037   3.856   0.389  21.505
 4803SOL    HW226038   3.908   0.494  21.601
 4804SOL     OW26039   1.959   1.638  16.888
 4804SOL    HW126040   1.930   1.663  16.800
 4804SOL    HW226041   2.006   1.556  16.876
 4805SOL     OW26042   3.722   2.873  23.821
 4805SOL    HW126043   3.794   2.854  23.761
 4805SOL    HW226044   3.744   2.958  23.859
 4806SOL     OW26045   0.434   3.217   4.145
 4806SOL    HW126046   0.344   3.251   4.143
 4806SOL    HW226047   0.484   3.280   4.093
 4807SOL     OW26048   2.998   2.089   1.327
 4807SOL    HW126049   3.008   2.076   1.421
 4807SOL    HW226050   3.017   2.182   1.313
 4808SOL     OW26051   2.797   2.201  25.989
 4808SOL    HW126052   2.812   2.114  25.954
 4808SOL    HW226053   2.787   2.187  26.084
 4809SOL     OW26054   4.163   1.992  27.527
 4809SOL    HW126055   4.219   1.970  27.452
 4809SOL    HW226056   4.206   1.951  27.602
 4810SOL     OW26057   4.414   3.384  22.039
 4810SOL    HW126058   4.389   3.307  21.988
 4810SOL    HW226059   4.509   3.376  22.050
 4811SOL     OW26060   0.648   3.010   4.113
 4811SOL    HW126061   0.552   3.006   4.109
 4811SOL    HW226062   0.674   2.919   4.131
 4812SOL     OW26063   0.697   0.773  16.947
 4812SOL    HW126064   0.735   0.758  16.860
 4812SOL    HW226065   0.701   0.868  16.959
 4813SOL     OW26066   0.334   1.224   6.966
 4813SOL    HW126067   0.325   1.132   6.990
 4813SOL    HW226068   0.277   1.235   6.889
 4814SOL     OW26069   2.838   2.147  17.705
 4814SOL    HW126070   2.801   2.172  17.790
 4814SOL    HW226071   2.918   2.099  17.727
 4815SOL     OW26072   3.110   3.485  28.454
 4815SOL    HW126073   3.040   3.454  28.396
 4815SOL    HW226074   3.190   3.448  28.416
 4816SOL     OW26075   2.653   1.743  16.226
 4816SOL    HW126076   2.694   1.663  16.195
 4816SOL    HW226077   2.655   1.802  16.151
 4817SOL     OW26078   2.558   0.757  17.893
 4817SOL    HW126079   2.627   0.743  17.958
 4817SOL    HW226080   2.490   0.806  17.940
 4818SOL     OW26081   2.578   4.125   0.940
 4818SOL    HW126082   2.532   4.166   1.013
 4818SOL    HW226083   2.597   4.036   0.970
 4819SOL     OW26084   1.156   3.320   4.329
 4819SOL    HW126085   1.109   3.238   4.345
 4819SOL    HW226086   1.141   3.339   4.236
 4820SOL     OW26087   1.765   3.107  19.690
 4820SOL    HW126088   1.738   3.030  19.739
 4820SOL    HW226089   1.684   3.140  19.652
 4821SOL     OW26090   3.742   1.297   3.766
 4821SOL    HW126091   3.722   1.204   3.775
 4821SOL    HW226092   3.830   1.306   3.802
 4822SOL     OW26093   3.145   4.271  16.492
 4822SOL    HW126094   3.155   4.246  16.401
 4822SOL    HW226095   3.229   4.312  16.515
 4823SOL     OW26096   3.167   3.922   0.171
 4823SOL    HW126097   3.168   3.912   0.076
 4823SOL    HW226098   3.180   3.834   0.205
 4824SOL     OW26099   1.622   2.212  22.694
 4824SOL    HW126100   1.621   2.249  22.605
 4824SOL    HW226101   1.610   2.118  22.682
 4825SOL     OW26102   2.385   1.093   1.405
 4825SOL    HW126103   2.305   1.126   1.366
 4825SOL    HW226104   2.431   1.050   1.333
 4826SOL     OW26105   0.775   2.417  17.822
 4826SOL    HW126106   0.744   2.498  17.863
 4826SOL    HW226107   0.734   2.418  17.735
 4827SOL     OW26108   3.939   2.887  27.372
 4827SOL    HW126109   4.012   2.938  27.340
 4827SOL    HW226110   3.862   2.941  27.354
 4828SOL     OW26111   4.608   4.355   4.869
 4828SOL    HW126112   4.555   4.433   4.887
 4828SOL    HW226113   4.590   4.334   4.778
 4829SOL     OW26114   1.328   3.645  16.659
 4829SOL    HW126115   1.254   3.706  16.657
 4829SOL    HW226116   1.389   3.679  16.593
 4830SOL     OW26117   2.254   1.187  16.927
 4830SOL    HW126118   2.275   1.100  16.962
 4830SOL    HW226119   2.286   1.184  16.837
 4831SOL     OW26120   4.510   3.885  25.742
 4831SOL    HW126121   4.556   3.809  25.707
 4831SOL    HW226122   4.417   3.865  25.727
 4832SOL     OW26123   1.391   1.942   7.287
 4832SOL    HW126124   1.409   2.015   7.228
 4832SOL    HW226125   1.477   1.903   7.304
 4833SOL     OW26126   1.466   1.032  18.854
 4833SOL    HW126127   1.404   1.004  18.922
 4833SOL    HW226128   1.546   1.054  18.902
 4834SOL     OW26129   0.232   1.380  24.338
 4834SOL    HW126130   0.238   1.292  24.302
 4834SOL    HW226131   0.220   1.436  24.261
 4835SOL     OW26132   2.156   1.135  16.431
 4835SOL    HW126133   2.157   1.166  16.340
 4835SOL    HW226134   2.109   1.052  16.427
 4836SOL     OW26135   2.379   1.962  17.685
 4836SOL    HW126136   2.369   1.868  17.670
 4836SOL    HW226137   2.463   1.984  17.645
 4837SOL     OW26138   1.066   0.022  16.870
 4837SOL    HW126139   1.156   0.003  16.843
 4837SOL    HW226140   1.027   0.066  16.795
 4838SOL     OW26141   0.719   1.867  15.272
 4838SOL    HW126142   0.772   1.853  15.193
 4838SOL    HW226143   0.629   1.862  15.241
 4839SOL     OW26144   4.663   0.752  25.895
 4839SOL    HW126145   4.736   0.725  25.839
 4839SOL    HW226146   4.700   0.822  25.950
 4840SOL     OW26147   0.152   4.346  21.108
 4840SOL    HW126148   0.073   4.307  21.146
 4840SOL    HW226149   0.223   4.317  21.165
 4841SOL     OW26150   1.507   4.382  22.194
 4841SOL    HW126151   1.564   4.308  22.213
 4841SOL    HW226152   1.530   4.408  22.105
 4842SOL     OW26153   2.591   4.547  11.074
 4842SOL    HW126154   2.638   4.557  11.157
 4842SOL    HW226155   2.524   4.615  11.077
 4843SOL     OW26156   0.992   2.842  17.664
 4843SOL    HW126157   1.000   2.763  17.610
 4843SOL    HW226158   0.953   2.907  17.607
 4844SOL     OW26159   1.153   4.580  24.128
 4844SOL    HW126160   1.179   4.509  24.187
 4844SOL    HW226161   1.058   4.585  24.136
 4845SOL     OW26162   0.166   3.139   7.479
 4845SOL    HW126163   0.189   3.230   7.499
 4845SOL    HW226164   0.208   3.121   7.395
 4846SOL     OW26165   2.474   0.875  17.066
 4846SOL    HW126166   2.388   0.875  17.109
 4846SOL    HW226167   2.454   0.878  16.972
 4847SOL     OW26168   2.855   4.095  16.315
 4847SOL    HW126169   2.838   4.175  16.265
 4847SOL    HW226170   2.942   4.067  16.287
 4848SOL     OW26171   4.687   2.522   2.335
 4848SOL    HW126172   4.639   2.443   2.361
 4848SOL    HW226173   4.762   2.525   2.395
 4849SOL     OW26174   4.349   3.453   5.827
 4849SOL    HW126175   4.358   3.546   5.807
 4849SOL    HW226176   4.329   3.411   5.744
 4850SOL     OW26177   1.682   4.447  17.324
 4850SOL    HW126178   1.758   4.472  17.272
 4850SOL    HW226179   1.610   4.446  17.261
 4851SOL     OW26180   0.779   3.240   1.404
 4851SOL    HW126181   0.764   3.287   1.486
 4851SOL    HW226182   0.870   3.259   1.382
 4852SOL     OW26183   1.293   1.099   8.413
 4852SOL    HW126184   1.354   1.132   8.347
 4852SOL    HW226185   1.312   1.152   8.491
 4853SOL     OW26186   3.174   1.712  19.461
 4853SOL    HW126187   3.250   1.750  19.505
 4853SOL    HW226188   3.175   1.750  19.374
 4854SOL     OW26189   4.427   0.429  22.023
 4854SOL    HW126190   4.521   0.414  22.029
 4854SOL    HW226191   4.418   0.524  22.029
 4855SOL     OW26192   2.898   0.961  17.947
 4855SOL    HW126193   2.953   1.027  17.989
 4855SOL    HW226194   2.811   0.976  17.983
 4856SOL     OW26195   2.610   2.098  15.981
 4856SOL    HW126196   2.626   2.004  15.985
 4856SOL    HW226197   2.696   2.136  15.965
 4857SOL     OW26198   1.260   1.961  16.290
 4857SOL    HW126199   1.244   1.950  16.196
 4857SOL    HW226200   1.174   1.950  16.330
 4858SOL     OW26201   2.185   3.977  17.682
 4858SOL    HW126202   2.114   3.914  17.672
 4858SOL    HW226203   2.264   3.927  17.665
 4859SOL     OW26204   0.345   2.171  22.153
 4859SOL    HW126205   0.418   2.193  22.096
 4859SOL    HW226206   0.370   2.206  22.239
 4860SOL     OW26207   4.059   0.558  27.173
 4860SOL    HW126208   4.133   0.543  27.231
 4860SOL    HW226209   3.987   0.509  27.213
 4861SOL     OW26210   2.350   0.850  15.369
 4861SOL    HW126211   2.298   0.776  15.341
 4861SOL    HW226212   2.426   0.851  15.310
 4862SOL     OW26213   4.571   2.083  14.442
 4862SOL    HW126214   4.643   2.033  14.479
 4862SOL    HW226215   4.608   2.170  14.426
 4863SOL     OW26216   3.585   0.168  16.989
 4863SOL    HW126217   3.614   0.147  17.078
 4863SOL    HW226218   3.651   0.228  16.955
 4864SOL     OW26219   3.780   0.492  25.448
 4864SOL    HW126220   3.790   0.567  25.507
 4864SOL    HW226221   3.742   0.423  25.502
 4865SOL     OW26222   3.499   1.803   5.616
 4865SOL    HW126223   3.570   1.742   5.638
 4865SOL    HW226224   3.466   1.772   5.531
 4866SOL     OW26225   3.053   1.753  21.649
 4866SOL    HW126226   3.135   1.704  21.655
 4866SOL    HW226227   2.987   1.687  21.630
 4867SOL     OW26228   2.313   4.490   2.874
 4867SOL    HW126229   2.325   4.423   2.942
 4867SOL    HW226230   2.239   4.542   2.905
 4868SOL     OW26231   1.236   4.179  23.462
 4868SOL    HW126232   1.330   4.198  23.472
 4868SOL    HW226233   1.203   4.177  23.552
 4869SOL     OW26234   1.413   3.150  21.400
 4869SOL    HW126235   1.378   3.231  21.437
 4869SOL    HW226236   1.504   3.170  21.381
 4870SOL     OW26237   3.311   0.283  17.642
 4870SOL    HW126238   3.331   0.192  17.665
 4870SOL    HW226239   3.274   0.278  17.554
 4871SOL     OW26240   3.310   0.406  18.122
 4871SOL    HW126241   3.249   0.427  18.051
 4871SOL    HW226242   3.285   0.318  18.150
 4872SOL     OW26243   0.515   0.306  17.232
 4872SOL    HW126244   0.514   0.399  17.209
 4872SOL    HW226245   0.459   0.300  17.310
 4873SOL     OW26246   3.332   3.536  16.026
 4873SOL    HW126247   3.413   3.498  16.059
 4873SOL    HW226248   3.269   3.525  16.098
 4874SOL     OW26249   3.789   2.351   0.437
 4874SOL    HW126250   3.826   2.272   0.397
 4874SOL    HW226251   3.695   2.346   0.417
 4875SOL     OW26252   1.495   0.373   6.993
 4875SOL    HW126253   1.587   0.375   7.018
 4875SOL    HW226254   1.447   0.374   7.076
 4876SOL     OW26255   0.200   1.525   2.501
 4876SOL    HW126256   0.230   1.547   2.413
 4876SOL    HW226257   0.107   1.506   2.490
 4877SOL     OW26258   2.644   0.466  24.095
 4877SOL    HW126259   2.595   0.408  24.154
 4877SOL    HW226260   2.597   0.550  24.099
 4878SOL     OW26261   3.190   2.033   7.945
 4878SOL    HW126262   3.212   2.121   7.976
 4878SOL    HW226263   3.274   1.994   7.923
 4879SOL     OW26264   1.131   3.967  24.418
 4879SOL    HW126265   1.040   3.995  24.433
 4879SOL    HW226266   1.172   3.974  24.504
 4880SOL     OW26267   0.226   1.481   1.695
 4880SOL    HW126268   0.254   1.531   1.618
 4880SOL    HW226269   0.260   1.392   1.679
 4881SOL     OW26270   2.304   0.125   4.577
 4881SOL    HW126271   2.345   0.044   4.607
 4881SOL    HW226272   2.376   0.187   4.567
 4882SOL     OW26273   4.562   0.409  17.067
 4882SOL    HW126274   4.555   0.340  17.001
 4882SOL    HW226275   4.654   0.436  17.064
 4883SOL     OW26276   3.504   2.980  26.076
 4883SOL    HW126277   3.418   2.976  26.035
 4883SOL    HW226278   3.543   3.061  26.043
 4884SOL     OW26279   1.603   1.333   7.580
 4884SOL    HW126280   1.675   1.337   7.644
 4884SOL    HW226281   1.531   1.380   7.622
 4885SOL     OW26282   4.076   4.279   9.973
 4885SOL    HW126283   4.159   4.236   9.995
 4885SOL    HW226284   4.016   4.254  10.043
 4886SOL     OW26285   1.010   4.734   6.028
 4886SOL    HW126286   1.067   0.022   5.998
 4886SOL    HW226287   0.955   4.775   6.095
 4887SOL     OW26288   1.176   2.774  21.431
 4887SOL    HW126289   1.151   2.782  21.339
 4887SOL    HW226290   1.146   2.855  21.471
 4888SOL     OW26291   4.181   3.032  26.816
 4888SOL    HW126292   4.203   2.991  26.900
 4888SOL    HW226293   4.264   3.035  26.769
 4889SOL     OW26294   3.267   0.023  20.016
 4889SOL    HW126295   3.317   0.103  20.006
 4889SOL    HW226296   3.328   4.742  20.055
 4890SOL     OW26297   2.752   4.159  17.157
 4890SOL    HW126298   2.783   4.240  17.195
 4890SOL    HW226299   2.799   4.152  17.074
 4891SOL     OW26300   1.152   3.592  27.005
 4891SOL    HW126301   1.066   3.610  27.044
 4891SOL    HW226302   1.197   3.538  27.070
 4892SOL     OW26303   3.340   1.112   5.162
 4892SOL    HW126304   3.298   1.170   5.099
 4892SOL    HW226305   3.287   1.122   5.242
 4893SOL     OW26306   4.050   0.807  17.677
 4893SOL    HW126307   4.079   0.770  17.593
 4893SOL    HW226308   4.044   0.901  17.661
 4894SOL     OW26309   2.541   0.524  23.320
 4894SOL    HW126310   2.623   0.475  23.316
 4894SOL    HW226311   2.479   0.473  23.268
 4895SOL     OW26312   2.305   0.331  25.218
 4895SOL    HW126313   2.356   0.411  25.202
 4895SOL    HW226314   2.216   0.354  25.193
 4896SOL     OW26315   1.899   3.118   2.645
 4896SOL    HW126316   1.931   3.056   2.711
 4896SOL    HW226317   1.948   3.096   2.566
 4897SOL     OW26318   1.932   0.077   9.320
 4897SOL    HW126319   1.948   0.158   9.271
 4897SOL    HW226320   1.861   0.034   9.272
 4898SOL     OW26321   2.337   1.338   5.036
 4898SOL    HW126322   2.354   1.273   5.104
 4898SOL    HW226323   2.423   1.371   5.011
 4899SOL     OW26324   3.874   3.864  21.868
 4899SOL    HW126325   3.878   3.942  21.924
 4899SOL    HW226326   3.964   3.851  21.837
 4900SOL     OW26327   1.659   1.997  21.647
 4900SOL    HW126328   1.622   2.014  21.561
 4900SOL    HW226329   1.691   2.082  21.677
 4901SOL     OW26330   1.262   3.951  24.664
 4901SOL    HW126331   1.266   3.860  24.693
 4901SOL    HW226332   1.229   3.999  24.740
 4902SOL     OW26333   2.837   3.147   3.719
 4902SOL    HW126334   2.781   3.224   3.713
 4902SOL    HW226335   2.844   3.130   3.813
 4903SOL     OW26336   3.184   2.703  21.392
 4903SOL    HW126337   3.257   2.705  21.330
 4903SOL    HW226338   3.213   2.759  21.464
 4904SOL     OW26339   3.768   3.933  25.043
 4904SOL    HW126340   3.859   3.921  25.070
 4904SOL    HW226341   3.768   4.015  24.993
 4905SOL     OW26342   2.698   3.384   6.758
 4905SOL    HW126343   2.754   3.365   6.833
 4905SOL    HW226344   2.756   3.379   6.682
 4906SOL     OW26345   1.228   4.298   4.840
 4906SOL    HW126346   1.296   4.237   4.811
 4906SOL    HW226347   1.276   4.378   4.862
 4907SOL     OW26348   1.084   2.881  27.113
 4907SOL    HW126349   1.109   2.914  27.026
 4907SOL    HW226350   1.124   2.794  27.117
 4908SOL     OW26351   3.406   4.759  21.044
 4908SOL    HW126352   3.335   4.779  20.983
 4908SOL    HW226353   3.486   4.780  20.996
 4909SOL     OW26354   2.581   4.197   6.538
 4909SOL    HW126355   2.580   4.249   6.457
 4909SOL    HW226356   2.610   4.258   6.605
 4910SOL     OW26357   0.876   3.439  24.805
 4910SOL    HW126358   0.798   3.436  24.860
 4910SOL    HW226359   0.843   3.419  24.717
 4911SOL     OW26360   4.304   3.378  27.045
 4911SOL    HW126361   4.307   3.472  27.031
 4911SOL    HW226362   4.213   3.353  27.027
 4912SOL     OW26363   0.402   2.586  24.931
 4912SOL    HW126364   0.491   2.587  24.895
 4912SOL    HW226365   0.406   2.521  25.002
 4913SOL     OW26366   0.524   4.080   8.737
 4913SOL    HW126367   0.603   4.133   8.751
 4913SOL    HW226368   0.532   4.008   8.800
 4914SOL     OW26369   1.177   2.763   7.637
 4914SOL    HW126370   1.213   2.836   7.689
 4914SOL    HW226371   1.182   2.794   7.547
 4915SOL     OW26372   3.996   2.377   4.689
 4915SOL    HW126373   4.059   2.414   4.750
 4915SOL    HW226374   3.930   2.336   4.745
 4916SOL     OW26375   0.336   4.343   5.863
 4916SOL    HW126376   0.267   4.398   5.900
 4916SOL    HW226377   0.316   4.338   5.770
 4917SOL     OW26378   3.169   4.519  28.351
 4917SOL    HW126379   3.078   4.551  28.349
 4917SOL    HW226380   3.163   4.428  28.324
 4918SOL     OW26381   0.421   2.181  21.358
 4918SOL    HW126382   0.398   2.096  21.398
 4918SOL    HW226383   0.343   2.234  21.369
 4919SOL     OW26384   0.428   0.146  28.454
 4919SOL    HW126385   0.369   0.071  28.453
 4919SOL    HW226386   0.386   0.211  28.397
 4920SOL     OW26387   3.852   1.621  21.592
 4920SOL    HW126388   3.829   1.588  21.679
 4920SOL    HW226389   3.923   1.684  21.608
 4921SOL     OW26390   0.900   3.628  27.058
 4921SOL    HW126391   0.853   3.712  27.064
 4921SOL    HW226392   0.889   3.602  26.967
 4922SOL     OW26393   4.432   4.081   8.105
 4922SOL    HW126394   4.371   4.019   8.065
 4922SOL    HW226395   4.421   4.162   8.054
 4923SOL     OW26396   3.245   2.348  23.066
 4923SOL    HW126397   3.295   2.278  23.108
 4923SOL    HW226398   3.191   2.384  23.135
 4924SOL     OW26399   0.691   1.147   5.855
 4924SOL    HW126400   0.704   1.163   5.948
 4924SOL    HW226401   0.666   1.232   5.819
 4925SOL     OW26402   3.775   2.636  25.488
 4925SOL    HW126403   3.725   2.703  25.534
 4925SOL    HW226404   3.814   2.583  25.558
 4926SOL     OW26405   3.364   0.661   0.480
 4926SOL    HW126406   3.424   0.633   0.411
 4926SOL    HW226407   3.410   0.731   0.526
 4927SOL     OW26408   0.888   3.706   8.220
 4927SOL    HW126409   0.848   3.790   8.246
 4927SOL    HW226410   0.820   3.662   8.170
 4928SOL     OW26411   2.007   4.190  26.623
 4928SOL    HW126412   2.100   4.212  26.616
 4928SOL    HW226413   1.961   4.270  26.599
 4929SOL     OW26414   1.518   4.274  19.138
 4929SOL    HW126415   1.423   4.267  19.137
 4929SOL    HW226416   1.536   4.352  19.190
 4930SOL     OW26417   2.208   3.092   0.974
 4930SOL    HW126418   2.281   3.039   0.941
 4930SOL    HW226419   2.246   3.180   0.985
 4931SOL     OW26420   2.682   4.288  20.549
 4931SOL    HW126421   2.666   4.194  20.563
 4931SOL    HW226422   2.624   4.332  20.611
 4932SOL     OW26423   0.232   1.760  24.234
 4932SOL    HW126424   0.216   1.790  24.323
 4932SOL    HW226425   0.159   1.795  24.183
 4933SOL     OW26426   0.428   0.460  18.761
 4933SOL    HW126427   0.342   0.425  18.740
 4933SOL    HW226428   0.485   0.382  18.766
 4934SOL     OW26429   3.163   3.332  20.417
 4934SOL    HW126430   3.144   3.422  20.442
 4934SOL    HW226431   3.084   3.302  20.372
 4935SOL     OW26432   0.811   0.801  24.611
 4935SOL    HW126433   0.855   0.872  24.657
 4935SOL    HW226434   0.768   0.751  24.681
 4936SOL     OW26435   4.352   2.624   7.567
 4936SOL    HW126436   4.400   2.631   7.649
 4936SOL    HW226437   4.265   2.659   7.588
 4937SOL     OW26438   3.930   4.457  20.551
 4937SOL    HW126439   3.912   4.478  20.642
 4937SOL    HW226440   3.918   4.363  20.545
 4938SOL     OW26441   2.992   3.179  19.781
 4938SOL    HW126442   3.061   3.124  19.744
 4938SOL    HW226443   2.966   3.236  19.709
 4939SOL     OW26444   3.613   4.292  28.287
 4939SOL    HW126445   3.611   4.287  28.382
 4939SOL    HW226446   3.630   4.202  28.258
 4940SOL     OW26447   2.039   3.459   8.695
 4940SOL    HW126448   2.125   3.455   8.737
 4940SOL    HW226449   2.014   3.367   8.683
 4941SOL     OW26450   2.125   0.178  16.960
 4941SOL    HW126451   2.219   0.169  16.975
 4941SOL    HW226452   2.100   0.098  16.914
 4942SOL     OW26453   2.283   3.346   0.969
 4942SOL    HW126454   2.371   3.376   0.990
 4942SOL    HW226455   2.269   3.372   0.878
 4943SOL     OW26456   4.117   3.805   2.906
 4943SOL    HW126457   4.076   3.842   2.828
 4943SOL    HW226458   4.207   3.838   2.903
 4944SOL     OW26459   2.910   2.999  20.382
 4944SOL    HW126460   2.897   2.977  20.474
 4944SOL    HW226461   2.889   3.093  20.377
 4945SOL     OW26462   0.271   3.358  28.136
 4945SOL    HW126463   0.279   3.404  28.220
 4945SOL    HW226464   0.189   3.310  28.143
 4946SOL     OW26465   0.990   4.357   2.034
 4946SOL    HW126466   0.958   4.290   1.973
 4946SOL    HW226467   1.067   4.394   1.992
 4947SOL     OW26468   3.680   0.075  23.410
 4947SOL    HW126469   3.634   0.083  23.326
 4947SOL    HW226470   3.612   0.052  23.473
 4948SOL     OW26471   2.913   3.096   2.653
 4948SOL    HW126472   2.933   3.180   2.611
 4948SOL    HW226473   2.830   3.069   2.614
 4949SOL     OW26474   0.619   2.739   2.279
 4949SOL    HW126475   0.714   2.740   2.289
 4949SOL    HW226476   0.597   2.826   2.247
 4950SOL     OW26477   2.637   3.461  21.251
 4950SOL    HW126478   2.670   3.482  21.164
 4950SOL    HW226479   2.629   3.546  21.294
 4951SOL     OW26480   0.112   4.754   7.993
 4951SOL    HW126481   0.128   4.703   8.073
 4951SOL    HW226482   0.021   4.735   7.971
 4952SOL     OW26483   0.456   0.049  22.152
 4952SOL    HW126484   0.523   0.116  22.165
 4952SOL    HW226485   0.417   0.037  22.239
 4953SOL     OW26486   2.062   1.167  26.900
 4953SOL    HW126487   2.019   1.180  26.815
 4953SOL    HW226488   2.035   1.080  26.927
 4954SOL     OW26489   0.071   0.158   5.578
 4954SOL    HW126490   0.108   0.184   5.662
 4954SOL    HW226491   4.770   0.114   5.600
 4955SOL     OW26492   0.589   1.325  26.308
 4955SOL    HW126493   0.664   1.313  26.365
 4955SOL    HW226494   0.607   1.407  26.261
 4956SOL     OW26495   1.482   1.972   3.674
 4956SOL    HW126496   1.571   1.993   3.646
 4956SOL    HW226497   1.465   1.885   3.635
 4957SOL     OW26498   1.844   3.881  23.086
 4957SOL    HW126499   1.841   3.850  23.176
 4957SOL    HW226500   1.925   3.846  23.051
 4958SOL     OW26501   4.184   2.549   6.435
 4958SOL    HW126502   4.201   2.541   6.529
 4958SOL    HW226503   4.242   2.485   6.394
 4959SOL     OW26504   2.256   0.870  16.620
 4959SOL    HW126505   2.319   0.848  16.551
 4959SOL    HW226506   2.172   0.879  16.574
 4960SOL     OW26507   3.177   3.317  21.147
 4960SOL    HW126508   3.207   3.264  21.073
 4960SOL    HW226509   3.082   3.325  21.134
 4961SOL     OW26510   0.193   0.545   3.655
 4961SOL    HW126511   0.121   0.536   3.592
 4961SOL    HW226512   0.173   0.624   3.704
 4962SOL     OW26513   4.778   3.212   5.668
 4962SOL    HW126514   4.682   3.214   5.674
 4962SOL    HW226515   0.017   3.244   5.580
 4963SOL     OW26516   3.218   3.240   9.441
 4963SOL    HW126517   3.174   3.238   9.526
 4963SOL    HW226518   3.276   3.164   9.442
 4964SOL     OW26519   2.473   4.442   4.610
 4964SOL    HW126520   2.439   4.490   4.535
 4964SOL    HW226521   2.475   4.351   4.581
 4965SOL     OW26522   2.198   3.057  26.695
 4965SOL    HW126523   2.149   2.979  26.721
 4965SOL    HW226524   2.277   3.023  26.652
 4966SOL     OW26525   1.869   3.719   4.807
 4966SOL    HW126526   1.913   3.798   4.839
 4966SOL    HW226527   1.858   3.734   4.713
 4967SOL     OW26528   1.683   4.701  25.695
 4967SOL    HW126529   1.685   4.776  25.754
 4967SOL    HW226530   1.591   4.676  25.689
 4968SOL     OW26531   0.294   2.969   0.796
 4968SOL    HW126532   0.327   2.985   0.707
 4968SOL    HW226533   0.363   2.920   0.840
 4969SOL     OW26534   0.275   4.773  20.355
 4969SOL    HW126535   0.275   4.746  20.263
 4969SOL    HW226536   0.275   4.691  20.404
 4970SOL     OW26537   2.407   1.332   4.375
 4970SOL    HW126538   2.316   1.360   4.361
 4970SOL    HW226539   2.458   1.414   4.373
 4971SOL     OW26540   0.543   3.636  17.553
 4971SOL    HW126541   0.623   3.671  17.514
 4971SOL    HW226542   0.565   3.545  17.573
 4972SOL     OW26543   1.970   0.840  26.977
 4972SOL    HW126544   1.977   0.751  27.011
 4972SOL    HW226545   2.042   0.848  26.915
 4973SOL     OW26546   1.718   0.194  11.844
 4973SOL    HW126547   1.740   0.284  11.870
 4973SOL    HW226548   1.628   0.182  11.873
 4974SOL     OW26549   4.113   0.011  27.850
 4974SOL    HW126550   4.023   0.021  27.819
 4974SOL    HW226551   4.139   0.098  27.879
 4975SOL     OW26552   3.146   4.742  16.567
 4975SOL    HW126553   3.087   4.688  16.619
 4975SOL    HW226554   3.201   0.006  16.631
 4976SOL     OW26555   3.845   3.118  27.943
 4976SOL    HW126556   3.807   3.048  27.890
 4976SOL    HW226557   3.890   3.072  28.015
 4977SOL     OW26558   3.397   3.526   6.314
 4977SOL    HW126559   3.326   3.587   6.292
 4977SOL    HW226560   3.398   3.525   6.410
 4978SOL     OW26561   1.434   1.184  26.485
 4978SOL    HW126562   1.493   1.259  26.486
 4978SOL    HW226563   1.490   1.110  26.464
 4979SOL     OW26564   3.213   1.570   7.953
 4979SOL    HW126565   3.220   1.592   8.046
 4979SOL    HW226566   3.176   1.482   7.952
 4980SOL     OW26567   2.960   2.724  26.915
 4980SOL    HW126568   2.972   2.629  26.910
 4980SOL    HW226569   3.038   2.760  26.873
 4981SOL     OW26570   2.468   1.891  24.264
 4981SOL    HW126571   2.534   1.936  24.211
 4981SOL    HW226572   2.403   1.861  24.201
 4982SOL     OW26573   3.303   0.281  24.244
 4982SOL    HW126574   3.332   0.254  24.331
 4982SOL    HW226575   3.275   0.372  24.255
 4983SOL     OW26576   4.343   0.307   4.184
 4983SOL    HW126577   4.300   0.392   4.191
 4983SOL    HW226578   4.278   0.244   4.215
 4984SOL     OW26579   0.106   2.187   6.057
 4984SOL    HW126580   0.198   2.176   6.082
 4984SOL    HW226581   0.057   2.179   6.139
 4985SOL     OW26582   2.574   0.977  15.766
 4985SOL    HW126583   2.660   0.936  15.764
 4985SOL    HW226584   2.523   0.929  15.701
 4986SOL     OW26585   1.507   3.395  22.040
 4986SOL    HW126586   1.549   3.361  21.961
 4986SOL    HW226587   1.577   3.398  22.105
 4987SOL     OW26588   1.324   2.065  22.540
 4987SOL    HW126589   1.272   2.078  22.619
 4987SOL    HW226590   1.364   1.979  22.552
 4988SOL     OW26591   0.768   1.670  27.673
 4988SOL    HW126592   0.834   1.678  27.742
 4988SOL    HW226593   0.738   1.580  27.679
 4989SOL     OW26594   2.168   4.375   6.537
 4989SOL    HW126595   2.250   4.405   6.498
 4989SOL    HW226596   2.150   4.292   6.494
 4990SOL     OW26597   4.416   4.655   8.405
 4990SOL    HW126598   4.453   4.738   8.433
 4990SOL    HW226599   4.424   4.657   8.309
 4991SOL     OW26600   4.168   0.788   6.802
 4991SOL    HW126601   4.097   0.724   6.806
 4991SOL    HW226602   4.128   0.870   6.831
 4992SOL     OW26603   2.243   1.099  18.232
 4992SOL    HW126604   2.175   1.158  18.263
 4992SOL    HW226605   2.238   1.023  18.291
 4993SOL     OW26606   3.341   2.942  22.914
 4993SOL    HW126607   3.433   2.927  22.895
 4993SOL    HW226608   3.324   2.892  22.994
 4994SOL     OW26609   2.563   4.592   8.718
 4994SOL    HW126610   2.633   4.648   8.687
 4994SOL    HW226611   2.486   4.620   8.668
 4995SOL     OW26612   4.424   4.380  17.477
 4995SOL    HW126613   4.409   4.475  17.481
 4995SOL    HW226614   4.399   4.356  17.388
 4996SOL     OW26615   0.560   2.533  19.260
 4996SOL    HW126616   0.567   2.536  19.355
 4996SOL    HW226617   0.466   2.547  19.243
 4997SOL     OW26618   2.268   0.323   3.648
 4997SOL    HW126619   2.331   0.367   3.591
 4997SOL    HW226620   2.267   0.232   3.618
 4998SOL     OW26621   1.774   1.795   8.269
 4998SOL    HW126622   1.711   1.724   8.284
 4998SOL    HW226623   1.839   1.756   8.210
 4999SOL     OW26624   0.988   2.392   7.643
 4999SOL    HW126625   0.953   2.438   7.719
 4999SOL    HW226626   1.082   2.385   7.660
 5000SOL     OW26627   2.774   2.158  28.192
 5000SOL    HW126628   2.834   2.088  28.220
 5000SOL    HW226629   2.794   2.169  28.099
 5001SOL     OW26630   1.642   2.800   8.508
 5001SOL    HW126631   1.596   2.722   8.478
 5001SOL    HW226632   1.729   2.770   8.531
 5002SOL     OW26633   1.743   0.070  17.433
 5002SOL    HW126634   1.815   0.091  17.374
 5002SOL    HW226635   1.716   0.154  17.469
 5003SOL     OW26636   3.434   4.073  23.056
 5003SOL    HW126637   3.339   4.084  23.046
 5003SOL    HW226638   3.450   3.983  23.028
 5004SOL     OW26639   3.619   2.552   8.512
 5004SOL    HW126640   3.624   2.647   8.521
 5004SOL    HW226641   3.539   2.537   8.462
 5005SOL     OW26642   0.012   3.321   6.364
 5005SOL    HW126643   0.019   3.232   6.328
 5005SOL    HW226644   4.739   3.310   6.443
 5006SOL     OW26645   3.662   2.951  25.290
 5006SOL    HW126646   3.605   2.938  25.214
 5006SOL    HW226647   3.653   2.871  25.341
 5007SOL     OW26648   3.717   2.528   2.566
 5007SOL    HW126649   3.646   2.473   2.532
 5007SOL    HW226650   3.762   2.472   2.630
 5008SOL     OW26651   3.606   0.792   7.533
 5008SOL    HW126652   3.570   0.720   7.585
 5008SOL    HW226653   3.665   0.837   7.594
 5009SOL     OW26654   2.691   2.825  27.656
 5009SOL    HW126655   2.631   2.863  27.592
 5009SOL    HW226656   2.674   2.874  27.737
 5010SOL     OW26657   4.519   4.179   1.432
 5010SOL    HW126658   4.578   4.191   1.357
 5010SOL    HW226659   4.442   4.137   1.394
 5011SOL     OW26660   3.595   1.504   1.283
 5011SOL    HW126661   3.614   1.502   1.189
 5011SOL    HW226662   3.635   1.424   1.316
 5012SOL     OW26663   4.026   1.426   3.422
 5012SOL    HW126664   3.936   1.398   3.406
 5012SOL    HW226665   4.031   1.439   3.517
 5013SOL     OW26666   2.877   0.946  22.244
 5013SOL    HW126667   2.872   0.856  22.209
 5013SOL    HW226668   2.850   0.937  22.335
 5014SOL     OW26669   4.105   3.115   6.960
 5014SOL    HW126670   4.010   3.118   6.971
 5014SOL    HW226671   4.129   3.203   6.933
 5015SOL     OW26672   1.360   2.237   8.831
 5015SOL    HW126673   1.298   2.232   8.759
 5015SOL    HW226674   1.318   2.190   8.903
 5016SOL     OW26675   4.777   1.884  27.293
 5016SOL    HW126676   0.012   1.977  27.274
 5016SOL    HW226677   0.076   1.840  27.266
 5017SOL     OW26678   1.143   1.316  28.231
 5017SOL    HW126679   1.050   1.337  28.217
 5017SOL    HW226680   1.190   1.387  28.186
 5018SOL     OW26681   2.214   0.568   9.497
 5018SOL    HW126682   2.282   0.635   9.496
 5018SOL    HW226683   2.157   0.593   9.570
 5019SOL     OW26684   2.565   4.465   7.684
 5019SOL    HW126685   2.480   4.450   7.725
 5019SOL    HW226686   2.550   4.452   7.590
 5020SOL     OW26687   0.011   1.879   3.508
 5020SOL    HW126688   4.756   1.966   3.491
 5020SOL    HW226689   4.717   1.826   3.534
 5021SOL     OW26690   2.697   3.110  20.575
 5021SOL    HW126691   2.649   3.028  20.562
 5021SOL    HW226692   2.631   3.178  20.566
 5022SOL     OW26693   0.074   4.214  26.078
 5022SOL    HW126694   0.032   4.142  26.126
 5022SOL    HW226695   0.061   4.291  26.134
 5023SOL     OW26696   2.643   1.146  16.668
 5023SOL    HW126697   2.629   1.175  16.578
 5023SOL    HW226698   2.630   1.224  16.721
 5024SOL     OW26699   1.188   0.615  24.239
 5024SOL    HW126700   1.263   0.666  24.270
 5024SOL    HW226701   1.116   0.642  24.295
 5025SOL     OW26702   3.447   3.155  19.190
 5025SOL    HW126703   3.467   3.239  19.148
 5025SOL    HW226704   3.399   3.106  19.124
 5026SOL     OW26705   4.324   3.466  16.735
 5026SOL    HW126706   4.250   3.509  16.692
 5026SOL    HW226707   4.394   3.466  16.669
 5027SOL     OW26708   0.920   1.804  26.261
 5027SOL    HW126709   0.941   1.799  26.168
 5027SOL    HW226710   0.931   1.714  26.293
 5028SOL     OW26711   4.047   0.375   4.493
 5028SOL    HW126712   4.026   0.389   4.585
 5028SOL    HW226713   3.972   0.411   4.445
 5029SOL     OW26714   0.638   2.812   7.050
 5029SOL    HW126715   0.714   2.869   7.044
 5029SOL    HW226716   0.574   2.850   6.989
 5030SOL     OW26717   3.466   1.520  20.871
 5030SOL    HW126718   3.407   1.549  20.940
 5030SOL    HW226719   3.508   1.441  20.906
 5031SOL     OW26720   2.718   1.397  20.547
 5031SOL    HW126721   2.752   1.374  20.633
 5031SOL    HW226722   2.665   1.475  20.562
 5032SOL     OW26723   3.562   3.439  25.792
 5032SOL    HW126724   3.591   3.497  25.722
 5032SOL    HW226725   3.597   3.354  25.768
 5033SOL     OW26726   0.697   3.344  21.773
 5033SOL    HW126727   0.629   3.277  21.778
 5033SOL    HW226728   0.777   3.298  21.801
 5034SOL     OW26729   2.901   0.384   6.250
 5034SOL    HW126730   2.808   0.401   6.267
 5034SOL    HW226731   2.941   0.471   6.248
 5035SOL     OW26732   3.213   1.656  23.554
 5035SOL    HW126733   3.247   1.580  23.601
 5035SOL    HW226734   3.137   1.623  23.507
 5036SOL     OW26735   0.874   2.100  22.638
 5036SOL    HW126736   0.795   2.153  22.654
 5036SOL    HW226737   0.847   2.037  22.572
 5037SOL     OW26738   3.382   2.498   8.909
 5037SOL    HW126739   3.292   2.514   8.937
 5037SOL    HW226740   3.381   2.515   8.815
 5038SOL     OW26741   1.690   4.177  21.973
 5038SOL    HW126742   1.779   4.192  21.942
 5038SOL    HW226743   1.701   4.132  22.057
 5039SOL     OW26744   0.263   4.073   8.850
 5039SOL    HW126745   0.256   3.982   8.879
 5039SOL    HW226746   0.348   4.076   8.806
 5040SOL     OW26747   3.555   3.399  16.837
 5040SOL    HW126748   3.641   3.381  16.800
 5040SOL    HW226749   3.520   3.470  16.784
 5041SOL     OW26750   4.451   0.970   8.958
 5041SOL    HW126751   4.504   0.969   9.038
 5041SOL    HW226752   4.513   0.986   8.888
 5042SOL     OW26753   3.665   1.906   0.247
 5042SOL    HW126754   3.575   1.881   0.227
 5042SOL    HW226755   3.695   1.842   0.311
 5043SOL     OW26756   0.896   4.186  27.598
 5043SOL    HW126757   0.910   4.262  27.655
 5043SOL    HW226758   0.857   4.222  27.519
 5044SOL     OW26759   3.372   3.529   0.595
 5044SOL    HW126760   3.417   3.489   0.520
 5044SOL    HW226761   3.439   3.581   0.638
 5045SOL     OW26762   0.738   1.523   9.861
 5045SOL    HW126763   0.831   1.537   9.877
 5045SOL    HW226764   0.694   1.571   9.931
 5046SOL     OW26765   2.863   4.358   3.002
 5046SOL    HW126766   2.878   4.265   3.015
 5046SOL    HW226767   2.864   4.370   2.907
 5047SOL     OW26768   3.830   1.146  19.947
 5047SOL    HW126769   3.800   1.186  20.029
 5047SOL    HW226770   3.819   1.215  19.881
 5048SOL     OW26771   2.681   0.633   0.581
 5048SOL    HW126772   2.629   0.706   0.547
 5048SOL    HW226773   2.675   0.566   0.513
 5049SOL     OW26774   4.471   3.033  26.195
 5049SOL    HW126775   4.393   3.031  26.250
 5049SOL    HW226776   4.439   3.021  26.106
 5050SOL     OW26777   3.084   0.349  25.201
 5050SOL    HW126778   3.012   0.343  25.263
 5050SOL    HW226779   3.045   0.384  25.121
 5051SOL     OW26780   2.207   4.099  18.529
 5051SOL    HW126781   2.135   4.117  18.468
 5051SOL    HW226782   2.261   4.035  18.483
 5052SOL     OW26783   1.284   1.214   1.157
 5052SOL    HW126784   1.354   1.246   1.101
 5052SOL    HW226785   1.308   1.123   1.176
 5053SOL     OW26786   3.301   1.770  25.540
 5053SOL    HW126787   3.393   1.764  25.567
 5053SOL    HW226788   3.251   1.746  25.618
 5054SOL     OW26789   1.628   2.760   5.362
 5054SOL    HW126790   1.637   2.850   5.331
 5054SOL    HW226791   1.689   2.710   5.308
 5055SOL     OW26792   0.564   2.530  24.336
 5055SOL    HW126793   0.508   2.571  24.269
 5055SOL    HW226794   0.577   2.441  24.304
 5056SOL     OW26795   3.233   4.303   8.507
 5056SOL    HW126796   3.314   4.314   8.457
 5056SOL    HW226797   3.172   4.366   8.468
 5057SOL     OW26798   4.529   1.428   4.432
 5057SOL    HW126799   4.485   1.390   4.508
 5057SOL    HW226800   4.542   1.354   4.372
 5058SOL     OW26801   1.773   4.406   4.389
 5058SOL    HW126802   1.707   4.460   4.433
 5058SOL    HW226803   1.848   4.465   4.377
 5059SOL     OW26804   2.851   3.957   4.210
 5059SOL    HW126805   2.884   4.035   4.254
 5059SOL    HW226806   2.920   3.934   4.148
 5060SOL     OW26807   3.618   0.556  25.863
 5060SOL    HW126808   3.638   0.532  25.953
 5060SOL    HW226809   3.537   0.608  25.869
 5061SOL     OW26810   0.642   0.967  28.164
 5061SOL    HW126811   0.585   1.041  28.143
 5061SOL    HW226812   0.705   1.001  28.227
 5062SOL     OW26813   1.164   1.125  11.109
 5062SOL    HW126814   1.110   1.121  11.187
 5062SOL    HW226815   1.230   1.192  11.129
 5063SOL     OW26816   4.636   2.538  18.849
 5063SOL    HW126817   4.562   2.523  18.790
 5063SOL    HW226818   4.598   2.583  18.925
 5064SOL     OW26819   0.720   0.390   1.496
 5064SOL    HW126820   0.752   0.355   1.413
 5064SOL    HW226821   0.790   0.445   1.528
 5065SOL     OW26822   4.266   2.476   9.250
 5065SOL    HW126823   4.270   2.571   9.263
 5065SOL    HW226824   4.176   2.452   9.270
 5066SOL     OW26825   0.970   2.399   6.388
 5066SOL    HW126826   1.007   2.393   6.476
 5066SOL    HW226827   1.016   2.332   6.337
 5067SOL     OW26828   0.534   0.047  23.634
 5067SOL    HW126829   0.582   0.112  23.583
 5067SOL    HW226830   0.460   0.023  23.579
 5068SOL     OW26831   1.685   0.352  25.474
 5068SOL    HW126832   1.709   0.444  25.465
 5068SOL    HW226833   1.675   0.339  25.569
 5069SOL     OW26834   4.343   3.825   4.710
 5069SOL    HW126835   4.366   3.895   4.649
 5069SOL    HW226836   4.423   3.808   4.759
 5070SOL     OW26837   3.075   1.160  27.990
 5070SOL    HW126838   3.122   1.220  28.047
 5070SOL    HW226839   3.102   1.073  28.019
 5071SOL     OW26840   2.198   3.443  21.277
 5071SOL    HW126841   2.191   3.525  21.326
 5071SOL    HW226842   2.221   3.378  21.343
 5072SOL     OW26843   1.188   3.904   7.502
 5072SOL    HW126844   1.218   3.940   7.586
 5072SOL    HW226845   1.207   3.811   7.508
 5073SOL     OW26846   2.332   1.897   3.953
 5073SOL    HW126847   2.255   1.930   3.907
 5073SOL    HW226848   2.308   1.898   4.045
 5074SOL     OW26849   1.675   3.426   6.450
 5074SOL    HW126850   1.748   3.487   6.462
 5074SOL    HW226851   1.597   3.482   6.450
 5075SOL     OW26852   0.342   4.091  19.912
 5075SOL    HW126853   0.265   4.042  19.883
 5075SOL    HW226854   0.408   4.023  19.930
 5076SOL     OW26855   3.428   2.710  23.648
 5076SOL    HW126856   3.440   2.622  23.615
 5076SOL    HW226857   3.450   2.704  23.741
 5077SOL     OW26858   4.555   4.759  24.548
 5077SOL    HW126859   4.490   4.689  24.534
 5077SOL    HW226860   4.508   0.044  24.599
 5078SOL     OW26861   0.297   2.718   5.976
 5078SOL    HW126862   0.255   2.746   5.894
 5078SOL    HW226863   0.347   2.795   6.005
 5079SOL     OW26864   1.625   0.419  21.391
 5079SOL    HW126865   1.702   0.362  21.386
 5079SOL    HW226866   1.623   0.466  21.308
 5080SOL     OW26867   0.967   4.002   7.349
 5080SOL    HW126868   0.987   4.066   7.282
 5080SOL    HW226869   1.039   4.010   7.412
 5081SOL     OW26870   0.140   0.263  27.718
 5081SOL    HW126871   0.168   0.183  27.763
 5081SOL    HW226872   0.119   0.233  27.629
 5082SOL     OW26873   3.845   1.358  17.777
 5082SOL    HW126874   3.845   1.436  17.833
 5082SOL    HW226875   3.888   1.386  17.696
 5083SOL     OW26876   3.244   3.648  17.608
 5083SOL    HW126877   3.314   3.614  17.664
 5083SOL    HW226878   3.281   3.729  17.572
 5084SOL     OW26879   1.092   1.853   8.856
 5084SOL    HW126880   1.167   1.800   8.879
 5084SOL    HW226881   1.036   1.851   8.933
 5085SOL     OW26882   2.045   4.626   5.528
 5085SOL    HW126883   2.035   4.545   5.577
 5085SOL    HW226884   1.994   4.612   5.448
 5086SOL     OW26885   3.146   0.562   3.004
 5086SOL    HW126886   3.161   0.510   3.083
 5086SOL    HW226887   3.051   0.561   2.993
 5087SOL     OW26888   0.223   1.522   1.209
 5087SOL    HW126889   0.307   1.478   1.197
 5087SOL    HW226890   0.164   1.478   1.149
 5088SOL     OW26891   4.338   0.073   6.056
 5088SOL    HW126892   4.279   0.133   6.101
 5088SOL    HW226893   4.420   0.078   6.106
 5089SOL     OW26894   1.587   3.991  18.724
 5089SOL    HW126895   1.653   4.059  18.709
 5089SOL    HW226896   1.568   3.956  18.637
 5090SOL     OW26897   0.438   1.486   3.848
 5090SOL    HW126898   0.417   1.473   3.941
 5090SOL    HW226899   0.353   1.485   3.804
 5091SOL     OW26900   0.318   2.653  20.064
 5091SOL    HW126901   0.235   2.658  20.111
 5091SOL    HW226902   0.385   2.663  20.132
 5092SOL     OW26903   0.198   1.839   0.620
 5092SOL    HW126904   0.113   1.840   0.577
 5092SOL    HW226905   0.250   1.775   0.571
 5093SOL     OW26906   3.927   4.316   0.685
 5093SOL    HW126907   3.831   4.320   0.690
 5093SOL    HW226908   3.953   4.404   0.658
 5094SOL     OW26909   2.385   3.639  25.761
 5094SOL    HW126910   2.396   3.693  25.840
 5094SOL    HW226911   2.313   3.580  25.783
 5095SOL     OW26912   4.573   0.913  23.188
 5095SOL    HW126913   4.513   0.844  23.161
 5095SOL    HW226914   4.547   0.934  23.278
 5096SOL     OW26915   1.178   2.475  19.425
 5096SOL    HW126916   1.169   2.551  19.366
 5096SOL    HW226917   1.215   2.511  19.505
 5097SOL     OW26918   2.703   4.632  27.800
 5097SOL    HW126919   2.718   4.541  27.824
 5097SOL    HW226920   2.779   4.657  27.748
 5098SOL     OW26921   1.213   2.887  28.173
 5098SOL    HW126922   1.180   2.921  28.256
 5098SOL    HW226923   1.286   2.944  28.151
 5099SOL     OW26924   0.436   4.467  19.604
 5099SOL    HW126925   0.464   4.376  19.599
 5099SOL    HW226926   0.389   4.473  19.687
 5100SOL     OW26927   0.050   1.940   4.405
 5100SOL    HW126928   4.740   1.962   4.382
 5100SOL    HW226929   0.044   1.904   4.493
 5101SOL     OW26930   3.544   1.315   3.495
 5101SOL    HW126931   3.557   1.267   3.413
 5101SOL    HW226932   3.628   1.360   3.509
 5102SOL     OW26933   3.523   3.782   1.040
 5102SOL    HW126934   3.454   3.842   1.013
 5102SOL    HW226935   3.478   3.713   1.090
 5103SOL     OW26936   3.972   3.113  19.690
 5103SOL    HW126937   3.940   3.196  19.657
 5103SOL    HW226938   3.991   3.062  19.611
 5104SOL     OW26939   0.354   3.739  21.784
 5104SOL    HW126940   0.336   3.770  21.695
 5104SOL    HW226941   0.427   3.794  21.814
 5105SOL     OW26942   2.142   0.986  25.939
 5105SOL    HW126943   2.083   0.977  26.014
 5105SOL    HW226944   2.088   0.960  25.864
 5106SOL     OW26945   2.054   4.751   1.926
 5106SOL    HW126946   2.105   4.679   1.888
 5106SOL    HW226947   2.097   0.049   1.894
 5107SOL     OW26948   1.696   2.286   9.753
 5107SOL    HW126949   1.775   2.313   9.706
 5107SOL    HW226950   1.624   2.323   9.704
 5108SOL     OW26951   2.410   1.169   9.508
 5108SOL    HW126952   2.331   1.116   9.523
 5108SOL    HW226953   2.382   1.259   9.526
 5109SOL     OW26954   4.199   1.659  19.867
 5109SOL    HW126955   4.195   1.726  19.798
 5109SOL    HW226956   4.164   1.702  19.945
 5110SOL     OW26957   1.833   0.115  20.819
 5110SOL    HW126958   1.806   0.046  20.759
 5110SOL    HW226959   1.851   0.071  20.902
 5111SOL     OW26960   4.199   0.213  27.562
 5111SOL    HW126961   4.192   0.239  27.654
 5111SOL    HW226962   4.257   0.278  27.524
 5112SOL     OW26963   0.034   3.583  24.321
 5112SOL    HW126964   4.774   3.499  24.299
 5112SOL    HW226965   4.763   3.617  24.394
 5113SOL     OW26966   1.056   3.856  17.095
 5113SOL    HW126967   1.016   3.919  17.155
 5113SOL    HW226968   1.106   3.797  17.151
 5114SOL     OW26969   4.268   0.475   8.621
 5114SOL    HW126970   4.175   0.480   8.643
 5114SOL    HW226971   4.270   0.481   8.525
 5115SOL     OW26972   1.987   4.574   7.052
 5115SOL    HW126973   1.952   4.589   6.964
 5115SOL    HW226974   2.082   4.579   7.041
 5116SOL     OW26975   2.589   2.397   6.719
 5116SOL    HW126976   2.549   2.395   6.632
 5116SOL    HW226977   2.515   2.393   6.779
 5117SOL     OW26978   4.287   0.621  21.653
 5117SOL    HW126979   4.298   0.690  21.719
 5117SOL    HW226980   4.193   0.619  21.637
 5118SOL     OW26981   3.041   1.851   1.647
 5118SOL    HW126982   3.103   1.917   1.677
 5118SOL    HW226983   3.094   1.786   1.601
 5119SOL     OW26984   1.915   1.750   5.011
 5119SOL    HW126985   1.844   1.811   4.991
 5119SOL    HW226986   1.934   1.706   4.928
 5120SOL     OW26987   3.555   0.071  26.156
 5120SOL    HW126988   3.480   0.045  26.102
 5120SOL    HW226989   3.629   0.027  26.115
 5121SOL     OW26990   1.188   1.262   3.990
 5121SOL    HW126991   1.173   1.273   4.084
 5121SOL    HW226992   1.130   1.326   3.948
 5122SOL     OW26993   0.890   0.780  10.184
 5122SOL    HW126994   0.920   0.751  10.270
 5122SOL    HW226995   0.906   0.705  10.127
 5123SOL     OW26996   0.080   3.308   5.394
 5123SOL    HW126997   0.079   3.221   5.355
 5123SOL    HW226998   0.154   3.352   5.353
 5124SOL     OW26999   3.042   4.365  20.518
 5124SOL    HW127000   3.123   4.414  20.503
 5124SOL    HW227001   2.973   4.431  20.516
 5125SOL     OW27002   4.129   1.824   8.174
 5125SOL    HW127003   4.213   1.859   8.146
 5125SOL    HW227004   4.072   1.901   8.183
 5126SOL     OW27005   2.739   3.111   3.406
 5126SOL    HW127006   2.802   3.056   3.361
 5126SOL    HW227007   2.744   3.085   3.498
 5127SOL     OW27008   0.647   0.360  27.359
 5127SOL    HW127009   0.561   0.334  27.391
 5127SOL    HW227010   0.654   0.453  27.381
 5128SOL     OW27011   1.250   2.992   1.453
 5128SOL    HW127012   1.196   3.000   1.531
 5128SOL    HW227013   1.192   3.018   1.381
 5129SOL     OW27014   4.720   0.541   1.255
 5129SOL    HW127015   0.003   0.519   1.323
 5129SOL    HW227016   4.774   0.569   1.181
 5130SOL     OW27017   1.348   2.340  23.143
 5130SOL    HW127018   1.425   2.283  23.153
 5130SOL    HW227019   1.373   2.402  23.075
 5131SOL     OW27020   3.764   1.329  18.565
 5131SOL    HW127021   3.712   1.307  18.642
 5131SOL    HW227022   3.854   1.306  18.590
 5132SOL     OW27023   1.195   4.649  23.850
 5132SOL    HW127024   1.200   4.612  23.938
 5132SOL    HW227025   1.206   4.744  23.863
 5133SOL     OW27026   1.045   1.879  25.375
 5133SOL    HW127027   0.978   1.896  25.309
 5133SOL    HW227028   0.997   1.837  25.446
 5134SOL     OW27029   4.246   1.006   9.146
 5134SOL    HW127030   4.182   1.054   9.094
 5134SOL    HW227031   4.318   0.989   9.086
 5135SOL     OW27032   3.539   4.420  24.892
 5135SOL    HW127033   3.508   4.330  24.887
 5135SOL    HW227034   3.523   4.446  24.982
 5136SOL     OW27035   3.507   2.107   3.240
 5136SOL    HW127036   3.502   2.026   3.190
 5136SOL    HW227037   3.519   2.176   3.174
 5137SOL     OW27038   4.156   3.727  28.273
 5137SOL    HW127039   4.192   3.783  28.342
 5137SOL    HW227040   4.232   3.700  28.222
 5138SOL     OW27041   2.016   4.017   0.388
 5138SOL    HW127042   1.985   4.017   0.478
 5138SOL    HW227043   2.111   4.026   0.395
 5139SOL     OW27044   1.538   1.941  20.972
 5139SOL    HW127045   1.485   1.978  21.043
 5139SOL    HW227046   1.477   1.886  20.923
 5140SOL     OW27047   0.575   2.650   3.390
 5140SOL    HW127048   0.664   2.627   3.364
 5140SOL    HW227049   0.573   2.745   3.391
 5141SOL     OW27050   3.725   2.767   8.849
 5141SOL    HW127051   3.702   2.816   8.770
 5141SOL    HW227052   3.804   2.810   8.881
 5142SOL     OW27053   4.662   0.388   8.079
 5142SOL    HW127054   4.754   0.406   8.100
 5142SOL    HW227055   4.644   0.304   8.122
 5143SOL     OW27056   4.433   2.338   6.318
 5143SOL    HW127057   4.447   2.314   6.226
 5143SOL    HW227058   4.495   2.410   6.334
 5144SOL     OW27059   3.248   1.856  26.497
 5144SOL    HW127060   3.278   1.853  26.588
 5144SOL    HW227061   3.153   1.869  26.504
 5145SOL     OW27062   0.022   2.772   6.560
 5145SOL    HW127063   0.079   2.711   6.514
 5145SOL    HW227064   0.035   2.753   6.653
 5146SOL     OW27065   4.658   4.750   7.492
 5146SOL    HW127066   4.665   4.681   7.559
 5146SOL    HW227067   4.583   0.021   7.519
 5147SOL     OW27068   0.799   4.083  22.952
 5147SOL    HW127069   0.746   4.046  23.022
 5147SOL    HW227070   0.857   4.011  22.926
 5148SOL     OW27071   3.808   3.844   5.471
 5148SOL    HW127072   3.823   3.827   5.565
 5148SOL    HW227073   3.721   3.806   5.454
 5149SOL     OW27074   1.043   0.846  27.189
 5149SOL    HW127075   1.000   0.920  27.232
 5149SOL    HW227076   1.107   0.887  27.130
 5150SOL     OW27077   3.819   4.118  27.699
 5150SOL    HW127078   3.888   4.159  27.647
 5150SOL    HW227079   3.758   4.190  27.718
 5151SOL     OW27080   0.686   0.532  22.850
 5151SOL    HW127081   0.775   0.562  22.869
 5151SOL    HW227082   0.692   0.436  22.857
 5152SOL     OW27083   3.735   2.960   5.978
 5152SOL    HW127084   3.827   2.968   5.954
 5152SOL    HW227085   3.688   2.966   5.894
 5153SOL     OW27086   2.820   4.388   2.008
 5153SOL    HW127087   2.741   4.437   2.032
 5153SOL    HW227088   2.830   4.404   1.914
 5154SOL     OW27089   3.184   3.223   7.157
 5154SOL    HW127090   3.189   3.312   7.190
 5154SOL    HW227091   3.273   3.188   7.165
 5155SOL     OW27092   2.937   1.921  25.402
 5155SOL    HW127093   2.861   1.979  25.412
 5155SOL    HW227094   3.010   1.973  25.435
 5156SOL     OW27095   3.962   1.037  19.740
 5156SOL    HW127096   3.948   1.108  19.677
 5156SOL    HW227097   3.912   1.063  19.817
 5157SOL     OW27098   4.451   2.254   6.074
 5157SOL    HW127099   4.535   2.289   6.045
 5157SOL    HW227100   4.465   2.159   6.078
 5158SOL     OW27101   3.979   0.696  26.499
 5158SOL    HW127102   3.907   0.738  26.545
 5158SOL    HW227103   4.042   0.673  26.567
 5159SOL     OW27104   3.528   4.288   9.122
 5159SOL    HW127105   3.485   4.354   9.176
 5159SOL    HW227106   3.611   4.271   9.165
 5160SOL     OW27107   1.819   4.002  27.234
 5160SOL    HW127108   1.803   3.936  27.302
 5160SOL    HW227109   1.772   3.969  27.157
 5161SOL     OW27110   0.252   2.473   3.207
 5161SOL    HW127111   0.163   2.489   3.237
 5161SOL    HW227112   0.257   2.520   3.123
 5162SOL     OW27113   4.472   0.405   5.744
 5162SOL    HW127114   4.562   0.409   5.712
 5162SOL    HW227115   4.420   0.380   5.667
 5163SOL     OW27116   0.019   4.205  23.088
 5163SOL    HW127117   0.049   4.283  23.133
 5163SOL    HW227118   4.706   4.200  23.107
 5164SOL     OW27119   4.312   3.776  24.663
 5164SOL    HW127120   4.284   3.788  24.754
 5164SOL    HW227121   4.405   3.755  24.669
 5165SOL     OW27122   3.085   4.010  27.441
 5165SOL    HW127123   3.013   3.976  27.388
 5165SOL    HW227124   3.120   3.932  27.485
 5166SOL     OW27125   2.719   3.964   3.457
 5166SOL    HW127126   2.773   3.894   3.419
 5166SOL    HW227127   2.631   3.925   3.463
 5167SOL     OW27128   1.226   2.624  20.297
 5167SOL    HW127129   1.287   2.698  20.308
 5167SOL    HW227130   1.271   2.550  20.336
 5168SOL     OW27131   3.753   4.310  22.760
 5168SOL    HW127132   3.784   4.222  22.741
 5168SOL    HW227133   3.695   4.298  22.836
 5169SOL     OW27134   2.787   1.397   6.002
 5169SOL    HW127135   2.702   1.357   5.987
 5169SOL    HW227136   2.836   1.333   6.054
 5170SOL     OW27137   3.967   4.034  23.707
 5170SOL    HW127138   4.032   4.008  23.771
 5170SOL    HW227139   3.931   4.117  23.740
 5171SOL     OW27140   3.116   0.590   6.295
 5171SOL    HW127141   3.059   0.616   6.368
 5171SOL    HW227142   3.112   0.664   6.234
 5172SOL     OW27143   0.061   3.436   3.628
 5172SOL    HW127144   0.081   3.442   3.721
 5172SOL    HW227145   4.751   3.466   3.621
 5173SOL     OW27146   1.436   1.886   0.292
 5173SOL    HW127147   1.416   1.975   0.321
 5173SOL    HW227148   1.507   1.857   0.350
 5174SOL     OW27149   0.812   1.909  21.771
 5174SOL    HW127150   0.755   1.934  21.845
 5174SOL    HW227151   0.751   1.892  21.699
 5175SOL     OW27152   3.561   1.585   5.930
 5175SOL    HW127153   3.467   1.601   5.918
 5175SOL    HW227154   3.601   1.618   5.850
 5176SOL     OW27155   0.124   2.523  26.157
 5176SOL    HW127156   0.079   2.606  26.138
 5176SOL    HW227157   0.062   2.455  26.129
 5177SOL     OW27158   0.766   2.090   8.526
 5177SOL    HW127159   0.715   2.011   8.541
 5177SOL    HW227160   0.840   2.083   8.586
 5178SOL     OW27161   2.261   2.724   6.707
 5178SOL    HW127162   2.356   2.733   6.712
 5178SOL    HW227163   2.246   2.664   6.634
 5179SOL     OW27164   2.393   3.767  18.846
 5179SOL    HW127165   2.309   3.746  18.887
 5179SOL    HW227166   2.377   3.756  18.752
 5180SOL     OW27167   4.757   3.340   5.014
 5180SOL    HW127168   4.741   3.250   5.042
 5180SOL    HW227169   4.750   3.392   5.094
 5181SOL     OW27170   0.661   4.451  28.454
 5181SOL    HW127171   0.732   4.514  28.466
 5181SOL    HW227172   0.670   4.391   0.005
 5182SOL     OW27173   1.367   0.156   8.526
 5182SOL    HW127174   1.411   0.236   8.498
 5182SOL    HW227175   1.337   0.115   8.445
 5183SOL     OW27176   4.386   3.972  23.401
 5183SOL    HW127177   4.317   4.003  23.459
 5183SOL    HW227178   4.388   4.036  23.329
 5184SOL     OW27179   3.982   3.553  16.828
 5184SOL    HW127180   3.929   3.478  16.802
 5184SOL    HW227181   4.025   3.582  16.747
 5185SOL     OW27182   1.093   0.510   2.416
 5185SOL    HW127183   1.174   0.514   2.467
 5185SOL    HW227184   1.024   0.501   2.482
 5186SOL     OW27185   0.421   2.882  21.029
 5186SOL    HW127186   0.396   2.946  20.963
 5186SOL    HW227187   0.391   2.798  20.994
 5187SOL     OW27188   4.696   2.648   2.641
 5187SOL    HW127189   4.735   2.572   2.685
 5187SOL    HW227190   4.771   2.706   2.623
 5188SOL     OW27191   4.355   0.965  26.031
 5188SOL    HW127192   4.394   0.880  26.051
 5188SOL    HW227193   4.391   1.024  26.097
 5189SOL     OW27194   4.423   3.001  23.654
 5189SOL    HW127195   4.398   3.071  23.593
 5189SOL    HW227196   4.343   2.978  23.700
 5190SOL     OW27197   1.540   4.672  21.125
 5190SOL    HW127198   1.457   4.694  21.167
 5190SOL    HW227199   1.525   4.688  21.032
 5191SOL     OW27200   0.845   0.840   2.194
 5191SOL    HW127201   0.816   0.889   2.271
 5191SOL    HW227202   0.812   0.889   2.119
 5192SOL     OW27203   1.266   0.116  17.131
 5192SOL    HW127204   1.297   0.086  17.216
 5192SOL    HW227205   1.174   0.091  17.128
 5193SOL     OW27206   0.622   4.032  23.930
 5193SOL    HW127207   0.554   4.073  23.984
 5193SOL    HW227208   0.574   3.979  23.867
 5194SOL     OW27209   1.805   2.012   0.352
 5194SOL    HW127210   1.778   2.101   0.373
 5194SOL    HW227211   1.781   2.001   0.260
 5195SOL     OW27212   2.853   1.324  17.795
 5195SOL    HW127213   2.787   1.278  17.743
 5195SOL    HW227214   2.832   1.416  17.784
 5196SOL     OW27215   0.963   0.975  17.686
 5196SOL    HW127216   0.960   1.041  17.756
 5196SOL    HW227217   1.037   1.002  17.631
 5197SOL     OW27218   4.425   3.316   3.772
 5197SOL    HW127219   4.445   3.251   3.840
 5197SOL    HW227220   4.330   3.317   3.767
 5198SOL     OW27221   2.044   1.398   2.321
 5198SOL    HW127222   2.038   1.308   2.288
 5198SOL    HW227223   2.121   1.434   2.277
 5199SOL     OW27224   3.288   3.912  21.763
 5199SOL    HW127225   3.253   3.965  21.834
 5199SOL    HW227226   3.326   3.975  21.702
 5200SOL     OW27227   0.085   1.374  24.553
 5200SOL    HW127228   0.132   1.371  24.470
 5200SOL    HW227229   0.145   1.334  24.616
 5201SOL     OW27230   3.997   1.135   4.545
 5201SOL    HW127231   4.075   1.115   4.597
 5201SOL    HW227232   3.961   1.214   4.586
 5202SOL     OW27233   2.933   2.557   3.017
 5202SOL    HW127234   2.987   2.529   3.091
 5202SOL    HW227235   2.875   2.483   3.000
 5203SOL     OW27236   0.094   0.867   3.439
 5203SOL    HW127237   0.154   0.940   3.422
 5203SOL    HW227238   0.034   0.868   3.364
 5204SOL     OW27239   1.183   3.313  25.272
 5204SOL    HW127240   1.161   3.304  25.179
 5204SOL    HW227241   1.191   3.223  25.304
 5205SOL     OW27242   0.533   2.134  25.468
 5205SOL    HW127243   0.448   2.128  25.424
 5205SOL    HW227244   0.520   2.198  25.537
 5206SOL     OW27245   4.127   2.179   2.184
 5206SOL    HW127246   4.096   2.267   2.161
 5206SOL    HW227247   4.099   2.168   2.275
 5207SOL     OW27248   0.091   1.017   8.559
 5207SOL    HW127249   0.145   1.089   8.590
 5207SOL    HW227250   0.001   1.049   8.566
 5208SOL     OW27251   0.812   0.291   2.318
 5208SOL    HW127252   0.747   0.313   2.385
 5208SOL    HW227253   0.823   0.373   2.269
 5209SOL     OW27254   2.562   2.889  11.480
 5209SOL    HW127255   2.650   2.867  11.451
 5209SOL    HW227256   2.514   2.806  11.477
 5210SOL     OW27257   0.517   1.177  20.605
 5210SOL    HW127258   0.477   1.261  20.583
 5210SOL    HW227259   0.601   1.199  20.644
 5211SOL     OW27260   0.691   2.680  19.936
 5211SOL    HW127261   0.739   2.754  19.899
 5211SOL    HW227262   0.723   2.673  20.026
 5212SOL     OW27263   4.730   4.093  19.130
 5212SOL    HW127264   4.721   4.101  19.035
 5212SOL    HW227265   4.684   4.011  19.151
 5213SOL     OW27266   4.612   1.986  18.664
 5213SOL    HW127267   4.607   1.961  18.571
 5213SOL    HW227268   4.666   1.919  18.704
 5214SOL     OW27269   3.037   0.419  27.730
 5214SOL    HW127270   3.112   0.372  27.694
 5214SOL    HW227271   3.014   0.370  27.809
 5215SOL     OW27272   2.080   0.923  17.043
 5215SOL    HW127273   2.005   0.873  17.075
 5215SOL    HW227274   2.145   0.916  17.113
 5216SOL     OW27275   1.068   4.166  26.108
 5216SOL    HW127276   1.008   4.239  26.092
 5216SOL    HW227277   1.079   4.164  26.203
 5217SOL     OW27278   0.850   0.314   9.414
 5217SOL    HW127279   0.874   0.374   9.343
 5217SOL    HW227280   0.755   0.302   9.403
 5218SOL     OW27281   0.828   3.910  25.966
 5218SOL    HW127282   0.803   3.818  25.975
 5218SOL    HW227283   0.904   3.921  26.023
 5219SOL     OW27284   0.411   3.163  17.823
 5219SOL    HW127285   0.436   3.226  17.890
 5219SOL    HW227286   0.491   3.149  17.773
 5220SOL     OW27287   2.546   1.834  23.231
 5220SOL    HW127288   2.611   1.855  23.299
 5220SOL    HW227289   2.595   1.838  23.149
 5221SOL     OW27290   0.552   4.467  22.630
 5221SOL    HW127291   0.582   4.384  22.665
 5221SOL    HW227292   0.476   4.490  22.683
 5222SOL     OW27293   1.820   4.653  19.356
 5222SOL    HW127294   1.816   4.604  19.274
 5222SOL    HW227295   1.821   4.587  19.425
 5223SOL     OW27296   3.893   4.488  10.656
 5223SOL    HW127297   3.834   4.562  10.672
 5223SOL    HW227298   3.950   4.485  10.732
 5224SOL     OW27299   4.294   1.339   4.872
 5224SOL    HW127300   4.205   1.344   4.905
 5224SOL    HW227301   4.347   1.382   4.939
 5225SOL     OW27302   4.764   0.094   7.268
 5225SOL    HW127303   4.749   0.025   7.332
 5225SOL    HW227304   4.718   0.170   7.303
 5226SOL     OW27305   2.110   2.294   0.990
 5226SOL    HW127306   2.089   2.225   0.927
 5226SOL    HW227307   2.041   2.288   1.056
 5227SOL     OW27308   3.560   2.247  17.973
 5227SOL    HW127309   3.597   2.302  17.904
 5227SOL    HW227310   3.568   2.300  18.053
 5228SOL     OW27311   2.636   3.609   8.962
 5228SOL    HW127312   2.633   3.547   9.035
 5228SOL    HW227313   2.718   3.589   8.917
 5229SOL     OW27314   1.783   0.862   5.924
 5229SOL    HW127315   1.831   0.867   5.841
 5229SOL    HW227316   1.851   0.855   5.991
 5230SOL     OW27317   0.986   3.416   3.112
 5230SOL    HW127318   0.921   3.354   3.145
 5230SOL    HW227319   0.978   3.492   3.170
 5231SOL     OW27320   3.614   4.296   7.732
 5231SOL    HW127321   3.646   4.344   7.656
 5231SOL    HW227322   3.577   4.216   7.696
 5232SOL     OW27323   2.270   0.717   6.597
 5232SOL    HW127324   2.260   0.625   6.621
 5232SOL    HW227325   2.364   0.731   6.593
 5233SOL     OW27326   3.051   4.552   0.856
 5233SOL    HW127327   3.009   4.538   0.941
 5233SOL    HW227328   2.981   4.535   0.792
 5234SOL     OW27329   1.746   2.789  22.126
 5234SOL    HW127330   1.821   2.741  22.163
 5234SOL    HW227331   1.670   2.745  22.163
 5235SOL     OW27332   1.172   4.101   6.672
 5235SOL    HW127333   1.223   4.179   6.695
 5235SOL    HW227334   1.235   4.029   6.674
 5236SOL     OW27335   1.091   2.595  25.905
 5236SOL    HW127336   1.165   2.652  25.884
 5236SOL    HW227337   1.073   2.611  25.998
 5237SOL     OW27338   0.114   0.722  22.229
 5237SOL    HW127339   0.032   0.759  22.262
 5237SOL    HW227340   0.101   0.627  22.232
 5238SOL     OW27341   1.348   4.602   4.620
 5238SOL    HW127342   1.349   4.651   4.702
 5238SOL    HW227343   1.434   4.560   4.617
 5239SOL     OW27344   4.600   2.299  19.323
 5239SOL    HW127345   4.534   2.237  19.357
 5239SOL    HW227346   4.636   2.340  19.402
 5240SOL     OW27347   3.411   2.963   4.869
 5240SOL    HW127348   3.357   2.930   4.797
 5240SOL    HW227349   3.492   2.912   4.864
 5241SOL     OW27350   4.644   3.659   9.720
 5241SOL    HW127351   4.668   3.613   9.639
 5241SOL    HW227352   4.675   3.602   9.790
 5242SOL     OW27353   2.131   3.815  24.048
 5242SOL    HW127354   2.182   3.893  24.073
 5242SOL    HW227355   2.104   3.776  24.131
 5243SOL     OW27356   2.525   4.526  10.570
 5243SOL    HW127357   2.519   4.434  10.595
 5243SOL    HW227358   2.574   4.567  10.641
 5244SOL     OW27359   1.071   0.710   7.660
 5244SOL    HW127360   1.075   0.796   7.619
 5244SOL    HW227361   0.992   0.670   7.623
 5245SOL     OW27362   1.956   1.124  26.643
 5245SOL    HW127363   1.904   1.088  26.572
 5245SOL    HW227364   2.044   1.132  26.608
 5246SOL     OW27365   0.990   1.697   3.200
 5246SOL    HW127366   0.936   1.776   3.207
 5246SOL    HW227367   0.927   1.627   3.181
 5247SOL     OW27368   1.291   4.254   5.864
 5247SOL    HW127369   1.295   4.298   5.778
 5247SOL    HW227370   1.236   4.178   5.849
 5248SOL     OW27371   0.319   2.416   1.537
 5248SOL    HW127372   0.286   2.327   1.548
 5248SOL    HW227373   0.329   2.426   1.443
 5249SOL     OW27374   0.177   4.260   3.850
 5249SOL    HW127375   0.107   4.313   3.888
 5249SOL    HW227376   0.233   4.323   3.805
 5250SOL     OW27377   3.342   4.242  19.711
 5250SOL    HW127378   3.289   4.281  19.641
 5250SOL    HW227379   3.407   4.309  19.732
 5251SOL     OW27380   2.836   0.808  27.896
 5251SOL    HW127381   2.834   0.864  27.818
 5251SOL    HW227382   2.917   0.832  27.941
 5252SOL     OW27383   1.752   2.317   5.739
 5252SOL    HW127384   1.789   2.392   5.694
 5252SOL    HW227385   1.771   2.332   5.831
 5253SOL     OW27386   2.274   2.817   1.522
 5253SOL    HW127387   2.361   2.779   1.534
 5253SOL    HW227388   2.234   2.813   1.608
 5254SOL     OW27389   3.840   2.947   6.848
 5254SOL    HW127390   3.773   3.001   6.806
 5254SOL    HW227391   3.895   2.917   6.776
 5255SOL     OW27392   1.002   0.155   3.812
 5255SOL    HW127393   0.985   0.065   3.784
 5255SOL    HW227394   0.974   0.158   3.903
 5256SOL     OW27395   2.948   3.121   3.110
 5256SOL    HW127396   2.957   3.058   3.181
 5256SOL    HW227397   2.964   3.069   3.031
 5257SOL     OW27398   2.446   3.804   4.508
 5257SOL    HW127399   2.482   3.877   4.558
 5257SOL    HW227400   2.353   3.827   4.497
 5258SOL     OW27401   1.654   0.541  11.110
 5258SOL    HW127402   1.712   0.610  11.143
 5258SOL    HW227403   1.636   0.566  11.020
 5259SOL     OW27404   4.486   2.749   8.548
 5259SOL    HW127405   4.396   2.722   8.531
 5259SOL    HW227406   4.494   2.833   8.503
 5260SOL     OW27407   1.802   1.741   0.116
 5260SOL    HW127408   1.784   1.710   0.204
 5260SOL    HW227409   1.842   1.666   0.072
 5261SOL     OW27410   3.242   0.979  10.407
 5261SOL    HW127411   3.207   1.067  10.423
 5261SOL    HW227412   3.332   0.994  10.377
 5262SOL     OW27413   2.027   3.926   3.794
 5262SOL    HW127414   2.085   3.890   3.727
 5262SOL    HW227415   2.069   4.008   3.820
 5263SOL     OW27416   0.433   1.699  21.948
 5263SOL    HW127417   0.511   1.648  21.969
 5263SOL    HW227418   0.465   1.789  21.941
 5264SOL     OW27419   3.457   3.264   5.327
 5264SOL    HW127420   3.522   3.334   5.336
 5264SOL    HW227421   3.373   3.309   5.319
 5265SOL     OW27422   4.775   1.254  23.078
 5265SOL    HW127423   4.734   1.168  23.067
 5265SOL    HW227424   0.011   1.284  22.989
 5266SOL     OW27425   4.480   2.379  24.676
 5266SOL    HW127426   4.541   2.319  24.633
 5266SOL    HW227427   4.482   2.353  24.768
 5267SOL     OW27428   4.780   2.795  22.402
 5267SOL    HW127429   4.766   2.833  22.488
 5267SOL    HW227430   0.012   2.870  22.344
 5268SOL     OW27431   3.972   3.797  25.331
 5268SOL    HW127432   3.977   3.831  25.242
 5268SOL    HW227433   3.931   3.867  25.382
 5269SOL     OW27434   2.260   1.682   8.286
 5269SOL    HW127435   2.194   1.742   8.252
 5269SOL    HW227436   2.344   1.724   8.264
 5270SOL     OW27437   2.391   4.779  24.222
 5270SOL    HW127438   2.298   0.024  24.224
 5270SOL    HW227439   2.438   0.080  24.239
 5271SOL     OW27440   0.466   3.197  10.365
 5271SOL    HW127441   0.429   3.113  10.392
 5271SOL    HW227442   0.428   3.214  10.279
 5272SOL     OW27443   3.879   2.556  25.255
 5272SOL    HW127444   3.823   2.602  25.318
 5272SOL    HW227445   3.967   2.565  25.289
 5273SOL     OW27446   0.306   2.254  27.907
 5273SOL    HW127447   0.261   2.262  27.991
 5273SOL    HW227448   0.269   2.325  27.853
 5274SOL     OW27449   0.185   3.623   7.696
 5274SOL    HW127450   0.134   3.598   7.773
 5274SOL    HW227451   0.191   3.543   7.644
 5275SOL     OW27452   0.759   2.477  24.556
 5275SOL    HW127453   0.722   2.516  24.477
 5275SOL    HW227454   0.851   2.504  24.556
 5276SOL     OW27455   2.348   2.376  25.655
 5276SOL    HW127456   2.395   2.313  25.600
 5276SOL    HW227457   2.377   2.461  25.624
 5277SOL     OW27458   4.305   4.459   6.786
 5277SOL    HW127459   4.368   4.515   6.832
 5277SOL    HW227460   4.291   4.385   6.846
 5278SOL     OW27461   3.996   3.190  25.406
 5278SOL    HW127462   3.973   3.206  25.497
 5278SOL    HW227463   4.052   3.264  25.381
 5279SOL     OW27464   3.029   4.450  25.153
 5279SOL    HW127465   3.063   4.413  25.072
 5279SOL    HW227466   3.000   4.375  25.204
 5280SOL     OW27467   4.729   3.374  22.823
 5280SOL    HW127468   4.718   3.369  22.918
 5280SOL    HW227469   4.706   3.465  22.802
 5281SOL     OW27470   0.006   3.078   3.270
 5281SOL    HW127471   4.698   3.045   3.255
 5281SOL    HW227472   0.020   3.068   3.364
 5282SOL     OW27473   0.061   1.635   9.911
 5282SOL    HW127474   0.125   1.661   9.846
 5282SOL    HW227475   4.765   1.607   9.860
 5283SOL     OW27476   4.226   0.207   8.320
 5283SOL    HW127477   4.264   0.279   8.369
 5283SOL    HW227478   4.149   0.181   8.370
 5284SOL     OW27479   1.025   1.112   3.444
 5284SOL    HW127480   1.075   1.168   3.503
 5284SOL    HW227481   1.016   1.164   3.364
 5285SOL     OW27482   0.473   0.688   9.719
 5285SOL    HW127483   0.522   0.631   9.659
 5285SOL    HW227484   0.456   0.767   9.668
 5286SOL     OW27485   1.761   2.190   2.961
 5286SOL    HW127486   1.682   2.176   2.910
 5286SOL    HW227487   1.738   2.164   3.050
 5287SOL     OW27488   4.057   4.319   1.361
 5287SOL    HW127489   3.981   4.367   1.329
 5287SOL    HW227490   4.040   4.306   1.455
 5288SOL     OW27491   4.567   4.522  22.542
 5288SOL    HW127492   4.478   4.505  22.573
 5288SOL    HW227493   4.622   4.471  22.602
 5289SOL     OW27494   4.111   1.143  18.148
 5289SOL    HW127495   4.190   1.168  18.196
 5289SOL    HW227496   4.138   1.071  18.092
 5290SOL     OW27497   3.520   1.850  24.991
 5290SOL    HW127498   3.537   1.894  24.907
 5290SOL    HW227499   3.608   1.834  25.026
 5291SOL     OW27500   2.715   0.529   9.954
 5291SOL    HW127501   2.731   0.436   9.970
 5291SOL    HW227502   2.694   0.534   9.861
 5292SOL     OW27503   3.684   1.851  22.157
 5292SOL    HW127504   3.704   1.796  22.233
 5292SOL    HW227505   3.738   1.814  22.087
 5293SOL     OW27506   3.045   1.553  26.603
 5293SOL    HW127507   3.118   1.531  26.545
 5293SOL    HW227508   2.999   1.470  26.617
 5294SOL     OW27509   4.467   1.885   3.039
 5294SOL    HW127510   4.490   1.793   3.051
 5294SOL    HW227511   4.379   1.883   3.002
 5295SOL     OW27512   3.492   0.267  10.986
 5295SOL    HW127513   3.546   0.340  11.017
 5295SOL    HW227514   3.452   0.232  11.066
 5296SOL     OW27515   3.977   1.953  20.568
 5296SOL    HW127516   3.976   1.875  20.623
 5296SOL    HW227517   3.954   2.024  20.628
 5297SOL     OW27518   3.524   2.191   4.069
 5297SOL    HW127519   3.583   2.116   4.063
 5297SOL    HW227520   3.469   2.185   3.991
 5298SOL     OW27521   3.630   0.527   3.039
 5298SOL    HW127522   3.689   0.557   3.107
 5298SOL    HW227523   3.544   0.523   3.081
 5299SOL     OW27524   1.310   1.029   6.920
 5299SOL    HW127525   1.214   1.025   6.926
 5299SOL    HW227526   1.328   1.015   6.827
 5300SOL     OW27527   1.634   0.003  19.545
 5300SOL    HW127528   1.659   4.698  19.513
 5300SOL    HW227529   1.586   0.043  19.472
 5301SOL     OW27530   2.844   2.722  18.642
 5301SOL    HW127531   2.824   2.770  18.562
 5301SOL    HW227532   2.769   2.737  18.699
 5302SOL     OW27533   4.147   2.509  23.162
 5302SOL    HW127534   4.112   2.430  23.205
 5302SOL    HW227535   4.123   2.581  23.220
 5303SOL     OW27536   0.927   3.476   2.865
 5303SOL    HW127537   1.015   3.476   2.827
 5303SOL    HW227538   0.940   3.453   2.957
 5304SOL     OW27539   3.913   3.522  25.789
 5304SOL    HW127540   3.963   3.484  25.716
 5304SOL    HW227541   3.961   3.494  25.867
 5305SOL     OW27542   0.416   0.886  22.433
 5305SOL    HW127543   0.484   0.830  22.396
 5305SOL    HW227544   0.366   0.917  22.358
 5306SOL     OW27545   1.626   2.385  25.024
 5306SOL    HW127546   1.631   2.290  25.035
 5306SOL    HW227547   1.534   2.406  25.043
 5307SOL     OW27548   1.416   4.222  24.895
 5307SOL    HW127549   1.443   4.150  24.954
 5307SOL    HW227550   1.457   4.201  24.811
 5308SOL     OW27551   3.456   2.279  18.606
 5308SOL    HW127552   3.475   2.262  18.699
 5308SOL    HW227553   3.519   2.346  18.580
 5309SOL     OW27554   1.012   3.164   2.380
 5309SOL    HW127555   1.093   3.117   2.363
 5309SOL    HW227556   1.031   3.254   2.353
 5310SOL     OW27557   4.517   1.866  21.760
 5310SOL    HW127558   4.567   1.864  21.842
 5310SOL    HW227559   4.518   1.775  21.730
 5311SOL     OW27560   2.807   2.104  27.137
 5311SOL    HW127561   2.771   2.191  27.121
 5311SOL    HW227562   2.770   2.078  27.221
 5312SOL     OW27563   4.579   3.939  26.006
 5312SOL    HW127564   4.549   3.904  25.922
 5312SOL    HW227565   4.520   4.012  26.024
 5313SOL     OW27566   3.063   0.468  10.068
 5313SOL    HW127567   3.025   0.492   9.983
 5313SOL    HW227568   3.092   0.378  10.057
 5314SOL     OW27569   3.666   2.491  27.756
 5314SOL    HW127570   3.719   2.566  27.784
 5314SOL    HW227571   3.701   2.468  27.670
 5315SOL     OW27572   2.038   3.206  24.908
 5315SOL    HW127573   2.002   3.118  24.920
 5315SOL    HW227574   2.125   3.191  24.872
 5316SOL     OW27575   0.408   0.859   7.233
 5316SOL    HW127576   0.360   0.903   7.162
 5316SOL    HW227577   0.425   0.771   7.199
 5317SOL     OW27578   2.228   0.630  22.077
 5317SOL    HW127579   2.218   0.682  22.157
 5317SOL    HW227580   2.225   0.539  22.108
 5318SOL     OW27581   3.585   2.001  11.747
 5318SOL    HW127582   3.530   1.940  11.698
 5318SOL    HW227583   3.590   1.962  11.835
 5319SOL     OW27584   3.870   0.903  20.239
 5319SOL    HW127585   3.940   0.944  20.188
 5319SOL    HW227586   3.791   0.951  20.215
 5320SOL     OW27587   0.007   1.159   1.832
 5320SOL    HW127588   4.714   1.202   1.876
 5320SOL    HW227589   0.068   1.139   1.903
 5321SOL     OW27590   3.007   2.908  21.454
 5321SOL    HW127591   3.066   2.980  21.476
 5321SOL    HW227592   2.992   2.863  21.537
 5322SOL     OW27593   0.460   4.133  21.656
 5322SOL    HW127594   0.432   4.149  21.746
 5322SOL    HW227595   0.397   4.182  21.603
 5323SOL     OW27596   4.151   2.399  27.269
 5323SOL    HW127597   4.095   2.477  27.271
 5323SOL    HW227598   4.112   2.340  27.334
 5324SOL     OW27599   2.521   0.086  20.666
 5324SOL    HW127600   2.559   0.149  20.604
 5324SOL    HW227601   2.483   0.141  20.735
 5325SOL     OW27602   1.336   2.120  26.892
 5325SOL    HW127603   1.369   2.044  26.941
 5325SOL    HW227604   1.290   2.172  26.958
 5326SOL     OW27605   0.544   2.618   1.563
 5326SOL    HW127606   0.585   2.630   1.649
 5326SOL    HW227607   0.473   2.555   1.579
 5327SOL     OW27608   0.167   1.427   2.897
 5327SOL    HW127609   0.190   1.460   2.984
 5327SOL    HW227610   0.252   1.409   2.855
 5328SOL     OW27611   0.439   0.097  19.770
 5328SOL    HW127612   0.363   0.064  19.722
 5328SOL    HW227613   0.464   0.177  19.722
 5329SOL     OW27614   2.583   1.527   9.483
 5329SOL    HW127615   2.643   1.487   9.545
 5329SOL    HW227616   2.496   1.503   9.515
 5330SOL     OW27617   1.029   2.633  24.216
 5330SOL    HW127618   1.081   2.556  24.191
 5330SOL    HW227619   1.055   2.700  24.153
 5331SOL     OW27620   1.291   1.155  27.616
 5331SOL    HW127621   1.236   1.206  27.557
 5331SOL    HW227622   1.375   1.149  27.572
 5332SOL     OW27623   2.780   0.613  19.082
 5332SOL    HW127624   2.827   0.687  19.120
 5332SOL    HW227625   2.726   0.580  19.154
 5333SOL     OW27626   4.370   0.963   9.789
 5333SOL    HW127627   4.431   1.014   9.736
 5333SOL    HW227628   4.283   0.995   9.765
 5334SOL     OW27629   1.264   0.958  24.972
 5334SOL    HW127630   1.351   0.938  25.006
 5334SOL    HW227631   1.205   0.908  25.027
 5335SOL     OW27632   1.530   2.680   1.875
 5335SOL    HW127633   1.565   2.605   1.827
 5335SOL    HW227634   1.453   2.707   1.826
 5336SOL     OW27635   3.309   2.972   3.743
 5336SOL    HW127636   3.380   2.923   3.784
 5336SOL    HW227637   3.302   3.052   3.795
 5337SOL     OW27638   3.243   3.822   9.399
 5337SOL    HW127639   3.261   3.730   9.414
 5337SOL    HW227640   3.312   3.869   9.446
 5338SOL     OW27641   4.247   0.831   2.596
 5338SOL    HW127642   4.288   0.883   2.526
 5338SOL    HW227643   4.237   0.744   2.558
 5339SOL     OW27644   1.990   3.712  16.814
 5339SOL    HW127645   1.939   3.791  16.799
 5339SOL    HW227646   1.948   3.671  16.889
 5340SOL     OW27647   1.996   3.818   6.805
 5340SOL    HW127648   2.057   3.830   6.878
 5340SOL    HW227649   1.940   3.746   6.832
 5341SOL     OW27650   2.920   0.461  24.039
 5341SOL    HW127651   2.828   0.472  24.062
 5341SOL    HW227652   2.968   0.496  24.115
 5342SOL     OW27653   4.744   0.208   7.810
 5342SOL    HW127654   0.032   0.203   7.743
 5342SOL    HW227655   4.693   0.286   7.786
 5343SOL     OW27656   0.398   2.039   0.616
 5343SOL    HW127657   0.386   2.124   0.659
 5343SOL    HW227658   0.320   1.989   0.641
 5344SOL     OW27659   3.273   1.170   2.656
 5344SOL    HW127660   3.245   1.173   2.565
 5344SOL    HW227661   3.205   1.218   2.703
 5345SOL     OW27662   1.833   4.326   9.025
 5345SOL    HW127663   1.747   4.306   9.060
 5345SOL    HW227664   1.886   4.249   9.045
 5346SOL     OW27665   1.079   4.359   4.226
 5346SOL    HW127666   1.169   4.346   4.258
 5346SOL    HW227667   1.062   4.452   4.244
 5347SOL     OW27668   1.709   1.161   0.651
 5347SOL    HW127669   1.666   1.244   0.673
 5347SOL    HW227670   1.753   1.134   0.732
 5348SOL     OW27671   3.990   2.045   1.726
 5348SOL    HW127672   3.952   2.012   1.644
 5348SOL    HW227673   3.922   2.103   1.761
 5349SOL     OW27674   3.107   1.384  27.032
 5349SOL    HW127675   3.170   1.312  27.042
 5349SOL    HW227676   3.022   1.341  27.024
 5350SOL     OW27677   0.513   1.256   7.181
 5350SOL    HW127678   0.526   1.349   7.197
 5350SOL    HW227679   0.473   1.252   7.094
 5351SOL     OW27680   2.311   2.192   2.945
 5351SOL    HW127681   2.383   2.134   2.921
 5351SOL    HW227682   2.332   2.222   3.033
 5352SOL     OW27683   4.415   2.595  20.919
 5352SOL    HW127684   4.439   2.520  20.974
 5352SOL    HW227685   4.432   2.672  20.973
 5353SOL     OW27686   0.205   2.318   6.460
 5353SOL    HW127687   0.171   2.244   6.410
 5353SOL    HW227688   0.299   2.299   6.470
 5354SOL     OW27689   1.275   1.894   3.151
 5354SOL    HW127690   1.268   1.799   3.137
 5354SOL    HW227691   1.307   1.929   3.068
 5355SOL     OW27692   3.418   4.421  20.724
 5355SOL    HW127693   3.504   4.422  20.682
 5355SOL    HW227694   3.428   4.478  20.801
 5356SOL     OW27695   2.673   4.409  25.997
 5356SOL    HW127696   2.617   4.485  26.012
 5356SOL    HW227697   2.756   4.433  26.037
 5357SOL     OW27698   4.344   2.202   8.173
 5357SOL    HW127699   4.422   2.240   8.132
 5357SOL    HW227700   4.281   2.275   8.176
 5358SOL     OW27701   0.886   2.910  27.672
 5358SOL    HW127702   0.949   2.843  27.700
 5358SOL    HW227703   0.856   2.950  27.754
 5359SOL     OW27704   0.404   1.010  26.692
 5359SOL    HW127705   0.448   0.988  26.610
 5359SOL    HW227706   0.443   1.093  26.718
 5360SOL     OW27707   3.019   2.251   7.296
 5360SOL    HW127708   3.083   2.271   7.228
 5360SOL    HW227709   3.060   2.279   7.378
 5361SOL     OW27710   0.054   0.540  19.462
 5361SOL    HW127711   0.089   0.611  19.516
 5361SOL    HW227712   0.092   0.461  19.499
 5362SOL     OW27713   1.641   4.704   9.635
 5362SOL    HW127714   1.710   4.700   9.569
 5362SOL    HW227715   1.672   4.647   9.706
 5363SOL     OW27716   1.352   3.798  21.598
 5363SOL    HW127717   1.310   3.713  21.587
 5363SOL    HW227718   1.387   3.796  21.687
 5364SOL     OW27719   2.977   0.463  10.345
 5364SOL    HW127720   2.888   0.486  10.368
 5364SOL    HW227721   2.983   0.369  10.361
 5365SOL     OW27722   0.504   3.418  26.542
 5365SOL    HW127723   0.527   3.495  26.593
 5365SOL    HW227724   0.558   3.423  26.464
 5366SOL     OW27725   2.700   4.467   9.988
 5366SOL    HW127726   2.622   4.426  10.026
 5366SOL    HW227727   2.683   4.471   9.894
 5367SOL     OW27728   3.473   3.608   9.257
 5367SOL    HW127729   3.460   3.664   9.181
 5367SOL    HW227730   3.557   3.637   9.293
 5368SOL     OW27731   2.829   2.682  27.885
 5368SOL    HW127732   2.794   2.705  27.799
 5368SOL    HW227733   2.911   2.637  27.866
 5369SOL     OW27734   4.698   1.262   3.620
 5369SOL    HW127735   4.655   1.267   3.535
 5369SOL    HW227736   4.705   1.168   3.638
 5370SOL     OW27737   1.168   4.074   8.157
 5370SOL    HW127738   1.086   4.086   8.204
 5370SOL    HW227739   1.146   4.013   8.087
 5371SOL     OW27740   0.764   2.086  28.122
 5371SOL    HW127741   0.786   2.030  28.197
 5371SOL    HW227742   0.700   2.036  28.073
 5372SOL     OW27743   3.118   0.839   3.137
 5372SOL    HW127744   3.104   0.749   3.108
 5372SOL    HW227745   3.132   0.888   3.056
 5373SOL     OW27746   4.117   0.103  25.504
 5373SOL    HW127747   4.103   0.154  25.425
 5373SOL    HW227748   4.211   0.105  25.518
 5374SOL     OW27749   0.314   4.016  26.180
 5374SOL    HW127750   0.300   4.094  26.126
 5374SOL    HW227751   0.227   3.995  26.216
 5375SOL     OW27752   1.668   3.958   3.091
 5375SOL    HW127753   1.738   3.897   3.065
 5375SOL    HW227754   1.646   3.931   3.180
 5376SOL     OW27755   0.361   0.201  26.203
 5376SOL    HW127756   0.434   0.185  26.263
 5376SOL    HW227757   0.325   0.114  26.186
 5377SOL     OW27758   1.547   1.015   5.725
 5377SOL    HW127759   1.535   1.104   5.691
 5377SOL    HW227760   1.460   0.974   5.718
 5378SOL     OW27761   0.049   3.870  20.308
 5378SOL    HW127762   0.117   3.903  20.367
 5378SOL    HW227763   0.088   3.875  20.221
 5379SOL     OW27764   3.630   3.405  20.066
 5379SOL    HW127765   3.636   3.321  20.020
 5379SOL    HW227766   3.665   3.386  20.154
 5380SOL     OW27767   1.862   4.160  21.589
 5380SOL    HW127768   1.824   4.117  21.665
 5380SOL    HW227769   1.788   4.184  21.534
 5381SOL     OW27770   0.689   0.778  28.485
 5381SOL    HW127771   0.602   0.783   0.002
 5381SOL    HW227772   0.729   0.701   0.002
 5382SOL     OW27773   2.389   3.462   1.344
 5382SOL    HW127774   2.392   3.438   1.437
 5382SOL    HW227775   2.406   3.380   1.297
 5383SOL     OW27776   0.777   3.123   2.238
 5383SOL    HW127777   0.857   3.123   2.291
 5383SOL    HW227778   0.711   3.083   2.294
 5384SOL     OW27779   2.907   0.677  10.149
 5384SOL    HW127780   2.844   0.650  10.082
 5384SOL    HW227781   2.874   0.761  10.180
 5385SOL     OW27782   4.348   1.787  20.750
 5385SOL    HW127783   4.265   1.746  20.775
 5385SOL    HW227784   4.339   1.804  20.656
 5386SOL     OW27785   3.411   3.082  26.779
 5386SOL    HW127786   3.449   2.994  26.789
 5386SOL    HW227787   3.353   3.074  26.704
 5387SOL     OW27788   4.611   3.584  26.530
 5387SOL    HW127789   4.619   3.522  26.603
 5387SOL    HW227790   4.518   3.608  26.529
 5388SOL     OW27791   4.627   4.395   5.283
 5388SOL    HW127792   4.674   4.312   5.286
 5388SOL    HW227793   4.542   4.373   5.244
 5389SOL     OW27794   0.899   4.733  22.117
 5389SOL    HW127795   0.883   4.639  22.116
 5389SOL    HW227796   0.825   4.769  22.166
 5390SOL     OW27797   1.620   1.745   7.578
 5390SOL    HW127798   1.536   1.724   7.620
 5390SOL    HW227799   1.678   1.768   7.651
 5391SOL     OW27800   1.165   4.005  18.742
 5391SOL    HW127801   1.151   4.037  18.831
 5391SOL    HW227802   1.217   4.074  18.700
 5392SOL     OW27803   0.203   3.720  28.356
 5392SOL    HW127804   0.218   3.625  28.351
 5392SOL    HW227805   0.248   3.755  28.279
 5393SOL     OW27806   2.478   3.399  21.670
 5393SOL    HW127807   2.460   3.452  21.747
 5393SOL    HW227808   2.573   3.407  21.658
 5394SOL     OW27809   0.378   1.327  21.262
 5394SOL    HW127810   0.381   1.358  21.353
 5394SOL    HW227811   0.456   1.274  21.252
 5395SOL     OW27812   0.012   2.727   0.445
 5395SOL    HW127813   0.084   2.690   0.496
 5395SOL    HW227814   0.053   2.796   0.393
 5396SOL     OW27815   4.640   1.369   6.362
 5396SOL    HW127816   4.564   1.399   6.313
 5396SOL    HW227817   4.714   1.413   6.321
 5397SOL     OW27818   2.973   4.490  11.014
 5397SOL    HW127819   2.960   4.413  11.070
 5397SOL    HW227820   3.024   4.551  11.068
 5398SOL     OW27821   3.668   2.746   1.418
 5398SOL    HW127822   3.674   2.651   1.413
 5398SOL    HW227823   3.629   2.764   1.503
 5399SOL     OW27824   3.082   0.725  10.387
 5399SOL    HW127825   3.122   0.812  10.395
 5399SOL    HW227826   3.034   0.713  10.470
 5400SOL     OW27827   1.000   3.062  26.387
 5400SOL    HW127828   1.054   3.026  26.457
 5400SOL    HW227829   0.965   2.985  26.342
 5401SOL     OW27830   3.263   0.517  10.293
 5401SOL    HW127831   3.347   0.564  10.301
 5401SOL    HW227832   3.277   0.435  10.339
 5402SOL     OW27833   1.403   3.806  22.223
 5402SOL    HW127834   1.383   3.878  22.283
 5402SOL    HW227835   1.438   3.737  22.279
 5403SOL     OW27836   0.073   1.447   9.257
 5403SOL    HW127837   0.032   1.394   9.188
 5403SOL    HW227838   0.165   1.422   9.255
 5404SOL     OW27839   2.728   0.747   0.131
 5404SOL    HW127840   2.791   0.797   0.183
 5404SOL    HW227841   2.781   0.702   0.066
 5405SOL     OW27842   3.205   0.725  10.115
 5405SOL    HW127843   3.301   0.728  10.109
 5405SOL    HW227844   3.178   0.816  10.111
 5406SOL     OW27845   3.784   1.875  26.186
 5406SOL    HW127846   3.729   1.798  26.196
 5406SOL    HW227847   3.868   1.851  26.225
 5407SOL     OW27848   3.095   4.601  22.594
 5407SOL    HW127849   3.032   4.669  22.617
 5407SOL    HW227850   3.177   4.628  22.636
 5408SOL     OW27851   4.313   1.544  17.188
 5408SOL    HW127852   4.255   1.566  17.115
 5408SOL    HW227853   4.328   1.450  17.179
 5409SOL     OW27854   1.554   0.708   7.335
 5409SOL    HW127855   1.544   0.696   7.241
 5409SOL    HW227856   1.464   0.708   7.369
 5410SOL     OW27857   0.987   1.196  17.853
 5410SOL    HW127858   0.978   1.231  17.764
 5410SOL    HW227859   1.081   1.198  17.870
 5411SOL     OW27860   0.172   1.589  27.911
 5411SOL    HW127861   0.143   1.645  27.839
 5411SOL    HW227862   0.253   1.549  27.879
 5412SOL     OW27863   0.349   0.834   6.794
 5412SOL    HW127864   0.370   0.775   6.721
 5412SOL    HW227865   0.416   0.902   6.790
 5413SOL     OW27866   3.786   2.312   4.912
 5413SOL    HW127867   3.723   2.337   4.845
 5413SOL    HW227868   3.734   2.305   4.992
 5414SOL     OW27869   0.517   1.981  19.251
 5414SOL    HW127870   0.436   1.980  19.301
 5414SOL    HW227871   0.555   2.067  19.268
 5415SOL     OW27872   3.606   2.822  26.922
 5415SOL    HW127873   3.529   2.831  26.866
 5415SOL    HW227874   3.667   2.769  26.871
 5416SOL     OW27875   1.311   3.371  27.145
 5416SOL    HW127876   1.306   3.384  27.239
 5416SOL    HW227877   1.267   3.287  27.130
 5417SOL     OW27878   2.687   3.020   6.676
 5417SOL    HW127879   2.641   3.102   6.657
 5417SOL    HW227880   2.737   3.002   6.597
 5418SOL     OW27881   1.032   2.854   9.192
 5418SOL    HW127882   0.947   2.829   9.227
 5418SOL    HW227883   1.088   2.778   9.207
 5419SOL     OW27884   2.369   3.136  20.507
 5419SOL    HW127885   2.362   3.184  20.590
 5419SOL    HW227886   2.287   3.086  20.502
 5420SOL     OW27887   4.310   1.619  21.057
 5420SOL    HW127888   4.260   1.698  21.036
 5420SOL    HW227889   4.365   1.645  21.132
 5421SOL     OW27890   0.615   0.054   9.571
 5421SOL    HW127891   0.573   0.034   9.655
 5421SOL    HW227892   0.709   0.045   9.587
 5422SOL     OW27893   2.449   3.874  28.267
 5422SOL    HW127894   2.524   3.925  28.298
 5422SOL    HW227895   2.458   3.874  28.172
 5423SOL     OW27896   2.088   4.511  11.400
 5423SOL    HW127897   2.155   4.442  11.402
 5423SOL    HW227898   2.006   4.463  11.398
 5424SOL     OW27899   3.928   0.645  26.772
 5424SOL    HW127900   3.962   0.734  26.760
 5424SOL    HW227901   3.840   0.659  26.807
 5425SOL     OW27902   0.138   0.889  12.068
 5425SOL    HW127903   0.113   0.803  12.036
 5425SOL    HW227904   0.080   0.904  12.143
 5426SOL     OW27905   3.753   0.663  25.666
 5426SOL    HW127906   3.749   0.758  25.660
 5426SOL    HW227907   3.699   0.641  25.741
 5427SOL     OW27908   2.155   1.606  23.069
 5427SOL    HW127909   2.070   1.587  23.030
 5427SOL    HW227910   2.138   1.616  23.163
 5428SOL     OW27911   1.552   2.969  23.190
 5428SOL    HW127912   1.541   2.911  23.115
 5428SOL    HW227913   1.626   2.932  23.239
 5429SOL     OW27914   0.701   4.108  21.530
 5429SOL    HW127915   0.623   4.132  21.581
 5429SOL    HW227916   0.722   4.019  21.559
 5430SOL     OW27917   2.427   0.124   8.202
 5430SOL    HW127918   2.488   0.072   8.150
 5430SOL    HW227919   2.458   0.114   8.292
 5431SOL     OW27920   2.477   2.964   0.650
 5431SOL    HW127921   2.433   2.939   0.732
 5431SOL    HW227922   2.556   2.910   0.648
 5432SOL     OW27923   1.163   0.214  19.930
 5432SOL    HW127924   1.140   0.122  19.945
 5432SOL    HW227925   1.244   0.211  19.880
 5433SOL     OW27926   3.265   4.425   8.746
 5433SOL    HW127927   3.277   4.351   8.805
 5433SOL    HW227928   3.248   4.384   8.660
 5434SOL     OW27929   3.878   2.919  11.408
 5434SOL    HW127930   3.925   2.965  11.478
 5434SOL    HW227931   3.893   2.827  11.426
 5435SOL     OW27932   3.827   0.727  21.028
 5435SOL    HW127933   3.788   0.642  21.008
 5435SOL    HW227934   3.855   0.761  20.944
 5436SOL     OW27935   0.236   1.016   9.837
 5436SOL    HW127936   0.201   0.930   9.816
 5436SOL    HW227937   0.182   1.048   9.910
 5437SOL     OW27938   3.340   1.508  28.353
 5437SOL    HW127939   3.427   1.542  28.376
 5437SOL    HW227940   3.288   1.586  28.334
 5438SOL     OW27941   0.012   1.213   2.814
 5438SOL    HW127942   4.779   1.230   2.721
 5438SOL    HW227943   0.072   1.282   2.843
 5439SOL     OW27944   0.915   4.163   4.184
 5439SOL    HW127945   0.979   4.233   4.195
 5439SOL    HW227946   0.875   4.152   4.270
 5440SOL     OW27947   3.808   0.869  23.200
 5440SOL    HW127948   3.890   0.896  23.242
 5440SOL    HW227949   3.771   0.803  23.258
 5441SOL     OW27950   0.809   1.643   3.697
 5441SOL    HW127951   0.739   1.619   3.637
 5441SOL    HW227952   0.875   1.684   3.641
 5442SOL     OW27953   0.588   3.456  25.952
 5442SOL    HW127954   0.654   3.518  25.983
 5442SOL    HW227955   0.638   3.378  25.929
 5443SOL     OW27956   4.509   1.367   9.863
 5443SOL    HW127957   4.425   1.401   9.893
 5443SOL    HW227958   4.549   1.440   9.817
 5444SOL     OW27959   1.597   3.728   0.609
 5444SOL    HW127960   1.515   3.767   0.639
 5444SOL    HW227961   1.646   3.711   0.690
 5445SOL     OW27962   4.451   2.366  19.077
 5445SOL    HW127963   4.447   2.461  19.062
 5445SOL    HW227964   4.493   2.358  19.163
 5446SOL     OW27965   1.388   2.188  16.406
 5446SOL    HW127966   1.321   2.132  16.367
 5446SOL    HW227967   1.430   2.231  16.331
 5447SOL     OW27968   0.494   4.006  24.295
 5447SOL    HW127969   0.455   4.092  24.278
 5447SOL    HW227970   0.527   3.977  24.210
 5448SOL     OW27971   3.627   2.024  17.775
 5448SOL    HW127972   3.623   1.953  17.711
 5448SOL    HW227973   3.708   2.070  17.753
 5449SOL     OW27974   2.602   0.855   1.221
 5449SOL    HW127975   2.632   0.920   1.158
 5449SOL    HW227976   2.616   0.771   1.178
 5450SOL     OW27977   1.757   4.737   6.037
 5450SOL    HW127978   1.804   0.039   6.037
 5450SOL    HW227979   1.813   4.678   6.088
 5451SOL     OW27980   2.077   0.659  11.645
 5451SOL    HW127981   1.989   0.656  11.608
 5451SOL    HW227982   2.132   0.612  11.582
 5452SOL     OW27983   0.205   3.224  25.292
 5452SOL    HW127984   0.247   3.186  25.214
 5452SOL    HW227985   0.159   3.150  25.332
 5453SOL     OW27986   3.782   2.496  21.906
 5453SOL    HW127987   3.856   2.527  21.958
 5453SOL    HW227988   3.781   2.554  21.830
 5454SOL     OW27989   3.508   3.130   8.231
 5454SOL    HW127990   3.416   3.132   8.204
 5454SOL    HW227991   3.514   3.195   8.301
 5455SOL     OW27992   0.783   2.853   9.841
 5455SOL    HW127993   0.689   2.866   9.835
 5455SOL    HW227994   0.801   2.850   9.935
 5456SOL     OW27995   3.947   0.921   7.481
 5456SOL    HW127996   3.905   0.911   7.395
 5456SOL    HW227997   4.040   0.904   7.464
 5457SOL     OW27998   0.965   3.366   3.859
 5457SOL    HW127999   0.883   3.387   3.904
 5457SOL    HW228000   0.969   3.426   3.785
 5458SOL     OW28001   2.067   0.278   5.380
 5458SOL    HW128002   2.068   0.213   5.451
 5458SOL    HW228003   1.979   0.274   5.345
 5459SOL     OW28004   1.507   0.251   7.468
 5459SOL    HW128005   1.591   0.296   7.470
 5459SOL    HW228006   1.522   0.171   7.518
 5460SOL     OW28007   1.129   0.529   1.250
 5460SOL    HW128008   1.190   0.591   1.210
 5460SOL    HW228009   1.049   0.536   1.198
 5461SOL     OW28010   1.549   3.332  25.287
 5461SOL    HW128011   1.529   3.272  25.215
 5461SOL    HW228012   1.645   3.333  25.292
 5462SOL     OW28013   3.431   1.695  17.160
 5462SOL    HW128014   3.350   1.650  17.136
 5462SOL    HW228015   3.463   1.733  17.078
 5463SOL     OW28016   2.240   2.655   5.047
 5463SOL    HW128017   2.152   2.691   5.034
 5463SOL    HW228018   2.297   2.731   5.054
 5464SOL     OW28019   1.736   3.304  28.199
 5464SOL    HW128020   1.730   3.310  28.294
 5464SOL    HW228021   1.766   3.214  28.183
 5465SOL     OW28022   3.241   1.044   0.368
 5465SOL    HW128023   3.253   0.950   0.375
 5465SOL    HW228024   3.176   1.056   0.300
 5466SOL     OW28025   1.984   0.613  27.359
 5466SOL    HW128026   1.897   0.620  27.320
 5466SOL    HW228027   1.969   0.589  27.450
 5467SOL     OW28028   2.939   3.741   7.110
 5467SOL    HW128029   3.004   3.704   7.051
 5467SOL    HW228030   2.947   3.835   7.098
 5468SOL     OW28031   3.139   3.818   5.673
 5468SOL    HW128032   3.104   3.885   5.731
 5468SOL    HW228033   3.104   3.736   5.708
 5469SOL     OW28034   3.751   3.891  22.213
 5469SOL    HW128035   3.690   3.926  22.148
 5469SOL    HW228036   3.824   3.953  22.212
 5470SOL     OW28037   2.558   0.872  24.645
 5470SOL    HW128038   2.475   0.900  24.686
 5470SOL    HW228039   2.553   0.777  24.642
 5471SOL     OW28040   1.067   1.438   6.716
 5471SOL    HW128041   1.008   1.511   6.698
 5471SOL    HW228042   1.078   1.439   6.811
 5472SOL     OW28043   2.308   2.527  20.801
 5472SOL    HW128044   2.282   2.616  20.777
 5472SOL    HW228045   2.245   2.500  20.867
 5473SOL     OW28046   0.912   2.709   4.069
 5473SOL    HW128047   0.953   2.776   4.014
 5473SOL    HW228048   0.980   2.642   4.079
 5474SOL     OW28049   4.407   2.476   2.210
 5474SOL    HW128050   4.476   2.506   2.269
 5474SOL    HW228051   4.422   2.382   2.201
 5475SOL     OW28052   3.088   1.716  23.285
 5475SOL    HW128053   3.127   1.707  23.199
 5475SOL    HW228054   3.013   1.657  23.284
 5476SOL     OW28055   0.604   2.484   2.305
 5476SOL    HW128056   0.603   2.579   2.311
 5476SOL    HW228057   0.670   2.457   2.369
 5477SOL     OW28058   4.421   3.616  23.168
 5477SOL    HW128059   4.396   3.608  23.076
 5477SOL    HW228060   4.342   3.646  23.212
 5478SOL     OW28061   0.121   0.158   6.819
 5478SOL    HW128062   0.200   0.163   6.766
 5478SOL    HW228063   0.072   0.237   6.798
 5479SOL     OW28064   2.722   3.669   2.795
 5479SOL    HW128065   2.665   3.730   2.842
 5479SOL    HW228066   2.746   3.603   2.860
 5480SOL     OW28067   1.692   1.909  25.941
 5480SOL    HW128068   1.683   1.840  25.875
 5480SOL    HW228069   1.617   1.897  25.999
 5481SOL     OW28070   1.719   1.544   5.147
 5481SOL    HW128071   1.790   1.595   5.108
 5481SOL    HW228072   1.651   1.541   5.079
 5482SOL     OW28073   1.183   0.606  20.275
 5482SOL    HW128074   1.264   0.582  20.320
 5482SOL    HW228075   1.161   0.529  20.222
 5483SOL     OW28076   4.061   2.670  26.968
 5483SOL    HW128077   4.136   2.629  26.925
 5483SOL    HW228078   4.005   2.597  26.995
 5484SOL     OW28079   3.167   1.586  10.171
 5484SOL    HW128080   3.203   1.621  10.253
 5484SOL    HW228081   3.192   1.494  10.171
 5485SOL     OW28082   0.128   4.110  25.318
 5485SOL    HW128083   0.185   4.181  25.346
 5485SOL    HW228084   0.141   4.042  25.384
 5486SOL     OW28085   3.543   1.301  26.533
 5486SOL    HW128086   3.499   1.219  26.554
 5486SOL    HW228087   3.622   1.274  26.485
 5487SOL     OW28088   4.232   2.931  24.938
 5487SOL    HW128089   4.196   2.855  24.892
 5487SOL    HW228090   4.166   2.999  24.928
 5488SOL     OW28091   2.463   1.053   3.294
 5488SOL    HW128092   2.416   1.136   3.287
 5488SOL    HW228093   2.402   0.995   3.339
 5489SOL     OW28094   0.168   3.702   5.267
 5489SOL    HW128095   0.212   3.723   5.185
 5489SOL    HW228096   0.095   3.647   5.242
 5490SOL     OW28097   4.767   0.977   7.061
 5490SOL    HW128098   4.724   1.046   7.010
 5490SOL    HW228099   0.010   1.020   7.143
 5491SOL     OW28100   2.138   3.746   5.833
 5491SOL    HW128101   2.200   3.683   5.797
 5491SOL    HW228102   2.056   3.726   5.789
 5492SOL     OW28103   0.828   2.341   4.209
 5492SOL    HW128104   0.784   2.420   4.242
 5492SOL    HW228105   0.864   2.367   4.125
 5493SOL     OW28106   3.435   1.301   6.034
 5493SOL    HW128107   3.360   1.247   6.007
 5493SOL    HW228108   3.395   1.378   6.075
 5494SOL     OW28109   1.331   3.177  24.419
 5494SOL    HW128110   1.393   3.226  24.365
 5494SOL    HW228111   1.371   3.174  24.505
 5495SOL     OW28112   3.530   0.782   6.639
 5495SOL    HW128113   3.519   0.727   6.561
 5495SOL    HW228114   3.473   0.857   6.624
 5496SOL     OW28115   3.326   0.446  28.152
 5496SOL    HW128116   3.346   0.469  28.061
 5496SOL    HW228117   3.367   0.361  28.164
 5497SOL     OW28118   4.632   4.605  25.774
 5497SOL    HW128119   4.648   4.515  25.803
 5497SOL    HW228120   4.568   4.639  25.837
 5498SOL     OW28121   1.781   2.334  25.787
 5498SOL    HW128122   1.709   2.327  25.850
 5498SOL    HW228123   1.855   2.367  25.838
 5499SOL     OW28124   3.583   4.228  22.486
 5499SOL    HW128125   3.643   4.301  22.499
 5499SOL    HW228126   3.637   4.158  22.451
 5500SOL     OW28127   4.132   2.084  26.526
 5500SOL    HW128128   4.193   2.025  26.570
 5500SOL    HW228129   4.064   2.026  26.491
 5501SOL     OW28130   2.525   0.159  25.199
 5501SOL    HW128131   2.442   0.202  25.221
 5501SOL    HW228132   2.505   0.065  25.200
 5502SOL     OW28133   1.562   3.242   0.344
 5502SOL    HW128134   1.549   3.335   0.325
 5502SOL    HW228135   1.613   3.240   0.425
 5503SOL     OW28136   0.732   3.897   5.505
 5503SOL    HW128137   0.771   3.983   5.519
 5503SOL    HW228138   0.806   3.836   5.515
 5504SOL     OW28139   0.467   3.668   5.595
 5504SOL    HW128140   0.379   3.634   5.579
 5504SOL    HW228141   0.506   3.676   5.508
 5505SOL     OW28142   2.460   0.549  12.910
 5505SOL    HW128143   2.502   0.523  12.992
 5505SOL    HW228144   2.494   0.637  12.893
 5506SOL     OW28145   2.542   2.137  10.556
 5506SOL    HW128146   2.561   2.128  10.463
 5506SOL    HW228147   2.458   2.091  10.568
 5507SOL     OW28148   3.524   3.284  22.094
 5507SOL    HW128149   3.569   3.329  22.023
 5507SOL    HW228150   3.465   3.222  22.050
 5508SOL     OW28151   4.535   0.393   5.376
 5508SOL    HW128152   4.454   0.440   5.398
 5508SOL    HW228153   4.564   0.432   5.293
 5509SOL     OW28154   3.277   4.268   9.368
 5509SOL    HW128155   3.317   4.329   9.306
 5509SOL    HW228156   3.296   4.306   9.454
 5510SOL     OW28157   4.656   1.543  23.985
 5510SOL    HW128158   4.734   1.573  23.937
 5510SOL    HW228159   4.684   1.539  24.076
 5511SOL     OW28160   2.282   0.195   0.117
 5511SOL    HW128161   2.305   0.104   0.134
 5511SOL    HW228162   2.271   0.234   0.203
 5512SOL     OW28163   1.563   0.355  25.717
 5512SOL    HW128164   1.579   0.428  25.777
 5512SOL    HW228165   1.550   0.279  25.775
 5513SOL     OW28166   2.122   2.057  25.015
 5513SOL    HW128167   2.161   2.091  25.096
 5513SOL    HW228168   2.181   1.986  24.989
 5514SOL     OW28169   3.101   1.063   0.109
 5514SOL    HW128170   3.194   1.085   0.112
 5514SOL    HW228171   3.078   1.067   0.016
 5515SOL     OW28172   4.010   2.261  19.620
 5515SOL    HW128173   3.962   2.211  19.685
 5515SOL    HW228174   4.014   2.204  19.543
 5516SOL     OW28175   3.678   3.462  18.160
 5516SOL    HW128176   3.765   3.450  18.198
 5516SOL    HW228177   3.694   3.489  18.070
 5517SOL     OW28178   3.371   2.158  17.786
 5517SOL    HW128179   3.290   2.207  17.801
 5517SOL    HW228180   3.384   2.164  17.691
 5518SOL     OW28181   2.569   4.029  20.582
 5518SOL    HW128182   2.500   4.085  20.619
 5518SOL    HW228183   2.564   3.948  20.632
 5519SOL     OW28184   2.900   0.161   3.789
 5519SOL    HW128185   2.872   0.247   3.819
 5519SOL    HW228186   2.825   0.104   3.805
 5520SOL     OW28187   3.337   4.322   0.440
 5520SOL    HW128188   3.337   4.348   0.532
 5520SOL    HW228189   3.374   4.397   0.393
 5521SOL     OW28190   3.083   2.353  23.935
 5521SOL    HW128191   3.160   2.408  23.943
 5521SOL    HW228192   3.038   2.361  24.019
 5522SOL     OW28193   1.954   1.719  20.047
 5522SOL    HW128194   2.009   1.697  20.122
 5522SOL    HW228195   1.947   1.815  20.050
 5523SOL     OW28196   0.594   4.599  24.364
 5523SOL    HW128197   0.535   4.635  24.430
 5523SOL    HW228198   0.541   4.594  24.284
 5524SOL     OW28199   1.234   0.694   4.832
 5524SOL    HW128200   1.191   0.762   4.780
 5524SOL    HW228201   1.163   0.649   4.876
 5525SOL     OW28202   1.727   3.522  23.657
 5525SOL    HW128203   1.729   3.531  23.752
 5525SOL    HW228204   1.743   3.611  23.624
 5526SOL     OW28205   1.478   4.080   2.766
 5526SOL    HW128206   1.434   4.160   2.738
 5526SOL    HW228207   1.532   4.055   2.691
 5527SOL     OW28208   3.176   3.257  24.645
 5527SOL    HW128209   3.196   3.220  24.558
 5527SOL    HW228210   3.086   3.231  24.662
 5528SOL     OW28211   3.239   2.024   1.728
 5528SOL    HW128212   3.254   2.118   1.738
 5528SOL    HW228213   3.312   1.994   1.674
 5529SOL     OW28214   0.099   3.272   8.302
 5529SOL    HW128215   0.053   3.196   8.339
 5529SOL    HW228216   0.040   3.304   8.233
 5530SOL     OW28217   3.965   0.698  19.929
 5530SOL    HW128218   3.991   0.606  19.924
 5530SOL    HW228219   3.910   0.712  19.851
 5531SOL     OW28220   0.163   3.845   7.324
 5531SOL    HW128221   0.088   3.828   7.267
 5531SOL    HW228222   0.186   3.936   7.307
 5532SOL     OW28223   3.575   2.593  22.100
 5532SOL    HW128224   3.637   2.550  22.041
 5532SOL    HW228225   3.522   2.649  22.043
 5533SOL     OW28226   0.240   0.685  18.657
 5533SOL    HW128227   0.331   0.659  18.644
 5533SOL    HW228228   0.197   0.664  18.574
 5534SOL     OW28229   0.478   2.359  23.390
 5534SOL    HW128230   0.478   2.370  23.485
 5534SOL    HW228231   0.570   2.364  23.366
 5535SOL     OW28232   2.289   4.287  27.998
 5535SOL    HW128233   2.374   4.242  27.996
 5535SOL    HW228234   2.252   4.265  28.083
 5536SOL     OW28235   3.852   4.115   9.822
 5536SOL    HW128236   3.943   4.138   9.841
 5536SOL    HW228237   3.800   4.172   9.879
 5537SOL     OW28238   2.337   3.747  22.004
 5537SOL    HW128239   2.300   3.761  21.916
 5537SOL    HW228240   2.293   3.811  22.059
 5538SOL     OW28241   3.691   0.735   1.221
 5538SOL    HW128242   3.698   0.641   1.204
 5538SOL    HW228243   3.717   0.745   1.313
 5539SOL     OW28244   2.173   3.909  28.229
 5539SOL    HW128245   2.151   3.996  28.196
 5539SOL    HW228246   2.268   3.909  28.235
 5540SOL     OW28247   1.542   4.447   0.537
 5540SOL    HW128248   1.620   4.432   0.591
 5540SOL    HW228249   1.576   4.465   0.449
 5541SOL     OW28250   2.066   1.580   3.353
 5541SOL    HW128251   1.987   1.582   3.299
 5541SOL    HW228252   2.067   1.665   3.397
 5542SOL     OW28253   0.901   2.305  19.735
 5542SOL    HW128254   0.953   2.235  19.774
 5542SOL    HW228255   0.954   2.384  19.745
 5543SOL     OW28256   1.022   4.108  19.532
 5543SOL    HW128257   0.928   4.101  19.521
 5543SOL    HW228258   1.054   4.018  19.532
 5544SOL     OW28259   0.036   2.831   0.736
 5544SOL    HW128260   0.084   2.911   0.756
 5544SOL    HW228261   0.101   2.774   0.693
 5545SOL     OW28262   2.420   0.770  19.176
 5545SOL    HW128263   2.493   0.736  19.124
 5545SOL    HW228264   2.347   0.710  19.158
 5546SOL     OW28265   1.176   2.659   3.127
 5546SOL    HW128266   1.154   2.624   3.214
 5546SOL    HW228267   1.194   2.752   3.142
 5547SOL     OW28268   3.056   0.689   2.301
 5547SOL    HW128269   3.008   0.640   2.369
 5547SOL    HW228270   3.005   0.769   2.289
 5548SOL     OW28271   2.742   0.538   6.879
 5548SOL    HW128272   2.811   0.598   6.909
 5548SOL    HW228273   2.787   0.478   6.819
 5549SOL     OW28274   1.030   2.345  19.139
 5549SOL    HW128275   1.088   2.411  19.103
 5549SOL    HW228276   0.952   2.394  19.166
 5550SOL     OW28277   2.604   4.172   7.575
 5550SOL    HW128278   2.545   4.097   7.576
 5550SOL    HW228279   2.640   4.176   7.663
 5551SOL     OW28280   4.077   1.341  26.168
 5551SOL    HW128281   4.103   1.286  26.241
 5551SOL    HW228282   4.155   1.346  26.112
 5552SOL     OW28283   4.503   1.396   2.331
 5552SOL    HW128284   4.471   1.455   2.263
 5552SOL    HW228285   4.527   1.316   2.283
 5553SOL     OW28286   4.158   0.221  27.032
 5553SOL    HW128287   4.184   0.306  26.998
 5553SOL    HW228288   4.068   0.210  27.001
 5554SOL     OW28289   2.153   3.837   9.127
 5554SOL    HW128290   2.158   3.861   9.034
 5554SOL    HW228291   2.234   3.787   9.143
 5555SOL     OW28292   2.484   0.330  27.407
 5555SOL    HW128293   2.497   0.344  27.313
 5555SOL    HW228294   2.434   0.406  27.436
 5556SOL     OW28295   2.391   4.561   0.569
 5556SOL    HW128296   2.407   4.498   0.640
 5556SOL    HW228297   2.438   4.640   0.597
 5557SOL     OW28298   1.587   1.358  20.821
 5557SOL    HW128299   1.517   1.315  20.771
 5557SOL    HW228300   1.663   1.302  20.809
 5558SOL     OW28301   0.622   0.969  23.695
 5558SOL    HW128302   0.529   0.955  23.676
 5558SOL    HW228303   0.668   0.919  23.627
 5559SOL     OW28304   0.232   1.497  23.602
 5559SOL    HW128305   0.270   1.410  23.604
 5559SOL    HW228306   0.233   1.523  23.510
 5560SOL     OW28307   0.853   1.522  24.178
 5560SOL    HW128308   0.779   1.524  24.238
 5560SOL    HW228309   0.852   1.607  24.135
 5561SOL     OW28310   3.711   0.374   6.865
 5561SOL    HW128311   3.659   0.427   6.925
 5561SOL    HW228312   3.683   0.404   6.778
 5562SOL     OW28313   2.340   1.752   1.560
 5562SOL    HW128314   2.256   1.717   1.530
 5562SOL    HW228315   2.319   1.837   1.597
 5563SOL     OW28316   2.981   3.607   4.761
 5563SOL    HW128317   3.073   3.584   4.767
 5563SOL    HW228318   2.935   3.523   4.761
 5564SOL     OW28319   3.656   4.362   5.582
 5564SOL    HW128320   3.601   4.322   5.649
 5564SOL    HW228321   3.600   4.430   5.543
 5565SOL     OW28322   3.256   0.093   4.394
 5565SOL    HW128323   3.229   0.091   4.486
 5565SOL    HW228324   3.346   0.062   4.394
 5566SOL     OW28325   0.483   4.262   0.800
 5566SOL    HW128326   0.395   4.226   0.809
 5566SOL    HW228327   0.523   4.249   0.886
 5567SOL     OW28328   0.657   0.100   7.719
 5567SOL    HW128329   0.724   0.102   7.651
 5567SOL    HW228330   0.683   0.170   7.780
 5568SOL     OW28331   4.685   1.974  19.966
 5568SOL    HW128332   4.732   1.973  19.883
 5568SOL    HW228333   4.747   2.010  20.029
 5569SOL     OW28334   3.696   1.165  27.736
 5569SOL    HW128335   3.734   1.252  27.748
 5569SOL    HW228336   3.605   1.175  27.762
 5570SOL     OW28337   0.929   2.420   9.555
 5570SOL    HW128338   0.897   2.474   9.627
 5570SOL    HW228339   0.858   2.359   9.537
 5571SOL     OW28340   0.057   0.183  17.574
 5571SOL    HW128341   0.068   0.142  17.488
 5571SOL    HW228342   4.745   0.202  17.581
 5572SOL     OW28343   2.987   2.959   2.911
 5572SOL    HW128344   2.926   2.968   2.837
 5572SOL    HW228345   2.992   2.865   2.927
 5573SOL     OW28346   2.659   3.221   2.427
 5573SOL    HW128347   2.685   3.307   2.458
 5573SOL    HW228348   2.699   3.214   2.340
 5574SOL     OW28349   1.553   1.887  28.125
 5574SOL    HW128350   1.535   1.910  28.034
 5574SOL    HW228351   1.648   1.897  28.134
 5575SOL     OW28352   2.211   3.909   8.875
 5575SOL    HW128353   2.186   3.999   8.854
 5575SOL    HW228354   2.152   3.855   8.821
 5576SOL     OW28355   1.129   3.730   7.203
 5576SOL    HW128356   1.183   3.791   7.153
 5576SOL    HW228357   1.149   3.750   7.295
 5577SOL     OW28358   3.969   3.206  20.422
 5577SOL    HW128359   4.051   3.180  20.381
 5577SOL    HW228360   3.935   3.125  20.460
 5578SOL     OW28361   3.384   0.177  27.241
 5578SOL    HW128362   3.382   0.082  27.253
 5578SOL    HW228363   3.418   0.190  27.153
 5579SOL     OW28364   4.274   2.388   8.497
 5579SOL    HW128365   4.240   2.378   8.408
 5579SOL    HW228366   4.205   2.436   8.544
 5580SOL     OW28367   2.643   2.885   2.939
 5580SOL    HW128368   2.643   2.975   2.905
 5580SOL    HW228369   2.606   2.892   3.027
 5581SOL     OW28370   0.513   2.827   6.646
 5581SOL    HW128371   0.517   2.737   6.614
 5581SOL    HW228372   0.420   2.849   6.643
 5582SOL     OW28373   4.174   1.891   0.926
 5582SOL    HW128374   4.193   1.810   0.973
 5582SOL    HW228375   4.257   1.939   0.927
 5583SOL     OW28376   2.477   1.999   3.203
 5583SOL    HW128377   2.569   2.018   3.222
 5583SOL    HW228378   2.470   2.003   3.108
 5584SOL     OW28379   1.034   2.928   7.261
 5584SOL    HW128380   1.008   2.850   7.310
 5584SOL    HW228381   1.117   2.955   7.301
 5585SOL     OW28382   3.242   4.199   4.990
 5585SOL    HW128383   3.253   4.105   4.974
 5585SOL    HW228384   3.331   4.235   4.985
 5586SOL     OW28385   2.619   2.635  27.022
 5586SOL    HW128386   2.697   2.613  27.071
 5586SOL    HW228387   2.550   2.582  27.061
 5587SOL     OW28388   3.338   2.087  18.080
 5587SOL    HW128389   3.246   2.092  18.053
 5587SOL    HW228390   3.336   2.098  18.175
 5588SOL     OW28391   0.425   1.520   1.998
 5588SOL    HW128392   0.414   1.554   2.086
 5588SOL    HW228393   0.336   1.499   1.969
 5589SOL     OW28394   2.542   2.304  24.617
 5589SOL    HW128395   2.618   2.283  24.671
 5589SOL    HW228396   2.482   2.349  24.677
 5590SOL     OW28397   2.047   1.945   1.415
 5590SOL    HW128398   1.973   1.986   1.459
 5590SOL    HW228399   2.010   1.909   1.334
 5591SOL     OW28400   1.963   0.451   8.382
 5591SOL    HW128401   1.871   0.423   8.377
 5591SOL    HW228402   2.009   0.375   8.417
 5592SOL     OW28403   3.143   3.807  20.139
 5592SOL    HW128404   3.087   3.826  20.063
 5592SOL    HW228405   3.140   3.712  20.147
 5593SOL     OW28406   3.330   2.304  19.701
 5593SOL    HW128407   3.425   2.307  19.696
 5593SOL    HW228408   3.302   2.395  19.691
 5594SOL     OW28409   3.844   4.345   8.725
 5594SOL    HW128410   3.766   4.360   8.778
 5594SOL    HW228411   3.873   4.432   8.700
 5595SOL     OW28412   1.497   2.054   5.134
 5595SOL    HW128413   1.564   2.066   5.201
 5595SOL    HW228414   1.425   2.009   5.180
 5596SOL     OW28415   0.953   0.101   6.463
 5596SOL    HW128416   0.915   0.126   6.548
 5596SOL    HW228417   1.016   0.170   6.444
 5597SOL     OW28418   1.374   1.264  18.758
 5597SOL    HW128419   1.413   1.181  18.787
 5597SOL    HW228420   1.351   1.248  18.667
 5598SOL     OW28421   4.269   1.713  11.471
 5598SOL    HW128422   4.174   1.708  11.461
 5598SOL    HW228423   4.298   1.763  11.394
 5599SOL     OW28424   3.387   1.877  17.912
 5599SOL    HW128425   3.319   1.853  17.975
 5599SOL    HW228426   3.412   1.795  17.870
 5600SOL     OW28427   1.244   0.253   7.534
 5600SOL    HW128428   1.338   0.268   7.523
 5600SOL    HW228429   1.222   0.188   7.467
 5601SOL     OW28430   0.202   2.225  18.955
 5601SOL    HW128431   0.141   2.268  18.895
 5601SOL    HW228432   0.258   2.172  18.898
 5602SOL     OW28433   2.704   4.521  26.564
 5602SOL    HW128434   2.643   4.506  26.637
 5602SOL    HW228435   2.699   4.615  26.548
 5603SOL     OW28436   1.473   2.069   7.955
 5603SOL    HW128437   1.491   2.024   8.038
 5603SOL    HW228438   1.417   2.008   7.907
 5604SOL     OW28439   3.288   1.597   8.885
 5604SOL    HW128440   3.233   1.528   8.922
 5604SOL    HW228441   3.376   1.579   8.918
 5605SOL     OW28442   3.374   3.693  20.709
 5605SOL    HW128443   3.372   3.786  20.686
 5605SOL    HW228444   3.426   3.690  20.790
 5606SOL     OW28445   4.269   1.853  17.164
 5606SOL    HW128446   4.360   1.843  17.139
 5606SOL    HW228447   4.258   1.797  17.241
 5607SOL     OW28448   2.320   3.558   8.569
 5607SOL    HW128449   2.357   3.546   8.481
 5607SOL    HW228450   2.385   3.521   8.628
 5608SOL     OW28451   1.476   0.746  24.221
 5608SOL    HW128452   1.441   0.747  24.132
 5608SOL    HW228453   1.545   0.679  24.219
 5609SOL     OW28454   1.724   0.105  11.537
 5609SOL    HW128455   1.709   0.150  11.621
 5609SOL    HW228456   1.698   0.014  11.554
 5610SOL     OW28457   2.787   2.065   3.933
 5610SOL    HW128458   2.738   2.146   3.950
 5610SOL    HW228459   2.835   2.081   3.852
 5611SOL     OW28460   0.761   2.723   7.638
 5611SOL    HW128461   0.852   2.698   7.653
 5611SOL    HW228462   0.710   2.646   7.664
 5612SOL     OW28463   3.117   4.630   7.115
 5612SOL    HW128464   3.179   4.614   7.044
 5612SOL    HW228465   3.106   4.725   7.116
 5613SOL     OW28466   0.368   4.322   1.998
 5613SOL    HW128467   0.449   4.351   2.041
 5613SOL    HW228468   0.393   4.305   1.907
 5614SOL     OW28469   3.824   4.675  27.312
 5614SOL    HW128470   3.897   4.708  27.364
 5614SOL    HW228471   3.751   4.667  27.374
 5615SOL     OW28472   1.771   4.694   8.835
 5615SOL    HW128473   1.686   4.689   8.792
 5615SOL    HW228474   1.771   4.780   8.878
 5616SOL     OW28475   3.481   2.643  19.114
 5616SOL    HW128476   3.562   2.601  19.144
 5616SOL    HW228477   3.436   2.575  19.063
 5617SOL     OW28478   1.626   3.506   0.439
 5617SOL    HW128479   1.692   3.481   0.504
 5617SOL    HW228480   1.589   3.587   0.473
 5618SOL     OW28481   3.611   1.946  18.051
 5618SOL    HW128482   3.588   1.877  18.112
 5618SOL    HW228483   3.705   1.960  18.063
 5619SOL     OW28484   3.304   0.389   0.492
 5619SOL    HW128485   3.212   0.393   0.515
 5619SOL    HW228486   3.324   0.477   0.459
 5620SOL     OW28487   3.023   2.883   4.203
 5620SOL    HW128488   3.016   2.798   4.161
 5620SOL    HW228489   3.022   2.864   4.297
 5621SOL     OW28490   1.978   3.113  26.914
 5621SOL    HW128491   1.981   3.030  26.867
 5621SOL    HW228492   1.911   3.164  26.869
 5622SOL     OW28493   1.667   2.221   0.670
 5622SOL    HW128494   1.707   2.277   0.736
 5622SOL    HW228495   1.578   2.207   0.701
 5623SOL     OW28496   2.904   0.855   1.667
 5623SOL    HW128497   2.813   0.880   1.652
 5623SOL    HW228498   2.903   0.760   1.674
 5624SOL     OW28499   1.431   2.086   4.559
 5624SOL    HW128500   1.339   2.091   4.535
 5624SOL    HW228501   1.458   1.997   4.534
 5625SOL     OW28502   0.329   1.878  17.266
 5625SOL    HW128503   0.261   1.942  17.287
 5625SOL    HW228504   0.343   1.888  17.172
 5626SOL     OW28505   2.781   3.980   3.705
 5626SOL    HW128506   2.772   3.972   3.610
 5626SOL    HW228507   2.691   3.990   3.737
 5627SOL     OW28508   0.962   0.070  22.656
 5627SOL    HW128509   1.018   0.043  22.729
 5627SOL    HW228510   0.917   4.771  22.629
 5628SOL     OW28511   2.354   3.848   4.123
 5628SOL    HW128512   2.402   3.768   4.143
 5628SOL    HW228513   2.306   3.828   4.042
 5629SOL     OW28514   1.582   1.532   4.914
 5629SOL    HW128515   1.654   1.472   4.896
 5629SOL    HW228516   1.506   1.494   4.870
 5630SOL     OW28517   0.734   4.026  25.549
 5630SOL    HW128518   0.819   4.045  25.588
 5630SOL    HW228519   0.747   3.945  25.500
 5631SOL     OW28520   1.442   1.080   7.986
 5631SOL    HW128521   1.390   1.007   8.020
 5631SOL    HW228522   1.395   1.108   7.908
 5632SOL     OW28523   3.776   0.699  24.640
 5632SOL    HW128524   3.703   0.753  24.610
 5632SOL    HW228525   3.743   0.656  24.719
 5633SOL     OW28526   3.687   1.369  21.529
 5633SOL    HW128527   3.757   1.434  21.534
 5633SOL    HW228528   3.653   1.363  21.618
 5634SOL     OW28529   2.866   0.960   8.302
 5634SOL    HW128530   2.946   0.967   8.353
 5634SOL    HW228531   2.858   1.045   8.258
 5635SOL     OW28532   1.337   3.824  27.148
 5635SOL    HW128533   1.379   3.908  27.135
 5635SOL    HW228534   1.274   3.816  27.077
 5636SOL     OW28535   1.749   1.833  21.302
 5636SOL    HW128536   1.777   1.852  21.212
 5636SOL    HW228537   1.681   1.767  21.293
 5637SOL     OW28538   3.219   3.549   3.318
 5637SOL    HW128539   3.225   3.454   3.313
 5637SOL    HW228540   3.139   3.571   3.270
 5638SOL     OW28541   0.360   3.228  27.739
 5638SOL    HW128542   0.409   3.223  27.821
 5638SOL    HW228543   0.281   3.277  27.760
 5639SOL     OW28544   4.141   3.283   3.669
 5639SOL    HW128545   4.106   3.372   3.671
 5639SOL    HW228546   4.072   3.229   3.706
 5640SOL     OW28547   2.461   3.145  25.545
 5640SOL    HW128548   2.373   3.183  25.542
 5640SOL    HW228549   2.514   3.211  25.591
 5641SOL     OW28550   0.575   0.377   4.805
 5641SOL    HW128551   0.529   0.352   4.885
 5641SOL    HW228552   0.653   0.322   4.805
 5642SOL     OW28553   0.362   1.018  16.932
 5642SOL    HW128554   0.277   1.035  16.973
 5642SOL    HW228555   0.413   0.975  17.000
 5643SOL     OW28556   0.672   2.213   0.736
 5643SOL    HW128557   0.584   2.233   0.705
 5643SOL    HW228558   0.695   2.130   0.695
 5644SOL     OW28559   2.739   2.906  18.470
 5644SOL    HW128560   2.671   2.946  18.525
 5644SOL    HW228561   2.782   2.980  18.428
 5645SOL     OW28562   4.396   4.213  21.159
 5645SOL    HW128563   4.351   4.242  21.079
 5645SOL    HW228564   4.334   4.155  21.202
 5646SOL     OW28565   3.903   2.054  28.101
 5646SOL    HW128566   3.814   2.018  28.096
 5646SOL    HW228567   3.950   1.994  28.158
 5647SOL     OW28568   2.607   0.143  19.178
 5647SOL    HW128569   2.595   0.101  19.093
 5647SOL    HW228570   2.535   0.110  19.232
 5648SOL     OW28571   2.686   0.782  20.722
 5648SOL    HW128572   2.691   0.838  20.645
 5648SOL    HW228573   2.764   0.726  20.716
 5649SOL     OW28574   2.906   4.759  24.666
 5649SOL    HW128575   2.849   0.055  24.662
 5649SOL    HW228576   2.896   4.726  24.755
 5650SOL     OW28577   0.061   1.752   7.486
 5650SOL    HW128578   0.152   1.776   7.503
 5650SOL    HW228579   0.062   1.656   7.484
 5651SOL     OW28580   3.839   2.814  26.427
 5651SOL    HW128581   3.788   2.878  26.379
 5651SOL    HW228582   3.781   2.782  26.496
 5652SOL     OW28583   2.446   0.437  22.641
 5652SOL    HW128584   2.363   0.450  22.688
 5652SOL    HW228585   2.436   0.490  22.561
 5653SOL     OW28586   1.939   4.518   9.161
 5653SOL    HW128587   1.901   4.443   9.115
 5653SOL    HW228588   1.865   4.566   9.196
 5654SOL     OW28589   2.096   2.472   5.802
 5654SOL    HW128590   2.067   2.533   5.734
 5654SOL    HW228591   2.093   2.386   5.760
 5655SOL     OW28592   2.124   4.529   4.108
 5655SOL    HW128593   2.049   4.508   4.053
 5655SOL    HW228594   2.092   4.598   4.167
 5656SOL     OW28595   4.567   0.311   4.022
 5656SOL    HW128596   4.630   0.345   4.086
 5656SOL    HW228597   4.483   0.316   4.066
 5657SOL     OW28598   4.541   4.200  22.857
 5657SOL    HW128599   4.456   4.156  22.864
 5657SOL    HW228600   4.602   4.142  22.903
 5658SOL     OW28601   1.353   1.438   1.816
 5658SOL    HW128602   1.435   1.469   1.777
 5658SOL    HW228603   1.380   1.371   1.879
 5659SOL     OW28604   4.441   2.614   6.211
 5659SOL    HW128605   4.359   2.602   6.165
 5659SOL    HW228606   4.499   2.655   6.147
 5660SOL     OW28607   4.234   0.169   0.368
 5660SOL    HW128608   4.222   0.181   0.462
 5660SOL    HW228609   4.251   0.075   0.357
 5661SOL     OW28610   1.968   0.606   6.909
 5661SOL    HW128611   2.003   0.533   6.859
 5661SOL    HW228612   1.951   0.674   6.844
 5662SOL     OW28613   4.145   2.063  19.355
 5662SOL    HW128614   4.107   1.981  19.324
 5662SOL    HW228615   4.194   2.097  19.280
 5663SOL     OW28616   0.864   2.685  20.176
 5663SOL    HW128617   0.842   2.777  20.166
 5663SOL    HW228618   0.959   2.682  20.162
 5664SOL     OW28619   0.276   2.656   4.733
 5664SOL    HW128620   0.253   2.745   4.761
 5664SOL    HW228621   0.199   2.604   4.757
 5665SOL     OW28622   3.652   0.672   3.699
 5665SOL    HW128623   3.649   0.657   3.605
 5665SOL    HW228624   3.681   0.588   3.736
 5666SOL     OW28625   3.773   2.513  18.323
 5666SOL    HW128626   3.699   2.548  18.274
 5666SOL    HW228627   3.747   2.521  18.415
 5667SOL     OW28628   2.094   3.706  17.616
 5667SOL    HW128629   2.048   3.769  17.560
 5667SOL    HW228630   2.099   3.627  17.563
 5668SOL     OW28631   2.276   3.983  22.125
 5668SOL    HW128632   2.286   3.925  22.201
 5668SOL    HW228633   2.273   4.071  22.162
 5669SOL     OW28634   2.338   1.911   6.448
 5669SOL    HW128635   2.433   1.917   6.448
 5669SOL    HW228636   2.318   1.852   6.522
 5670SOL     OW28637   0.476   2.876  21.357
 5670SOL    HW128638   0.407   2.814  21.332
 5670SOL    HW228639   0.472   2.944  21.290
 5671SOL     OW28640   0.340   1.202   7.775
 5671SOL    HW128641   0.386   1.122   7.798
 5671SOL    HW228642   0.408   1.269   7.769
 5672SOL     OW28643   2.398   0.902  18.043
 5672SOL    HW128644   2.362   0.887  18.130
 5672SOL    HW228645   2.341   0.969  18.005
 5673SOL     OW28646   3.086   1.899  10.139
 5673SOL    HW128647   3.164   1.869  10.092
 5673SOL    HW228648   3.120   1.931  10.223
 5674SOL     OW28649   1.596   2.376  20.019
 5674SOL    HW128650   1.567   2.411  20.103
 5674SOL    HW228651   1.666   2.314  20.041
 5675SOL     OW28652   0.303   1.111  17.769
 5675SOL    HW128653   0.219   1.145  17.737
 5675SOL    HW228654   0.324   1.039  17.710
 5676SOL     OW28655   1.984   2.423  28.402
 5676SOL    HW128656   2.005   2.486  28.333
 5676SOL    HW228657   1.905   2.458  28.443
 5677SOL     OW28658   3.810   0.559   7.597
 5677SOL    HW128659   3.808   0.643   7.550
 5677SOL    HW228660   3.895   0.559   7.642
 5678SOL     OW28661   3.738   4.702  20.579
 5678SOL    HW128662   3.818   4.658  20.608
 5678SOL    HW228663   3.768   0.006  20.545
 5679SOL     OW28664   2.568   2.350   8.263
 5679SOL    HW128665   2.604   2.358   8.352
 5679SOL    HW228666   2.607   2.423   8.215
 5680SOL     OW28667   0.705   1.964   5.053
 5680SOL    HW128668   0.733   2.043   5.098
 5680SOL    HW228669   0.771   1.898   5.077
 5681SOL     OW28670   4.675   0.273   9.330
 5681SOL    HW128671   4.642   0.337   9.268
 5681SOL    HW228672   4.738   0.321   9.383
 5682SOL     OW28673   2.549   3.402  25.665
 5682SOL    HW128674   2.605   3.476  25.687
 5682SOL    HW228675   2.478   3.406  25.729
 5683SOL     OW28676   0.135   3.779   9.901
 5683SOL    HW128677   0.083   3.699   9.895
 5683SOL    HW228678   0.146   3.807   9.810
 5684SOL     OW28679   1.025   3.747  25.380
 5684SOL    HW128680   1.092   3.816  25.382
 5684SOL    HW228681   0.951   3.787  25.333
 5685SOL     OW28682   4.009   0.795   9.014
 5685SOL    HW128683   3.933   0.744   8.985
 5685SOL    HW228684   4.052   0.821   8.933
 5686SOL     OW28685   2.220   2.967  21.724
 5686SOL    HW128686   2.313   2.947  21.708
 5686SOL    HW228687   2.222   3.042  21.783
 5687SOL     OW28688   2.913   3.230   8.255
 5687SOL    HW128689   2.957   3.314   8.248
 5687SOL    HW228690   2.863   3.222   8.174
 5688SOL     OW28691   0.925   1.856  26.754
 5688SOL    HW128692   0.965   1.887  26.835
 5688SOL    HW228693   0.992   1.869  26.687
 5689SOL     OW28694   3.469   0.658  10.580
 5689SOL    HW128695   3.478   0.651  10.485
 5689SOL    HW228696   3.464   0.751  10.597
 5690SOL     OW28697   0.206   1.060  20.630
 5690SOL    HW128698   0.271   1.006  20.675
 5690SOL    HW228699   0.257   1.111  20.567
 5691SOL     OW28700   2.694   3.645  24.516
 5691SOL    HW128701   2.673   3.659  24.423
 5691SOL    HW228702   2.626   3.694  24.563
 5692SOL     OW28703   2.763   1.258  22.502
 5692SOL    HW128704   2.857   1.277  22.492
 5692SOL    HW228705   2.723   1.342  22.521
 5693SOL     OW28706   2.844   3.469  23.404
 5693SOL    HW128707   2.785   3.395  23.419
 5693SOL    HW228708   2.869   3.461  23.312
 5694SOL     OW28709   4.579   0.279  23.517
 5694SOL    HW128710   4.562   0.237  23.601
 5694SOL    HW228711   4.674   0.291  23.515
 5695SOL     OW28712   2.077   4.756   9.064
 5695SOL    HW128713   2.036   4.765   8.979
 5695SOL    HW228714   2.077   0.063   9.101
 5696SOL     OW28715   4.653   0.870  24.355
 5696SOL    HW128716   4.617   0.794  24.401
 5696SOL    HW228717   4.578   0.928  24.342
 5697SOL     OW28718   2.001   0.594  22.582
 5697SOL    HW128719   1.958   0.676  22.607
 5697SOL    HW228720   1.991   0.591  22.486
 5698SOL     OW28721   2.827   2.209  18.651
 5698SOL    HW128722   2.745   2.256  18.664
 5698SOL    HW228723   2.833   2.198  18.556
 5699SOL     OW28724   3.713   1.693   5.735
 5699SOL    HW128725   3.740   1.732   5.818
 5699SOL    HW228726   3.771   1.732   5.670
 5700SOL     OW28727   0.782   2.461  20.295
 5700SOL    HW128728   0.800   2.545  20.252
 5700SOL    HW228729   0.845   2.400  20.255
 5701SOL     OW28730   4.146   3.886   7.209
 5701SOL    HW128731   4.054   3.899   7.186
 5701SOL    HW228732   4.151   3.794   7.235
 5702SOL     OW28733   2.870   1.253  24.414
 5702SOL    HW128734   2.889   1.302  24.334
 5702SOL    HW228735   2.897   1.163  24.394
 5703SOL     OW28736   2.820   2.591  26.115
 5703SOL    HW128737   2.794   2.573  26.024
 5703SOL    HW228738   2.895   2.533  26.129
 5704SOL     OW28739   0.822   0.747  24.095
 5704SOL    HW128740   0.823   0.681  24.165
 5704SOL    HW228741   0.898   0.802  24.113
 5705SOL     OW28742   0.256   4.027  10.418
 5705SOL    HW128743   0.298   4.057  10.499
 5705SOL    HW228744   0.182   3.974  10.448
 5706SOL     OW28745   2.776   0.243   9.741
 5706SOL    HW128746   2.867   0.272   9.747
 5706SOL    HW228747   2.737   0.299   9.674
 5707SOL     OW28748   1.114   1.882  21.430
 5707SOL    HW128749   1.178   1.820  21.395
 5707SOL    HW228750   1.148   1.906  21.516
 5708SOL     OW28751   3.064   4.474   8.382
 5708SOL    HW128752   3.077   4.516   8.297
 5708SOL    HW228753   2.992   4.522   8.422
 5709SOL     OW28754   0.176   2.329  28.138
 5709SOL    HW128755   0.212   2.391  28.202
 5709SOL    HW228756   0.083   2.352  28.132
 5710SOL     OW28757   2.813   4.587   4.973
 5710SOL    HW128758   2.887   4.535   5.004
 5710SOL    HW228759   2.750   4.585   5.045
 5711SOL     OW28760   0.919   2.889  25.142
 5711SOL    HW128761   0.865   2.953  25.095
 5711SOL    HW228762   0.899   2.805  25.101
 5712SOL     OW28763   3.210   2.253   6.734
 5712SOL    HW128764   3.306   2.259   6.735
 5712SOL    HW228765   3.185   2.285   6.648
 5713SOL     OW28766   4.763   2.994  24.992
 5713SOL    HW128767   4.739   2.993  24.899
 5713SOL    HW228768   4.761   2.902  25.018
 5714SOL     OW28769   3.158   4.580   0.293
 5714SOL    HW128770   3.110   4.498   0.295
 5714SOL    HW228771   3.222   4.572   0.364
 5715SOL     OW28772   4.714   1.223   0.255
 5715SOL    HW128773   4.649   1.277   0.210
 5715SOL    HW228774   4.671   1.195   0.336
 5716SOL     OW28775   4.519   0.402   7.791
 5716SOL    HW128776   4.517   0.353   7.873
 5716SOL    HW228777   4.428   0.403   7.761
 5717SOL     OW28778   2.793   2.686   0.226
 5717SOL    HW128779   2.779   2.598   0.260
 5717SOL    HW228780   2.729   2.740   0.272
 5718SOL     OW28781   3.197   3.116   1.736
 5718SOL    HW128782   3.162   3.195   1.694
 5718SOL    HW228783   3.292   3.128   1.736
 5719SOL     OW28784   2.283   1.978   0.787
 5719SOL    HW128785   2.225   2.047   0.755
 5719SOL    HW228786   2.321   1.940   0.708
 5720SOL     OW28787   4.235   1.971   6.973
 5720SOL    HW128788   4.189   2.054   6.984
 5720SOL    HW228789   4.184   1.907   7.021
 5721SOL     OW28790   2.727   1.011   6.681
 5721SOL    HW128791   2.711   0.949   6.753
 5721SOL    HW228792   2.695   1.095   6.713
 5722SOL     OW28793   2.636   1.136   5.435
 5722SOL    HW128794   2.621   1.199   5.506
 5722SOL    HW228795   2.585   1.059   5.461
 5723SOL     OW28796   4.293   1.340  25.782
 5723SOL    HW128797   4.242   1.261  25.798
 5723SOL    HW228798   4.250   1.383  25.708
 5724SOL     OW28799   0.185   2.506  16.883
 5724SOL    HW128800   0.273   2.469  16.885
 5724SOL    HW228801   0.195   2.591  16.841
 5725SOL     OW28802   2.825   0.961  21.454
 5725SOL    HW128803   2.892   0.997  21.512
 5725SOL    HW228804   2.768   1.036  21.433
 5726SOL     OW28805   2.221   1.077   5.802
 5726SOL    HW128806   2.143   1.132   5.792
 5726SOL    HW228807   2.195   0.992   5.767
 5727SOL     OW28808   0.499   2.390   7.493
 5727SOL    HW128809   0.591   2.414   7.481
 5727SOL    HW228810   0.458   2.408   7.408
 5728SOL     OW28811   3.267   0.884  16.965
 5728SOL    HW128812   3.179   0.846  16.968
 5728SOL    HW228813   3.301   0.872  17.054
 5729SOL     OW28814   3.855   3.194  17.910
 5729SOL    HW128815   3.885   3.232  17.992
 5729SOL    HW228816   3.858   3.265  17.847
 5730SOL     OW28817   4.582   2.869  16.754
 5730SOL    HW128818   4.600   2.826  16.670
 5730SOL    HW228819   4.603   2.961  16.739
 5731SOL     OW28820   1.452   1.968  19.533
 5731SOL    HW128821   1.440   2.063  19.539
 5731SOL    HW228822   1.547   1.956  19.527
 5732SOL     OW28823   0.442   3.598   7.837
 5732SOL    HW128824   0.455   3.678   7.886
 5732SOL    HW228825   0.347   3.585   7.837
 5733SOL     OW28826   2.960   0.664  20.760
 5733SOL    HW128827   3.020   0.690  20.690
 5733SOL    HW228828   2.990   0.577  20.786
 5734SOL     OW28829   0.320   2.886   0.440
 5734SOL    HW128830   0.360   2.960   0.485
 5734SOL    HW228831   0.393   2.832   0.411
 5735SOL     OW28832   3.107   0.224   2.561
 5735SOL    HW128833   3.168   0.288   2.595
 5735SOL    HW228834   3.135   0.209   2.470
 5736SOL     OW28835   2.760   1.596  24.043
 5736SOL    HW128836   2.688   1.652  24.015
 5736SOL    HW228837   2.768   1.611  24.137
 5737SOL     OW28838   0.484   2.848   8.707
 5737SOL    HW128839   0.515   2.782   8.768
 5737SOL    HW228840   0.524   2.930   8.737
 5738SOL     OW28841   3.579   1.624   1.904
 5738SOL    HW128842   3.487   1.650   1.899
 5738SOL    HW228843   3.626   1.704   1.927
 5739SOL     OW28844   3.203   4.066  23.884
 5739SOL    HW128845   3.264   4.031  23.819
 5739SOL    HW228846   3.257   4.118  23.943
 5740SOL     OW28847   0.231   1.308   0.496
 5740SOL    HW128848   0.304   1.261   0.455
 5740SOL    HW228849   0.261   1.325   0.586
 5741SOL     OW28850   2.786   2.441   4.196
 5741SOL    HW128851   2.880   2.456   4.198
 5741SOL    HW228852   2.765   2.431   4.103
 5742SOL     OW28853   0.337   1.952  11.572
 5742SOL    HW128854   0.243   1.968  11.583
 5742SOL    HW228855   0.378   2.032  11.605
 5743SOL     OW28856   3.345   0.427   8.056
 5743SOL    HW128857   3.290   0.374   8.114
 5743SOL    HW228858   3.430   0.383   8.057
 5744SOL     OW28859   3.794   1.226  17.489
 5744SOL    HW128860   3.870   1.237  17.432
 5744SOL    HW228861   3.720   1.252  17.435
 5745SOL     OW28862   0.449   0.560   2.461
 5745SOL    HW128863   0.452   0.557   2.365
 5745SOL    HW228864   0.498   0.483   2.489
 5746SOL     OW28865   2.791   0.925  10.176
 5746SOL    HW128866   2.855   0.974  10.227
 5746SOL    HW228867   2.715   0.917  10.235
 5747SOL     OW28868   2.353   4.600   9.167
 5747SOL    HW128869   2.406   4.671   9.131
 5747SOL    HW228870   2.416   4.535   9.197
 5748SOL     OW28871   0.153   3.931  25.525
 5748SOL    HW128872   0.075   3.890  25.563
 5748SOL    HW228873   0.212   3.943  25.598
 5749SOL     OW28874   1.605   2.240   0.104
 5749SOL    HW128875   1.624   2.158   0.057
 5749SOL    HW228876   1.509   2.247   0.102
 5750SOL     OW28877   3.939   0.208   3.197
 5750SOL    HW128878   3.921   0.148   3.124
 5750SOL    HW228879   3.864   0.197   3.256
 5751SOL     OW28880   4.580   1.115  20.766
 5751SOL    HW128881   4.580   1.072  20.681
 5751SOL    HW228882   4.647   1.183  20.759
 5752SOL     OW28883   2.903   1.691  10.200
 5752SOL    HW128884   2.978   1.633  10.182
 5752SOL    HW228885   2.845   1.638  10.255
 5753SOL     OW28886   1.999   4.025  20.427
 5753SOL    HW128887   1.931   3.979  20.475
 5753SOL    HW228888   1.998   3.985  20.340
 5754SOL     OW28889   2.793   3.470  22.631
 5754SOL    HW128890   2.753   3.529  22.568
 5754SOL    HW228891   2.755   3.384  22.613
 5755SOL     OW28892   3.813   1.000  18.409
 5755SOL    HW128893   3.895   1.047  18.418
 5755SOL    HW228894   3.776   1.031  18.327
 5756SOL     OW28895   2.252   4.274   1.200
 5756SOL    HW128896   2.310   4.311   1.133
 5756SOL    HW228897   2.296   4.193   1.227
 5757SOL     OW28898   3.320   1.460  26.508
 5757SOL    HW128899   3.291   1.445  26.598
 5757SOL    HW228900   3.388   1.394  26.494
 5758SOL     OW28901   3.113   4.461  22.138
 5758SOL    HW128902   3.201   4.454  22.101
 5758SOL    HW228903   3.116   4.539  22.193
 5759SOL     OW28904   2.092   0.252  23.154
 5759SOL    HW128905   2.038   0.173  23.148
 5759SOL    HW228906   2.046   0.316  23.100
 5760SOL     OW28907   2.005   3.361   0.985
 5760SOL    HW128908   1.997   3.423   1.057
 5760SOL    HW228909   2.089   3.318   1.000
 5761SOL     OW28910   1.677   1.430  23.337
 5761SOL    HW128911   1.642   1.503  23.389
 5761SOL    HW228912   1.769   1.452  23.325
 5762SOL     OW28913   1.087   4.767  20.177
 5762SOL    HW128914   1.175   4.740  20.206
 5762SOL    HW228915   1.086   4.748  20.083
 5763SOL     OW28916   1.416   3.525  23.805
 5763SOL    HW128917   1.382   3.548  23.891
 5763SOL    HW228918   1.463   3.603  23.775
 5764SOL     OW28919   3.503   3.756   0.745
 5764SOL    HW128920   3.480   3.700   0.819
 5764SOL    HW228921   3.512   3.844   0.783
 5765SOL     OW28922   2.184   4.520   8.969
 5765SOL    HW128923   2.131   4.524   8.889
 5765SOL    HW228924   2.259   4.466   8.945
 5766SOL     OW28925   1.980   4.081   6.701
 5766SOL    HW128926   1.985   4.070   6.606
 5766SOL    HW228927   1.986   3.991   6.735
 5767SOL     OW28928   1.405   0.644   3.361
 5767SOL    HW128929   1.321   0.661   3.319
 5767SOL    HW228930   1.382   0.622   3.451
 5768SOL     OW28931   3.107   2.783   6.359
 5768SOL    HW128932   3.190   2.736   6.356
 5768SOL    HW228933   3.115   2.843   6.433
 5769SOL     OW28934   1.577   2.747  20.106
 5769SOL    HW128935   1.520   2.682  20.145
 5769SOL    HW228936   1.518   2.815  20.075
 5770SOL     OW28937   3.975   2.806   7.038
 5770SOL    HW128938   3.926   2.862   6.978
 5770SOL    HW228939   4.066   2.813   7.008
 5771SOL     OW28940   4.733   3.199  20.476
 5771SOL    HW128941   4.686   3.282  20.477
 5771SOL    HW228942   0.036   3.219  20.435
 5772SOL     OW28943   1.023   3.570   9.411
 5772SOL    HW128944   0.930   3.565   9.391
 5772SOL    HW228945   1.029   3.539   9.502
 5773SOL     OW28946   0.933   3.952   6.047
 5773SOL    HW128947   0.841   3.976   6.056
 5773SOL    HW228948   0.932   3.862   6.015
 5774SOL     OW28949   4.574   0.538  22.915
 5774SOL    HW128950   4.615   0.597  22.851
 5774SOL    HW228951   4.480   0.545  22.899
 5775SOL     OW28952   2.998   0.437  22.191
 5775SOL    HW128953   3.021   0.498  22.121
 5775SOL    HW228954   3.052   0.463  22.265
 5776SOL     OW28955   4.143   3.000   5.475
 5776SOL    HW128956   4.108   2.915   5.449
 5776SOL    HW228957   4.068   3.049   5.508
 5777SOL     OW28958   1.551   4.144   3.955
 5777SOL    HW128959   1.611   4.086   4.001
 5777SOL    HW228960   1.512   4.089   3.886
 5778SOL     OW28961   3.267   2.879   4.648
 5778SOL    HW128962   3.181   2.914   4.674
 5778SOL    HW228963   3.274   2.902   4.555
 5779SOL     OW28964   1.153   3.344   4.068
 5779SOL    HW128965   1.085   3.379   4.011
 5779SOL    HW228966   1.232   3.344   4.014
 5780SOL     OW28967   4.097   1.027  22.643
 5780SOL    HW128968   4.044   1.098  22.677
 5780SOL    HW228969   4.174   1.025  22.700
 5781SOL     OW28970   0.803   3.727   0.861
 5781SOL    HW128971   0.879   3.748   0.915
 5781SOL    HW228972   0.728   3.762   0.910
 5782SOL     OW28973   1.398   0.247   8.968
 5782SOL    HW128974   1.326   0.310   8.963
 5782SOL    HW228975   1.393   0.212   9.057
 5783SOL     OW28976   0.419   1.914   0.911
 5783SOL    HW128977   0.401   1.993   0.859
 5783SOL    HW228978   0.335   1.870   0.918
 5784SOL     OW28979   0.402   1.304  23.891
 5784SOL    HW128980   0.490   1.324  23.923
 5784SOL    HW228981   0.344   1.339  23.958
 5785SOL     OW28982   3.755   1.053  28.481
 5785SOL    HW128983   3.777   1.061  28.388
 5785SOL    HW228984   3.789   0.967  28.507
 5786SOL     OW28985   3.837   1.372   6.685
 5786SOL    HW128986   3.819   1.448   6.740
 5786SOL    HW228987   3.760   1.316   6.696
 5787SOL     OW28988   4.117   0.944  21.074
 5787SOL    HW128989   4.115   0.915  20.983
 5787SOL    HW228990   4.210   0.958  21.093
 5788SOL     OW28991   0.129   0.769   3.793
 5788SOL    HW128992   0.175   0.827   3.732
 5788SOL    HW228993   0.185   0.768   3.871
 5789SOL     OW28994   4.769   4.722  26.051
 5789SOL    HW128995   0.011   4.738  25.960
 5789SOL    HW228996   4.726   0.021  26.080
 5790SOL     OW28997   1.882   1.872  27.279
 5790SOL    HW128998   1.907   1.944  27.221
 5790SOL    HW228999   1.960   1.858  27.334
 5791SOL     OW29000   0.026   3.597  26.156
 5791SOL    HW129001   0.114   3.624  26.130
 5791SOL    HW229002   0.037   3.563  26.245
 5792SOL     OW29003   2.166   4.384   9.228
 5792SOL    HW129004   2.130   4.324   9.293
 5792SOL    HW229005   2.250   4.345   9.202
 5793SOL     OW29006   0.079   2.034   1.484
 5793SOL    HW129007   0.057   1.992   1.401
 5793SOL    HW229008   4.777   2.067   1.518
 5794SOL     OW29009   0.952   3.522   3.615
 5794SOL    HW129010   0.960   3.601   3.669
 5794SOL    HW229011   1.009   3.539   3.540
 5795SOL     OW29012   4.444   2.828   1.055
 5795SOL    HW129013   4.452   2.818   0.960
 5795SOL    HW229014   4.370   2.771   1.078
 5796SOL     OW29015   3.108   0.750  28.202
 5796SOL    HW129016   3.169   0.799  28.258
 5796SOL    HW229017   3.113   0.795  28.117
 5797SOL     OW29018   3.146   3.644   0.169
 5797SOL    HW129019   3.123   3.591   0.093
 5797SOL    HW229020   3.074   3.629   0.231
 5798SOL     OW29021   3.492   0.400  23.388
 5798SOL    HW129022   3.534   0.358  23.313
 5798SOL    HW229023   3.399   0.384  23.375
 5799SOL     OW29024   0.387   0.748  27.489
 5799SOL    HW129025   0.477   0.715  27.491
 5799SOL    HW229026   0.332   0.670  27.491
 5800SOL     OW29027   2.040   2.336  24.967
 5800SOL    HW129028   2.054   2.241  24.965
 5800SOL    HW229029   2.039   2.358  25.060
 5801SOL     OW29030   4.393   3.251  24.941
 5801SOL    HW129031   4.482   3.225  24.914
 5801SOL    HW229032   4.344   3.169  24.940
 5802SOL     OW29033   0.046   0.090   2.661
 5802SOL    HW129034   0.125   0.037   2.650
 5802SOL    HW229035   0.076   0.168   2.707
 5803SOL     OW29036   3.612   4.780  23.848
 5803SOL    HW129037   3.541   4.723  23.879
 5803SOL    HW229038   3.568   0.079  23.819
 5804SOL     OW29039   4.448   4.217   4.405
 5804SOL    HW129040   4.477   4.155   4.472
 5804SOL    HW229041   4.476   4.302   4.437
 5805SOL     OW29042   0.792   0.675   8.624
 5805SOL    HW129043   0.769   0.710   8.710
 5805SOL    HW229044   0.884   0.648   8.633
 5806SOL     OW29045   4.052   1.598  27.335
 5806SOL    HW129046   4.037   1.559  27.421
 5806SOL    HW229047   4.111   1.537  27.290
 5807SOL     OW29048   0.814   3.787  24.760
 5807SOL    HW129049   0.842   3.745  24.678
 5807SOL    HW229050   0.887   3.775  24.819
 5808SOL     OW29051   1.379   1.737   6.867
 5808SOL    HW129052   1.436   1.726   6.944
 5808SOL    HW229053   1.309   1.673   6.880
 5809SOL     OW29054   0.516   3.663   4.769
 5809SOL    HW129055   0.487   3.751   4.795
 5809SOL    HW229056   0.611   3.668   4.769
 5810SOL     OW29057   1.512   0.812  24.757
 5810SOL    HW129058   1.601   0.842  24.737
 5810SOL    HW229059   1.459   0.843  24.683
 5811SOL     OW29060   4.281   1.426  22.997
 5811SOL    HW129061   4.328   1.432  23.080
 5811SOL    HW229062   4.349   1.408  22.932
 5812SOL     OW29063   3.115   3.308   2.968
 5812SOL    HW129064   3.057   3.255   3.022
 5812SOL    HW229065   3.155   3.370   3.029
 5813SOL     OW29066   1.146   1.566  12.472
 5813SOL    HW129067   1.151   1.570  12.376
 5813SOL    HW229068   1.080   1.631  12.495
 5814SOL     OW29069   3.238   0.942  22.418
 5814SOL    HW129070   3.333   0.936  22.415
 5814SOL    HW229071   3.212   0.877  22.483
 5815SOL     OW29072   4.751   2.579   3.822
 5815SOL    HW129073   0.015   2.510   3.773
 5815SOL    HW229074   4.747   2.652   3.760
 5816SOL     OW29075   3.429   1.931   7.908
 5816SOL    HW129076   3.519   1.953   7.930
 5816SOL    HW229077   3.430   1.837   7.893
 5817SOL     OW29078   3.492   4.759   0.979
 5817SOL    HW129079   3.502   0.073   0.967
 5817SOL    HW229080   3.555   4.721   0.918
 5818SOL     OW29081   2.956   1.792  25.730
 5818SOL    HW129082   3.028   1.743  25.769
 5818SOL    HW229083   2.921   1.733  25.663
 5819SOL     OW29084   1.738   4.331  25.573
 5819SOL    HW129085   1.747   4.282  25.491
 5819SOL    HW229086   1.644   4.337  25.587
 5820SOL     OW29087   1.782   2.845  20.256
 5820SOL    HW129088   1.828   2.801  20.327
 5820SOL    HW229089   1.740   2.774  20.206
 5821SOL     OW29090   1.626   4.640  20.431
 5821SOL    HW129091   1.645   4.622  20.523
 5821SOL    HW229092   1.685   4.711  20.408
 5822SOL     OW29093   4.480   4.201   7.358
 5822SOL    HW129094   4.552   4.155   7.401
 5822SOL    HW229095   4.441   4.135   7.300
 5823SOL     OW29096   2.404   0.840  21.331
 5823SOL    HW129097   2.363   0.915  21.288
 5823SOL    HW229098   2.469   0.880  21.389
 5824SOL     OW29099   3.441   2.822  26.687
 5824SOL    HW129100   3.369   2.761  26.671
 5824SOL    HW229101   3.427   2.892  26.624
 5825SOL     OW29102   4.204   0.345   2.510
 5825SOL    HW129103   4.200   0.331   2.605
 5825SOL    HW229104   4.118   0.317   2.479
 5826SOL     OW29105   3.529   2.817  24.223
 5826SOL    HW129106   3.556   2.746  24.165
 5826SOL    HW229107   3.440   2.838  24.195
 5827SOL     OW29108   3.467   0.422   4.006
 5827SOL    HW129109   3.432   0.423   3.917
 5827SOL    HW229110   3.538   0.358   4.003
 5828SOL     OW29111   3.270   0.005  10.584
 5828SOL    HW129112   3.220   4.737  10.649
 5828SOL    HW229113   3.327   0.063  10.635
 5829SOL     OW29114   0.434   0.279  24.314
 5829SOL    HW129115   0.452   0.189  24.339
 5829SOL    HW229116   0.352   0.276  24.266
 5830SOL     OW29117   0.412   0.254  20.428
 5830SOL    HW129118   0.364   0.175  20.408
 5830SOL    HW229119   0.446   0.284  20.344
 5831SOL     OW29120   0.206   2.399  27.580
 5831SOL    HW129121   0.150   2.463  27.536
 5831SOL    HW229122   0.275   2.380  27.517
 5832SOL     OW29123   3.063   3.046  17.043
 5832SOL    HW129124   3.082   3.006  17.128
 5832SOL    HW229125   3.050   2.973  16.983
 5833SOL     OW29126   2.683   0.114   2.024
 5833SOL    HW129127   2.760   0.070   2.059
 5833SOL    HW229128   2.645   0.159   2.099
 5834SOL     OW29129   0.100   1.609   4.371
 5834SOL    HW129130   0.184   1.609   4.417
 5834SOL    HW229131   0.035   1.631   4.438
 5835SOL     OW29132   1.415   0.351  20.979
 5835SOL    HW129133   1.437   0.288  20.911
 5835SOL    HW229134   1.409   0.435  20.934
 5836SOL     OW29135   2.731   1.296  25.973
 5836SOL    HW129136   2.780   1.218  25.999
 5836SOL    HW229137   2.644   1.284  26.013
 5837SOL     OW29138   3.323   3.617   8.541
 5837SOL    HW129139   3.417   3.619   8.522
 5837SOL    HW229140   3.290   3.699   8.505
 5838SOL     OW29141   3.216   3.866  24.093
 5838SOL    HW129142   3.303   3.882  24.131
 5838SOL    HW229143   3.210   3.928  24.021
 5839SOL     OW29144   0.126   0.975  26.651
 5839SOL    HW129145   0.063   1.041  26.680
 5839SOL    HW229146   0.209   1.003  26.688
 5840SOL     OW29147   4.180   0.036   4.893
 5840SOL    HW129148   4.263   0.048   4.939
 5840SOL    HW229149   4.155   0.124   4.865
 5841SOL     OW29150   1.685   3.432  22.253
 5841SOL    HW129151   1.746   3.364  22.223
 5841SOL    HW229152   1.621   3.385  22.306
 5842SOL     OW29153   0.016   2.499  17.917
 5842SOL    HW129154   0.025   2.475  17.825
 5842SOL    HW229155   4.772   2.418  17.961
 5843SOL     OW29156   3.784   4.482   3.526
 5843SOL    HW129157   3.746   4.448   3.606
 5843SOL    HW229158   3.732   4.442   3.456
 5844SOL     OW29159   1.967   4.046  28.390
 5844SOL    HW129160   1.899   3.982  28.370
 5844SOL    HW229161   2.023   4.003  28.454
 5845SOL     OW29162   3.137   3.145   4.240
 5845SOL    HW129163   3.094   3.164   4.324
 5845SOL    HW229164   3.094   3.066   4.209
 5846SOL     OW29165   4.247   0.007  20.123
 5846SOL    HW129166   4.326   4.743  20.093
 5846SOL    HW229167   4.255   0.007  20.219
 5847SOL     OW29168   4.530   3.294   3.365
 5847SOL    HW129169   4.547   3.369   3.423
 5847SOL    HW229170   4.438   3.272   3.382
 5848SOL     OW29171   2.320   2.850  19.703
 5848SOL    HW129172   2.255   2.901  19.752
 5848SOL    HW229173   2.305   2.873  19.612
 5849SOL     OW29174   2.977   3.635   1.301
 5849SOL    HW129175   3.022   3.612   1.220
 5849SOL    HW229176   2.997   3.563   1.360
 5850SOL     OW29177   3.773   3.610   7.131
 5850SOL    HW129178   3.804   3.653   7.051
 5850SOL    HW229179   3.691   3.568   7.106
 5851SOL     OW29180   0.746   0.125  22.815
 5851SOL    HW129181   0.815   0.106  22.752
 5851SOL    HW229182   0.770   0.074  22.892
 5852SOL     OW29183   2.919   3.680  27.351
 5852SOL    HW129184   2.943   3.763  27.309
 5852SOL    HW229185   2.968   3.680  27.433
 5853SOL     OW29186   3.194   4.484   5.545
 5853SOL    HW129187   3.164   4.511   5.458
 5853SOL    HW229188   3.165   4.554   5.603
 5854SOL     OW29189   1.875   0.939  27.558
 5854SOL    HW129190   1.780   0.938  27.574
 5854SOL    HW229191   1.907   0.862  27.605
 5855SOL     OW29192   3.470   2.848   4.224
 5855SOL    HW129193   3.482   2.797   4.143
 5855SOL    HW229194   3.540   2.819   4.281
 5856SOL     OW29195   0.097   1.251  17.629
 5856SOL    HW129196   0.142   1.332  17.608
 5856SOL    HW229197   0.009   1.277  17.656
 5857SOL     OW29198   2.729   1.104  19.536
 5857SOL    HW129199   2.729   1.037  19.604
 5857SOL    HW229200   2.638   1.107  19.506
 5858SOL     OW29201   3.818   3.551   5.250
 5858SOL    HW129202   3.909   3.579   5.236
 5858SOL    HW229203   3.818   3.458   5.226
 5859SOL     OW29204   0.064   1.774   8.715
 5859SOL    HW129205   0.027   1.790   8.628
 5859SOL    HW229206   0.082   1.861   8.749
 5860SOL     OW29207   0.137   2.699   5.568
 5860SOL    HW129208   0.065   2.659   5.616
 5860SOL    HW229209   0.115   2.792   5.563
 5861SOL     OW29210   3.591   0.048   8.669
 5861SOL    HW129211   3.676   0.091   8.657
 5861SOL    HW229212   3.562   0.074   8.756
 5862SOL     OW29213   3.043   1.793   9.571
 5862SOL    HW129214   3.124   1.748   9.550
 5862SOL    HW229215   3.069   1.865   9.628
 5863SOL     OW29216   2.527   0.906  23.411
 5863SOL    HW129217   2.464   0.974  23.388
 5863SOL    HW229218   2.613   0.948  23.403
 5864SOL     OW29219   0.431   1.603  26.679
 5864SOL    HW129220   0.404   1.518  26.644
 5864SOL    HW229221   0.499   1.633  26.619
 5865SOL     OW29222   0.351   3.866  20.868
 5865SOL    HW129223   0.275   3.922  20.852
 5865SOL    HW229224   0.424   3.927  20.879
 5866SOL     OW29225   2.376   4.520   8.282
 5866SOL    HW129226   2.394   4.533   8.375
 5866SOL    HW229227   2.303   4.579   8.262
 5867SOL     OW29228   1.023   2.967  25.365
 5867SOL    HW129229   1.010   2.948  25.272
 5867SOL    HW229230   1.106   3.014  25.368
 5868SOL     OW29231   3.428   4.287  23.635
 5868SOL    HW129232   3.475   4.370  23.633
 5868SOL    HW229233   3.423   4.261  23.543
 5869SOL     OW29234   3.152   0.468   4.546
 5869SOL    HW129235   3.167   0.390   4.600
 5869SOL    HW229236   3.118   0.434   4.464
 5870SOL     OW29237   2.230   3.207  26.971
 5870SOL    HW129238   2.144   3.166  26.973
 5870SOL    HW229239   2.258   3.201  26.879
 5871SOL     OW29240   2.639   3.453   4.995
 5871SOL    HW129241   2.548   3.453   4.965
 5871SOL    HW229242   2.634   3.480   5.086
 5872SOL     OW29243   3.012   2.388  26.152
 5872SOL    HW129244   3.052   2.302  26.138
 5872SOL    HW229245   3.021   2.404  26.246
 5873SOL     OW29246   1.327   4.351   6.673
 5873SOL    HW129247   1.301   4.351   6.581
 5873SOL    HW229248   1.423   4.347   6.670
 5874SOL     OW29249   2.206   2.568   6.953
 5874SOL    HW129250   2.236   2.629   6.885
 5874SOL    HW229251   2.209   2.619   7.034
 5875SOL     OW29252   3.191   1.880   0.743
 5875SOL    HW129253   3.235   1.964   0.734
 5875SOL    HW229254   3.232   1.840   0.820
 5876SOL     OW29255   0.146   3.307   4.225
 5876SOL    HW129256   0.098   3.375   4.272
 5876SOL    HW229257   0.080   3.240   4.205
 5877SOL     OW29258   1.753   1.500   3.166
 5877SOL    HW129259   1.747   1.581   3.217
 5877SOL    HW229260   1.725   1.431   3.227
 5878SOL     OW29261   2.810   3.146  21.752
 5878SOL    HW129262   2.850   3.222  21.794
 5878SOL    HW229263   2.744   3.117  21.814
 5879SOL     OW29264   1.399   4.725  25.690
 5879SOL    HW129265   1.358   0.026  25.663
 5879SOL    HW229266   1.337   4.657  25.664
 5880SOL     OW29267   3.451   4.627   1.456
 5880SOL    HW129268   3.414   4.570   1.523
 5880SOL    HW229269   3.528   4.667   1.498
 5881SOL     OW29270   2.834   1.985  10.249
 5881SOL    HW129271   2.839   2.081  10.255
 5881SOL    HW229272   2.784   1.959  10.327
 5882SOL     OW29273   0.971   3.762   9.003
 5882SOL    HW129274   0.988   3.729   8.914
 5882SOL    HW229275   0.929   3.688   9.048
 5883SOL     OW29276   0.603   3.612  21.918
 5883SOL    HW129277   0.544   3.605  21.844
 5883SOL    HW229278   0.621   3.522  21.943
 5884SOL     OW29279   1.728   4.204  22.310
 5884SOL    HW129280   1.745   4.178  22.401
 5884SOL    HW229281   1.744   4.125  22.259
 5885SOL     OW29282   4.620   2.580  24.516
 5885SOL    HW129283   4.706   2.582  24.559
 5885SOL    HW229284   4.575   2.506  24.557
 5886SOL     OW29285   3.607   2.337  25.227
 5886SOL    HW129286   3.694   2.335  25.188
 5886SOL    HW229287   3.557   2.271  25.178
 5887SOL     OW29288   1.364   2.810  24.128
 5887SOL    HW129289   1.395   2.885  24.077
 5887SOL    HW229290   1.344   2.846  24.214
 5888SOL     OW29291   2.716   0.794  24.968
 5888SOL    HW129292   2.728   0.789  24.873
 5888SOL    HW229293   2.766   0.721  25.003
 5889SOL     OW29294   4.226   3.450   2.088
 5889SOL    HW129295   4.282   3.409   2.022
 5889SOL    HW229296   4.227   3.388   2.161
 5890SOL     OW29297   3.531   0.452  21.463
 5890SOL    HW129298   3.614   0.498  21.473
 5890SOL    HW229299   3.546   0.365  21.500
 5891SOL     OW29300   0.193   4.509  19.504
 5891SOL    HW129301   0.285   4.497  19.523
 5891SOL    HW229302   0.147   4.482  19.583
 5892SOL     OW29303   1.645   1.545   1.006
 5892SOL    HW129304   1.735   1.520   1.027
 5892SOL    HW229305   1.598   1.539   1.089
 5893SOL     OW29306   2.880   2.028   9.974
 5893SOL    HW129307   2.898   2.118  10.001
 5893SOL    HW229308   2.871   2.033   9.879
 5894SOL     OW29309   1.772   2.206   8.074
 5894SOL    HW129310   1.750   2.292   8.109
 5894SOL    HW229311   1.701   2.149   8.104
 5895SOL     OW29312   1.736   4.052   9.482
 5895SOL    HW129313   1.677   3.978   9.499
 5895SOL    HW229314   1.778   4.069   9.566
 5896SOL     OW29315   1.255   2.391  25.968
 5896SOL    HW129316   1.185   2.437  25.921
 5896SOL    HW229317   1.228   2.300  25.968
 5897SOL     OW29318   2.329   2.609   3.747
 5897SOL    HW129319   2.356   2.656   3.826
 5897SOL    HW229320   2.247   2.565   3.773
 5898SOL     OW29321   4.764   1.147  18.511
 5898SOL    HW129322   0.040   1.184  18.444
 5898SOL    HW229323   0.042   1.099  18.568
 5899SOL     OW29324   2.543   2.819   1.595
 5899SOL    HW129325   2.547   2.728   1.564
 5899SOL    HW229326   2.633   2.842   1.614
 5900SOL     OW29327   0.245   4.600  20.909
 5900SOL    HW129328   0.202   4.517  20.932
 5900SOL    HW229329   0.286   4.629  20.990
 5901SOL     OW29330   2.417   2.203  24.402
 5901SOL    HW129331   2.386   2.117  24.431
 5901SOL    HW229332   2.466   2.238  24.477
 5902SOL     OW29333   0.405   2.050   2.473
 5902SOL    HW129334   0.378   2.134   2.436
 5902SOL    HW229335   0.324   2.013   2.509
 5903SOL     OW29336   0.173   2.368   0.940
 5903SOL    HW129337   0.101   2.430   0.924
 5903SOL    HW229338   0.169   2.350   1.034
 5904SOL     OW29339   0.253   0.891  26.380
 5904SOL    HW129340   0.219   0.942  26.453
 5904SOL    HW229341   0.329   0.940  26.349
 5905SOL     OW29342   4.143   2.799   7.694
 5905SOL    HW129343   4.097   2.831   7.617
 5905SOL    HW229344   4.166   2.878   7.744
 5906SOL     OW29345   3.282   3.482   9.096
 5906SOL    HW129346   3.343   3.488   9.169
 5906SOL    HW229347   3.302   3.559   9.042
 5907SOL     OW29348   2.630   0.834   6.854
 5907SOL    HW129349   2.564   0.827   6.923
 5907SOL    HW229350   2.700   0.775   6.883
 5908SOL     OW29351   1.705   3.904   7.082
 5908SOL    HW129352   1.637   3.851   7.040
 5908SOL    HW229353   1.727   3.856   7.162
 5909SOL     OW29354   0.504   4.299   1.771
 5909SOL    HW129355   0.572   4.236   1.747
 5909SOL    HW229356   0.551   4.380   1.789
 5910SOL     OW29357   1.409   1.592   9.319
 5910SOL    HW129358   1.475   1.577   9.387
 5910SOL    HW229359   1.333   1.625   9.366
 5911SOL     OW29360   0.989   2.867  22.701
 5911SOL    HW129361   0.993   2.962  22.690
 5911SOL    HW229362   0.897   2.845  22.687
 5912SOL     OW29363   2.437   4.518  19.835
 5912SOL    HW129364   2.519   4.522  19.785
 5912SOL    HW229365   2.444   4.438  19.887
 5913SOL     OW29366   2.204   2.986  20.791
 5913SOL    HW129367   2.292   2.953  20.808
 5913SOL    HW229368   2.162   2.988  20.878
 5914SOL     OW29369   4.443   0.709   2.986
 5914SOL    HW129370   4.359   0.729   2.944
 5914SOL    HW229371   4.449   0.770   3.059
 5915SOL     OW29372   4.256   2.247  21.591
 5915SOL    HW129373   4.316   2.182  21.552
 5915SOL    HW229374   4.281   2.330  21.549
 5916SOL     OW29375   2.946   1.745   9.922
 5916SOL    HW129376   2.886   1.723   9.851
 5916SOL    HW229377   3.020   1.686   9.911
 5917SOL     OW29378   0.417   3.441  23.455
 5917SOL    HW129379   0.329   3.405  23.465
 5917SOL    HW229380   0.423   3.467  23.363
 5918SOL     OW29381   3.596   4.557  20.422
 5918SOL    HW129382   3.675   4.548  20.370
 5918SOL    HW229383   3.621   4.612  20.496
 5919SOL     OW29384   0.307   2.127  26.807
 5919SOL    HW129385   0.262   2.118  26.722
 5919SOL    HW229386   0.362   2.048  26.813
 5920SOL     OW29387   3.089   1.892   1.164
 5920SOL    HW129388   3.049   1.946   1.232
 5920SOL    HW229389   3.018   1.838   1.132
 5921SOL     OW29390   2.088   0.862   4.740
 5921SOL    HW129391   2.175   0.862   4.700
 5921SOL    HW229392   2.045   0.784   4.704
 5922SOL     OW29393   1.521   1.488  23.823
 5922SOL    HW129394   1.436   1.504  23.783
 5922SOL    HW229395   1.504   1.482  23.917
 5923SOL     OW29396   3.609   4.029   6.586
 5923SOL    HW129397   3.583   4.004   6.498
 5923SOL    HW229398   3.697   3.991   6.596
 5924SOL     OW29399   4.048   2.546   8.588
 5924SOL    HW129400   3.978   2.497   8.544
 5924SOL    HW229401   4.054   2.506   8.674
 5925SOL     OW29402   0.398   1.660  25.266
 5925SOL    HW129403   0.382   1.703  25.350
 5925SOL    HW229404   0.401   1.731  25.203
 5926SOL     OW29405   2.068   2.258   9.006
 5926SOL    HW129406   2.065   2.229   8.915
 5926SOL    HW229407   2.085   2.178   9.056
 5927SOL     OW29408   2.368   1.399   0.978
 5927SOL    HW129409   2.319   1.414   0.897
 5927SOL    HW229410   2.458   1.383   0.950
 5928SOL     OW29411   4.464   4.492  19.706
 5928SOL    HW129412   4.510   4.462  19.627
 5928SOL    HW229413   4.406   4.561  19.675
 5929SOL     OW29414   0.791   2.327   5.698
 5929SOL    HW129415   0.816   2.298   5.786
 5929SOL    HW229416   0.873   2.334   5.650
 5930SOL     OW29417   2.758   3.469  25.298
 5930SOL    HW129418   2.701   3.451  25.223
 5930SOL    HW229419   2.705   3.525  25.355
 5931SOL     OW29420   0.250   1.774  26.553
 5931SOL    HW129421   0.171   1.748  26.601
 5931SOL    HW229422   0.319   1.718  26.588
 5932SOL     OW29423   0.518   2.797   6.153
 5932SOL    HW129424   0.528   2.891   6.162
 5932SOL    HW229425   0.565   2.775   6.072
 5933SOL     OW29426   4.633   0.427   9.650
 5933SOL    HW129427   4.583   0.348   9.631
 5933SOL    HW229428   4.724   0.398   9.652
 5934SOL     OW29429   0.751   1.033   9.523
 5934SOL    HW129430   0.720   1.025   9.613
 5934SOL    HW229431   0.673   1.055   9.472
 5935SOL     OW29432   4.670   4.126  26.317
 5935SOL    HW129433   4.718   4.105  26.397
 5935SOL    HW229434   4.641   4.216  26.330
 5936SOL     OW29435   4.211   1.763   7.333
 5936SOL    HW129436   4.204   1.821   7.408
 5936SOL    HW229437   4.304   1.758   7.314
 5937SOL     OW29438   1.296   3.651  25.117
 5937SOL    HW129439   1.272   3.582  25.055
 5937SOL    HW229440   1.233   3.721  25.100
 5938SOL     OW29441   1.376   3.290  25.806
 5938SOL    HW129442   1.433   3.315  25.733
 5938SOL    HW229443   1.287   3.298  25.771
 5939SOL     OW29444   2.605   1.045   8.406
 5939SOL    HW129445   2.563   1.041   8.492
 5939SOL    HW229446   2.686   0.996   8.416
 5940SOL     OW29447   2.222   4.432  21.295
 5940SOL    HW129448   2.133   4.451  21.325
 5940SOL    HW229449   2.215   4.433  21.199
 5941SOL     OW29450   3.464   2.514  27.947
 5941SOL    HW129451   3.543   2.477  27.908
 5941SOL    HW229452   3.461   2.604  27.914
 5942SOL     OW29453   4.452   0.302   2.665
 5942SOL    HW129454   4.449   0.314   2.760
 5942SOL    HW229455   4.477   0.387   2.631
 5943SOL     OW29456   4.118   1.681  19.406
 5943SOL    HW129457   4.204   1.694  19.447
 5943SOL    HW229458   4.115   1.587  19.385
 5944SOL     OW29459   1.783   2.644   1.054
 5944SOL    HW129460   1.757   2.569   1.107
 5944SOL    HW229461   1.817   2.707   1.117
 5945SOL     OW29462   4.567   2.912   0.647
 5945SOL    HW129463   4.503   2.856   0.690
 5945SOL    HW229464   4.652   2.882   0.679
 5946SOL     OW29465   0.214   1.144   8.100
 5946SOL    HW129466   0.287   1.204   8.088
 5946SOL    HW229467   0.188   1.120   8.011
 5947SOL     OW29468   3.986   2.127  23.009
 5947SOL    HW129469   4.020   2.080  23.086
 5947SOL    HW229470   4.016   2.217  23.020
 5948SOL     OW29471   1.662   4.231   3.053
 5948SOL    HW129472   1.717   4.277   3.116
 5948SOL    HW229473   1.673   4.138   3.074
 5949SOL     OW29474   4.199   2.875  23.775
 5949SOL    HW129475   4.203   2.860  23.870
 5949SOL    HW229476   4.106   2.879  23.755
 5950SOL     OW29477   1.182   1.265   5.157
 5950SOL    HW129478   1.261   1.211   5.164
 5950SOL    HW229479   1.150   1.272   5.247
 5951SOL     OW29480   1.831   4.192  24.859
 5951SOL    HW129481   1.923   4.219  24.867
 5951SOL    HW229482   1.829   4.139  24.779
 5952SOL     OW29483   2.969   0.258  22.618
 5952SOL    HW129484   2.882   0.220  22.606
 5952SOL    HW229485   3.003   0.215  22.696
 5953SOL     OW29486   0.951   3.092   0.880
 5953SOL    HW129487   1.045   3.090   0.862
 5953SOL    HW229488   0.913   3.033   0.815
 5954SOL     OW29489   0.918   4.303   7.243
 5954SOL    HW129490   0.953   4.337   7.325
 5954SOL    HW229491   0.990   4.314   7.180
 5955SOL     OW29492   3.540   4.331   8.625
 5955SOL    HW129493   3.584   4.416   8.621
 5955SOL    HW229494   3.572   4.290   8.705
 5956SOL     OW29495   0.495   1.786  26.146
 5956SOL    HW129496   0.535   1.864  26.108
 5956SOL    HW229497   0.499   1.800  26.241
 5957SOL     OW29498   2.681   4.329  19.862
 5957SOL    HW129499   2.691   4.248  19.812
 5957SOL    HW229500   2.614   4.309  19.927
 5958SOL     OW29501   0.080   0.824  16.824
 5958SOL    HW129502   0.090   0.767  16.748
 5958SOL    HW229503   0.057   0.909  16.787
 5959SOL     OW29504   2.965   2.380  23.189
 5959SOL    HW129505   2.884   2.431  23.198
 5959SOL    HW229506   2.936   2.294  23.160
 5960SOL     OW29507   2.621   2.903  26.990
 5960SOL    HW129508   2.624   2.807  26.999
 5960SOL    HW229509   2.605   2.935  27.078
 5961SOL     OW29510   3.630   1.273  17.286
 5961SOL    HW129511   3.687   1.286  17.210
 5961SOL    HW229512   3.556   1.224  17.252
 5962SOL     OW29513   2.458   0.040  26.377
 5962SOL    HW129514   2.425   0.130  26.379
 5962SOL    HW229515   2.380   4.768  26.359
 5963SOL     OW29516   4.034   3.523  24.017
 5963SOL    HW129517   3.988   3.575  24.083
 5963SOL    HW229518   4.006   3.560  23.933
 5964SOL     OW29519   1.506   2.706  25.723
 5964SOL    HW129520   1.547   2.700  25.637
 5964SOL    HW229521   1.578   2.728  25.783
 5965SOL     OW29522   2.871   0.418   1.490
 5965SOL    HW129523   2.889   0.462   1.573
 5965SOL    HW229524   2.783   0.383   1.501
 5966SOL     OW29525   4.325   3.853   2.213
 5966SOL    HW129526   4.386   3.913   2.170
 5966SOL    HW229527   4.346   3.859   2.306
 5967SOL     OW29528   4.081   4.229  24.498
 5967SOL    HW129529   4.150   4.162  24.501
 5967SOL    HW229530   4.005   4.183  24.461
 5968SOL     OW29531   1.166   1.748  23.948
 5968SOL    HW129532   1.112   1.671  23.964
 5968SOL    HW229533   1.198   1.774  24.034
 5969SOL     OW29534   2.126   3.638  23.598
 5969SOL    HW129535   2.197   3.679  23.549
 5969SOL    HW229536   2.159   3.632  23.688
 5970SOL     OW29537   2.492   2.170  27.205
 5970SOL    HW129538   2.516   2.190  27.115
 5970SOL    HW229539   2.396   2.171  27.205
 5971SOL     OW29540   1.922   3.545   6.499
 5971SOL    HW129541   2.004   3.522   6.544
 5971SOL    HW229542   1.886   3.617   6.550
 5972SOL     OW29543   3.967   1.535  23.363
 5972SOL    HW129544   3.970   1.563  23.272
 5972SOL    HW229545   3.961   1.439  23.358
 5973SOL     OW29546   1.794   4.063  23.348
 5973SOL    HW129547   1.774   4.068  23.254
 5973SOL    HW229548   1.797   3.969  23.367
 5974SOL     OW29549   4.233   0.748  28.089
 5974SOL    HW129550   4.312   0.713  28.130
 5974SOL    HW229551   4.251   0.841  28.079
 5975SOL     OW29552   3.560   2.210   0.077
 5975SOL    HW129553   3.577   2.226   0.170
 5975SOL    HW229554   3.603   2.127   0.058
 5976SOL     OW29555   4.152   2.740  21.072
 5976SOL    HW129556   4.241   2.713  21.053
 5976SOL    HW229557   4.132   2.699  21.157
 5977SOL     OW29558   2.389   2.769   3.985
 5977SOL    HW129559   2.328   2.843   3.989
 5977SOL    HW229560   2.425   2.763   4.074
 5978SOL     OW29561   1.905   1.392  15.871
 5978SOL    HW129562   1.895   1.297  15.871
 5978SOL    HW229563   1.998   1.407  15.855
 5979SOL     OW29564   0.160   2.117  26.569
 5979SOL    HW129565   0.070   2.128  26.599
 5979SOL    HW229566   0.156   2.046  26.505
 5980SOL     OW29567   0.842   0.533   1.720
 5980SOL    HW129568   0.880   0.536   1.808
 5980SOL    HW229569   0.900   0.589   1.667
 5981SOL     OW29570   2.544   0.365   4.791
 5981SOL    HW129571   2.636   0.380   4.815
 5981SOL    HW229572   2.548   0.319   4.707
 5982SOL     OW29573   4.081   3.127   4.957
 5982SOL    HW129574   4.088   3.150   4.865
 5982SOL    HW229575   4.071   3.211   5.002
 5983SOL     OW29576   4.710   1.271  24.834
 5983SOL    HW129577   4.771   1.329  24.788
 5983SOL    HW229578   4.683   1.207  24.769
 5984SOL     OW29579   3.480   1.411   9.024
 5984SOL    HW129580   3.500   1.432   9.116
 5984SOL    HW229581   3.565   1.407   8.981
 5985SOL     OW29582   3.313   2.318   2.289
 5985SOL    HW129583   3.284   2.316   2.197
 5985SOL    HW229584   3.251   2.376   2.332
 5986SOL     OW29585   3.078   2.465  17.991
 5986SOL    HW129586   3.136   2.410  18.044
 5986SOL    HW229587   3.046   2.532  18.051
 5987SOL     OW29588   3.108   0.444   3.251
 5987SOL    HW129589   3.107   0.358   3.293
 5987SOL    HW229590   3.051   0.498   3.306
 5988SOL     OW29591   4.284   1.537  18.275
 5988SOL    HW129592   4.238   1.518  18.193
 5988SOL    HW229593   4.366   1.489  18.268
 5989SOL     OW29594   4.454   2.942   7.649
 5989SOL    HW129595   4.436   2.984   7.733
 5989SOL    HW229596   4.545   2.912   7.656
 5990SOL     OW29597   3.586   2.822  27.377
 5990SOL    HW129598   3.636   2.902  27.358
 5990SOL    HW229599   3.625   2.788  27.457
 5991SOL     OW29600   2.894   1.640  25.485
 5991SOL    HW129601   2.808   1.680  25.493
 5991SOL    HW229602   2.943   1.698  25.426
 5992SOL     OW29603   2.841   0.810   8.977
 5992SOL    HW129604   2.794   0.862   8.912
 5992SOL    HW229605   2.809   0.841   9.061
 5993SOL     OW29606   3.178   2.278  20.475
 5993SOL    HW129607   3.263   2.300  20.514
 5993SOL    HW229608   3.126   2.247  20.549
 5994SOL     OW29609   4.403   3.437   7.780
 5994SOL    HW129610   4.403   3.518   7.728
 5994SOL    HW229611   4.356   3.461   7.860
 5995SOL     OW29612   0.261   2.400   6.201
 5995SOL    HW129613   0.215   2.393   6.285
 5995SOL    HW229614   0.296   2.312   6.186
 5996SOL     OW29615   2.445   4.679   9.494
 5996SOL    HW129616   2.524   4.725   9.521
 5996SOL    HW229617   2.375   4.719   9.545
 5997SOL     OW29618   0.634   3.100  17.645
 5997SOL    HW129619   0.588   3.018  17.625
 5997SOL    HW229620   0.707   3.101  17.583
 5998SOL     OW29621   2.207   4.721   0.245
 5998SOL    HW129622   2.122   4.763   0.258
 5998SOL    HW229623   2.188   4.645   0.191
 5999SOL     OW29624   1.607   3.528   6.816
 5999SOL    HW129625   1.672   3.475   6.769
 5999SOL    HW229626   1.536   3.467   6.834
 6000SOL     OW29627   3.225   0.754   8.260
 6000SOL    HW129628   3.208   0.698   8.183
 6000SOL    HW229629   3.207   0.697   8.335
 6001SOL     OW29630   0.136   3.132   0.943
 6001SOL    HW129631   0.176   3.066   0.886
 6001SOL    HW229632   0.123   3.087   1.026
 6002SOL     OW29633   3.247   0.497  26.974
 6002SOL    HW129634   3.203   0.432  27.028
 6002SOL    HW229635   3.187   0.571  26.973
 6003SOL     OW29636   4.133   4.504  20.213
 6003SOL    HW129637   4.100   4.594  20.209
 6003SOL    HW229638   4.175   4.491  20.128
 6004SOL     OW29639   1.200   2.130   1.477
 6004SOL    HW129640   1.132   2.077   1.435
 6004SOL    HW229641   1.271   2.132   1.412
 6005SOL     OW29642   1.030   0.047  24.842
 6005SOL    HW129643   0.951   0.088  24.808
 6005SOL    HW229644   1.101   0.083  24.788
 6006SOL     OW29645   1.517   2.301  10.269
 6006SOL    HW129646   1.447   2.299  10.334
 6006SOL    HW229647   1.597   2.305  10.322
 6007SOL     OW29648   3.101   1.125  26.648
 6007SOL    HW129649   3.035   1.058  26.664
 6007SOL    HW229650   3.053   1.207  26.651
 6008SOL     OW29651   1.782   0.890  22.856
 6008SOL    HW129652   1.707   0.830  22.860
 6008SOL    HW229653   1.756   0.965  22.910
 6009SOL     OW29654   0.331   1.888   9.840
 6009SOL    HW129655   0.242   1.902   9.809
 6009SOL    HW229656   0.338   1.943   9.918
 6010SOL     OW29657   3.283   3.681   9.728
 6010SOL    HW129658   3.368   3.660   9.765
 6010SOL    HW229659   3.283   3.640   9.642
 6011SOL     OW29660   1.269   1.370   9.048
 6011SOL    HW129661   1.248   1.387   8.956
 6011SOL    HW229662   1.184   1.354   9.089
 6012SOL     OW29663   2.958   0.854   6.638
 6012SOL    HW129664   3.040   0.903   6.649
 6012SOL    HW229665   2.892   0.921   6.621
 6013SOL     OW29666   4.047   3.726   5.088
 6013SOL    HW129667   4.100   3.753   5.013
 6013SOL    HW229668   4.072   3.787   5.158
 6014SOL     OW29669   3.110   4.048   2.523
 6014SOL    HW129670   3.049   4.002   2.581
 6014SOL    HW229671   3.155   3.978   2.476
 6015SOL     OW29672   2.998   4.583  16.734
 6015SOL    HW129673   2.967   4.625  16.815
 6015SOL    HW229674   3.014   4.492  16.759
 6016SOL     OW29675   4.457   4.642   9.533
 6016SOL    HW129676   4.400   4.632   9.610
 6016SOL    HW229677   4.532   4.692   9.565
 6017SOL     OW29678   0.073   2.086   3.970
 6017SOL    HW129679   0.119   2.154   4.019
 6017SOL    HW229680   0.067   2.120   3.881
 6018SOL     OW29681   2.220   1.385   3.002
 6018SOL    HW129682   2.132   1.387   3.040
 6018SOL    HW229683   2.212   1.435   2.920
 6019SOL     OW29684   0.974   4.011   0.253
 6019SOL    HW129685   1.001   4.060   0.330
 6019SOL    HW229686   1.055   3.992   0.206
 6020SOL     OW29687   1.307   0.569   3.596
 6020SOL    HW129688   1.372   0.503   3.619
 6020SOL    HW229689   1.296   0.621   3.675
 6021SOL     OW29690   0.634   0.044   4.173
 6021SOL    HW129691   0.661   4.753   4.230
 6021SOL    HW229692   0.654   0.013   4.085
 6022SOL     OW29693   2.909   3.383  21.091
 6022SOL    HW129694   2.887   3.470  21.124
 6022SOL    HW229695   2.897   3.391  20.996
 6023SOL     OW29696   0.832   4.595  22.577
 6023SOL    HW129697   0.889   4.521  22.556
 6023SOL    HW229698   0.747   4.554  22.596
 6024SOL     OW29699   2.989   3.968   8.346
 6024SOL    HW129700   2.929   4.017   8.291
 6024SOL    HW229701   2.985   3.878   8.312
 6025SOL     OW29702   0.513   3.723  24.099
 6025SOL    HW129703   0.526   3.741  24.006
 6025SOL    HW229704   0.420   3.702  24.107
 6026SOL     OW29705   1.089   3.418   9.140
 6026SOL    HW129706   1.165   3.426   9.083
 6026SOL    HW229707   1.117   3.357   9.209
 6027SOL     OW29708   1.302   0.205  25.706
 6027SOL    HW129709   1.240   0.242  25.768
 6027SOL    HW229710   1.372   0.271  25.700
 6028SOL     OW29711   2.514   4.683  22.611
 6028SOL    HW129712   2.591   4.638  22.647
 6028SOL    HW229713   2.516   4.769  22.653
 6029SOL     OW29714   3.438   0.212  28.229
 6029SOL    HW129715   3.507   0.152  28.200
 6029SOL    HW229716   3.422   0.189  28.320
 6030SOL     OW29717   2.147   2.370  27.682
 6030SOL    HW129718   2.218   2.434  27.676
 6030SOL    HW229719   2.074   2.419  27.720
 6031SOL     OW29720   1.690   2.907   3.634
 6031SOL    HW129721   1.652   2.901   3.546
 6031SOL    HW229722   1.651   2.834   3.682
 6032SOL     OW29723   1.344   1.218   2.762
 6032SOL    HW129724   1.367   1.131   2.731
 6032SOL    HW229725   1.417   1.244   2.819
 6033SOL     OW29726   1.051   0.444   1.998
 6033SOL    HW129727   1.013   0.468   2.082
 6033SOL    HW229728   1.117   0.510   1.981
 6034SOL     OW29729   1.325   4.725   9.131
 6034SOL    HW129730   1.300   4.634   9.119
 6034SOL    HW229731   1.414   4.721   9.165
 6035SOL     OW29732   4.208   2.327  20.379
 6035SOL    HW129733   4.174   2.374  20.455
 6035SOL    HW229734   4.170   2.374  20.304
 6036SOL     OW29735   3.848   3.205   6.985
 6036SOL    HW129736   3.800   3.133   6.944
 6036SOL    HW229737   3.810   3.213   7.072
 6037SOL     OW29738   3.845   3.477  25.118
 6037SOL    HW129739   3.933   3.463  25.084
 6037SOL    HW229740   3.803   3.391  25.110
 6038SOL     OW29741   3.713   4.061   3.605
 6038SOL    HW129742   3.699   4.083   3.697
 6038SOL    HW229743   3.626   4.068   3.566
 6039SOL     OW29744   3.301   3.621  25.064
 6039SOL    HW129745   3.363   3.677  25.017
 6039SOL    HW229746   3.215   3.652  25.035
 6040SOL     OW29747   3.945   3.108   1.317
 6040SOL    HW129748   3.984   3.176   1.373
 6040SOL    HW229749   3.888   3.058   1.375
 6041SOL     OW29750   3.468   0.858   7.807
 6041SOL    HW129751   3.469   0.916   7.883
 6041SOL    HW229752   3.555   0.869   7.768
 6042SOL     OW29753   2.664   1.231  27.307
 6042SOL    HW129754   2.684   1.184  27.388
 6042SOL    HW229755   2.657   1.163  27.240
 6043SOL     OW29756   2.821   4.357  10.828
 6043SOL    HW129757   2.878   4.414  10.878
 6043SOL    HW229758   2.792   4.290  10.890
 6044SOL     OW29759   4.573   0.286   7.378
 6044SOL    HW129760   4.491   0.238   7.393
 6044SOL    HW229761   4.553   0.344   7.304
 6045SOL     OW29762   0.150   2.088  17.353
 6045SOL    HW129763   0.076   2.039  17.390
 6045SOL    HW229764   0.120   2.116  17.267
 6046SOL     OW29765   0.864   1.912  27.639
 6046SOL    HW129766   0.789   1.852  27.637
 6046SOL    HW229767   0.927   1.871  27.697
 6047SOL     OW29768   4.227   4.554   0.242
 6047SOL    HW129769   4.280   4.593   0.173
 6047SOL    HW229770   4.175   4.487   0.199
 6048SOL     OW29771   1.495   0.886  24.445
 6048SOL    HW129772   1.564   0.840  24.492
 6048SOL    HW229773   1.489   0.840  24.361
 6049SOL     OW29774   3.086   4.444   4.246
 6049SOL    HW129775   2.998   4.441   4.207
 6049SOL    HW229776   3.073   4.483   4.332
 6050SOL     OW29777   1.218   4.384  25.013
 6050SOL    HW129778   1.284   4.324  24.978
 6050SOL    HW229779   1.234   4.467  24.967
 6051SOL     OW29780   1.774   4.625  22.996
 6051SOL    HW129781   1.791   4.644  22.903
 6051SOL    HW229782   1.750   4.533  22.997
 6052SOL     OW29783   0.324   0.489  25.054
 6052SOL    HW129784   0.388   0.516  24.988
 6052SOL    HW229785   0.367   0.421  25.104
 6053SOL     OW29786   1.100   0.861   9.631
 6053SOL    HW129787   1.107   0.786   9.573
 6053SOL    HW229788   1.031   0.837   9.694
 6054SOL     OW29789   0.507   2.265  24.333
 6054SOL    HW129790   0.454   2.247  24.255
 6054SOL    HW229791   0.465   2.215  24.403
 6055SOL     OW29792   3.009   0.006  19.361
 6055SOL    HW129793   3.028   4.772  19.269
 6055SOL    HW229794   3.090   0.045  19.396
 6056SOL     OW29795   1.590   2.270   7.778
 6056SOL    HW129796   1.540   2.233   7.705
 6056SOL    HW229797   1.563   2.218   7.854
 6057SOL     OW29798   4.751   2.527   9.187
 6057SOL    HW129799   0.031   2.459   9.156
 6057SOL    HW229800   4.769   2.534   9.281
 6058SOL     OW29801   1.635   2.221  23.133
 6058SOL    HW129802   1.617   2.214  23.039
 6058SOL    HW229803   1.626   2.314  23.152
 6059SOL     OW29804   0.007   2.432  19.149
 6059SOL    HW129805   4.728   2.381  19.205
 6059SOL    HW229806   4.744   2.435  19.064
 6060SOL     OW29807   4.257   2.669   1.221
 6060SOL    HW129808   4.199   2.738   1.190
 6060SOL    HW229809   4.222   2.589   1.182
 6061SOL     OW29810   0.033   3.634   0.868
 6061SOL    HW129811   0.064   3.546   0.885
 6061SOL    HW229812   4.773   3.630   0.782
 6062SOL     OW29813   1.091   2.418  20.544
 6062SOL    HW129814   1.001   2.426  20.514
 6062SOL    HW229815   1.085   2.374  20.629
 6063SOL     OW29816   4.470   1.464   3.560
 6063SOL    HW129817   4.549   1.449   3.612
 6063SOL    HW229818   4.497   1.524   3.491
 6064SOL     OW29819   0.542   4.453   4.786
 6064SOL    HW129820   0.508   4.420   4.869
 6064SOL    HW229821   0.508   4.392   4.720
 6065SOL     OW29822   0.207   4.037  20.481
 6065SOL    HW129823   0.293   4.044  20.441
 6065SOL    HW229824   0.160   4.114  20.450
 6066SOL     OW29825   1.136   3.946   3.786
 6066SOL    HW129826   1.057   3.894   3.797
 6066SOL    HW229827   1.127   4.018   3.849
 6067SOL     OW29828   3.143   1.918  23.597
 6067SOL    HW129829   3.175   1.830  23.576
 6067SOL    HW229830   3.152   1.925  23.692
 6068SOL     OW29831   2.396   2.714   0.428
 6068SOL    HW129832   2.361   2.625   0.416
 6068SOL    HW229833   2.338   2.754   0.493
 6069SOL     OW29834   4.587   3.355   3.077
 6069SOL    HW129835   4.554   3.265   3.086
 6069SOL    HW229836   4.624   3.375   3.163
 6070SOL     OW29837   3.598   3.882   9.112
 6070SOL    HW129838   3.628   3.891   9.203
 6070SOL    HW229839   3.572   3.970   9.086
 6071SOL     OW29840   0.971   2.493  22.139
 6071SOL    HW129841   0.974   2.552  22.214
 6071SOL    HW229842   1.060   2.459  22.131
 6072SOL     OW29843   3.917   4.196   5.239
 6072SOL    HW129844   3.837   4.171   5.285
 6072SOL    HW229845   3.961   4.113   5.221
 6073SOL     OW29846   2.217   0.892   6.366
 6073SOL    HW129847   2.237   0.835   6.441
 6073SOL    HW229848   2.128   0.922   6.382
 6074SOL     OW29849   2.235   4.280  10.163
 6074SOL    HW129850   2.226   4.375  10.167
 6074SOL    HW229851   2.283   4.257  10.243
 6075SOL     OW29852   1.628   3.130   2.529
 6075SOL    HW129853   1.669   3.137   2.443
 6075SOL    HW229854   1.700   3.140   2.592
 6076SOL     OW29855   1.452   3.172   8.590
 6076SOL    HW129856   1.523   3.141   8.533
 6076SOL    HW229857   1.394   3.221   8.532
 6077SOL     OW29858   3.521   3.106  25.455
 6077SOL    HW129859   3.475   3.140  25.379
 6077SOL    HW229860   3.580   3.039  25.419
 6078SOL     OW29861   2.755   0.722  26.797
 6078SOL    HW129862   2.713   0.685  26.719
 6078SOL    HW229863   2.846   0.692  26.792
 6079SOL     OW29864   0.160   3.687  22.266
 6079SOL    HW129865   0.196   3.616  22.212
 6079SOL    HW229866   0.068   3.693  22.239
 6080SOL     OW29867   2.667   2.937   9.165
 6080SOL    HW129868   2.730   2.869   9.192
 6080SOL    HW229869   2.699   2.968   9.080
 6081SOL     OW29870   2.559   2.472   2.367
 6081SOL    HW129871   2.622   2.464   2.438
 6081SOL    HW229872   2.489   2.411   2.389
 6082SOL     OW29873   4.142   3.730  27.853
 6082SOL    HW129874   4.065   3.765  27.809
 6082SOL    HW229875   4.108   3.662  27.910
 6083SOL     OW29876   2.781   0.439  20.188
 6083SOL    HW129877   2.737   0.424  20.104
 6083SOL    HW229878   2.765   0.531  20.208
 6084SOL     OW29879   4.151   0.668  18.042
 6084SOL    HW129880   4.109   0.745  18.003
 6084SOL    HW229881   4.218   0.704  18.100
 6085SOL     OW29882   2.395   0.731  23.811
 6085SOL    HW129883   2.319   0.784  23.789
 6085SOL    HW229884   2.406   0.672  23.737
 6086SOL     OW29885   0.527   1.852  20.575
 6086SOL    HW129886   0.512   1.894  20.660
 6086SOL    HW229887   0.452   1.793  20.564
 6087SOL     OW29888   3.068   2.352   1.386
 6087SOL    HW129889   3.072   2.441   1.350
 6087SOL    HW229890   3.008   2.359   1.460
 6088SOL     OW29891   3.036   2.289  21.067
 6088SOL    HW129892   3.002   2.308  20.980
 6088SOL    HW229893   2.960   2.255  21.115
 6089SOL     OW29894   4.400   4.336   6.029
 6089SOL    HW129895   4.475   4.304   5.980
 6089SOL    HW229896   4.393   4.277   6.105
 6090SOL     OW29897   3.548   3.846  23.793
 6090SOL    HW129898   3.598   3.782  23.743
 6090SOL    HW229899   3.614   3.896  23.840
 6091SOL     OW29900   3.890   3.427  10.599
 6091SOL    HW129901   3.896   3.354  10.662
 6091SOL    HW229902   3.948   3.401  10.527
 6092SOL     OW29903   4.760   1.811  25.560
 6092SOL    HW129904   4.757   1.851  25.473
 6092SOL    HW229905   4.688   1.749  25.560
 6093SOL     OW29906   2.161   1.873  27.005
 6093SOL    HW129907   2.164   1.834  27.092
 6093SOL    HW229908   2.118   1.958  27.018
 6094SOL     OW29909   3.969   0.086  23.923
 6094SOL    HW129910   3.933   0.035  23.995
 6094SOL    HW229911   3.996   0.022  23.858
 6095SOL     OW29912   3.206   4.050   4.627
 6095SOL    HW129913   3.176   3.984   4.565
 6095SOL    HW229914   3.286   4.013   4.665
 6096SOL     OW29915   4.043   2.559  19.238
 6096SOL    HW129916   4.064   2.634  19.182
 6096SOL    HW229917   4.123   2.544  19.288
 6097SOL     OW29918   4.009   2.201   4.049
 6097SOL    HW129919   3.941   2.140   4.020
 6097SOL    HW229920   3.968   2.252   4.119
 6098SOL     OW29921   2.131   3.464   3.697
 6098SOL    HW129922   2.086   3.382   3.676
 6098SOL    HW229923   2.223   3.447   3.679
 6099SOL     OW29924   0.946   1.784  24.387
 6099SOL    HW129925   1.027   1.797  24.338
 6099SOL    HW229926   0.958   1.836  24.466
 6100SOL     OW29927   4.137   3.854  25.980
 6100SOL    HW129928   4.187   3.929  26.013
 6100SOL    HW229929   4.185   3.827  25.901
 6101SOL     OW29930   2.014   1.837  20.663
 6101SOL    HW129931   2.108   1.833  20.645
 6101SOL    HW229932   2.000   1.925  20.697
 6102SOL     OW29933   1.921   2.080  26.033
 6102SOL    HW129934   1.843   2.049  25.986
 6102SOL    HW229935   1.891   2.092  26.123
 6103SOL     OW29936   3.832   0.238   8.684
 6103SOL    HW129937   3.766   0.289   8.732
 6103SOL    HW229938   3.889   0.203   8.753
 6104SOL     OW29939   4.114   0.949  24.665
 6104SOL    HW129940   4.126   0.866  24.618
 6104SOL    HW229941   4.190   0.956  24.722
 6105SOL     OW29942   4.482   4.665  23.985
 6105SOL    HW129943   4.571   4.659  23.950
 6105SOL    HW229944   4.479   4.600  24.055
 6106SOL     OW29945   1.322   4.003   4.389
 6106SOL    HW129946   1.251   4.067   4.402
 6106SOL    HW229947   1.362   4.028   4.307
 6107SOL     OW29948   2.263   0.474  24.035
 6107SOL    HW129949   2.330   0.426  23.988
 6107SOL    HW229950   2.191   0.483  23.972
 6108SOL     OW29951   2.996   1.718  26.336
 6108SOL    HW129952   2.935   1.646  26.319
 6108SOL    HW229953   2.940   1.792  26.359
 6109SOL     OW29954   2.379   3.752   2.072
 6109SOL    HW129955   2.304   3.811   2.079
 6109SOL    HW229956   2.341   3.667   2.050
 6110SOL     OW29957   3.777   3.412  23.559
 6110SOL    HW129958   3.843   3.382  23.621
 6110SOL    HW229959   3.694   3.384  23.596
 6111SOL     OW29960   3.442   3.545   5.640
 6111SOL    HW129961   3.483   3.519   5.557
 6111SOL    HW229962   3.446   3.641   5.639
 6112SOL     OW29963   4.759   1.751  21.209
 6112SOL    HW129964   0.041   1.764  21.280
 6112SOL    HW229965   4.748   1.838  21.171
 6113SOL     OW29966   0.352   4.192   2.362
 6113SOL    HW129967   0.327   4.106   2.395
 6113SOL    HW229968   0.386   4.175   2.274
 6114SOL     OW29969   1.656   4.397  26.892
 6114SOL    HW129970   1.731   4.338  26.893
 6114SOL    HW229971   1.675   4.461  26.961
 6115SOL     OW29972   0.741   3.019  25.888
 6115SOL    HW129973   0.670   2.969  25.849
 6115SOL    HW229974   0.818   2.996  25.836
 6116SOL     OW29975   2.243   0.883   5.415
 6116SOL    HW129976   2.280   0.872   5.327
 6116SOL    HW229977   2.252   0.977   5.432
 6117SOL     OW29978   3.156   0.826   9.177
 6117SOL    HW129979   3.194   0.748   9.137
 6117SOL    HW229980   3.161   0.893   9.109
 6118SOL     OW29981   0.218   0.723   9.474
 6118SOL    HW129982   0.302   0.766   9.485
 6118SOL    HW229983   0.168   0.748   9.553
 6119SOL     OW29984   3.946   3.453   9.822
 6119SOL    HW129985   3.942   3.501   9.739
 6119SOL    HW229986   4.037   3.462   9.850
 6120SOL     OW29987   1.050   2.353  23.541
 6120SOL    HW129988   0.962   2.386  23.562
 6120SOL    HW229989   1.045   2.328  23.449
 6121SOL     OW29990   1.933   0.717   6.638
 6121SOL    HW129991   1.940   0.806   6.673
 6121SOL    HW229992   1.987   0.718   6.559
 6122SOL     OW29993   2.614   0.459   3.568
 6122SOL    HW129994   2.544   0.475   3.631
 6122SOL    HW229995   2.690   0.437   3.621
 6123SOL     OW29996   1.474   4.166  10.513
 6123SOL    HW129997   1.447   4.084  10.553
 6123SOL    HW229998   1.420   4.233  10.555
 6124SOL     OW29999   0.617   1.837   8.933
 6124SOL    HW130000   0.696   1.782   8.928
 6124SOL    HW230001   0.582   1.821   9.021
 6125SOL     OW30002   3.883   3.604   8.630
 6125SOL    HW130003   3.853   3.525   8.676
 6125SOL    HW230004   3.814   3.669   8.645
 6126SOL     OW30005   3.590   0.225  20.740
 6126SOL    HW130006   3.511   0.232  20.686
 6126SOL    HW230007   3.656   0.187  20.682
 6127SOL     OW30008   0.901   3.370  21.527
 6127SOL    HW130009   0.901   3.385  21.622
 6127SOL    HW230010   0.813   3.335  21.509
 6128SOL     OW30011   4.270   0.062  27.199
 6128SOL    HW130012   4.254   0.142  27.148
 6128SOL    HW230013   4.196   0.005  27.179
 6129SOL     OW30014   2.330   3.338  19.909
 6129SOL    HW130015   2.425   3.348  19.895
 6129SOL    HW230016   2.323   3.276  19.981
 6130SOL     OW30017   2.781   2.157  26.267
 6130SOL    HW130018   2.699   2.183  26.310
 6130SOL    HW230019   2.848   2.165  26.335
 6131SOL     OW30020   3.219   0.850  27.439
 6131SOL    HW130021   3.266   0.877  27.518
 6131SOL    HW230022   3.248   0.912  27.372
 6132SOL     OW30023   1.800   1.059   5.057
 6132SOL    HW130024   1.845   1.045   4.974
 6132SOL    HW230025   1.861   1.113   5.108
 6133SOL     OW30026   1.129   1.410  21.755
 6133SOL    HW130027   1.215   1.432  21.791
 6133SOL    HW230028   1.114   1.477  21.688
 6134SOL     OW30029   2.801   0.210  28.117
 6134SOL    HW130030   2.832   0.291  28.076
 6134SOL    HW230031   2.747   0.240  28.191
 6135SOL     OW30032   1.792   0.451  21.934
 6135SOL    HW130033   1.871   0.486  21.893
 6135SOL    HW230034   1.816   0.440  22.026
 6136SOL     OW30035   1.486   3.379   7.368
 6136SOL    HW130036   1.476   3.411   7.458
 6136SOL    HW230037   1.429   3.436   7.316
 6137SOL     OW30038   0.664   2.257  22.019
 6137SOL    HW130039   0.645   2.350  22.010
 6137SOL    HW230040   0.745   2.253  22.070
 6138SOL     OW30041   0.716   2.603   4.226
 6138SOL    HW130042   0.742   2.639   4.310
 6138SOL    HW230043   0.773   2.646   4.162
 6139SOL     OW30044   4.338   0.595   5.918
 6139SOL    HW130045   4.243   0.584   5.908
 6139SOL    HW230046   4.376   0.522   5.871
 6140SOL     OW30047   4.632   0.654  12.110
 6140SOL    HW130048   4.566   0.598  12.151
 6140SOL    HW230049   4.621   0.639  12.016
 6141SOL     OW30050   2.056   0.449  25.190
 6141SOL    HW130051   2.013   0.461  25.274
 6141SOL    HW230052   2.022   0.520  25.135
 6142SOL     OW30053   1.228   3.058   3.423
 6142SOL    HW130054   1.227   3.127   3.490
 6142SOL    HW230055   1.212   2.977   3.472
 6143SOL     OW30056   1.270   2.467   1.416
 6143SOL    HW130057   1.217   2.545   1.428
 6143SOL    HW230058   1.230   2.422   1.341
 6144SOL     OW30059   2.778   2.222   0.905
 6144SOL    HW130060   2.728   2.210   0.986
 6144SOL    HW230061   2.861   2.260   0.933
 6145SOL     OW30062   3.969   1.378   8.185
 6145SOL    HW130063   3.977   1.470   8.159
 6145SOL    HW230064   4.029   1.369   8.259
 6146SOL     OW30065   3.019   2.615   4.133
 6146SOL    HW130066   3.066   2.536   4.158
 6146SOL    HW230067   2.958   2.588   4.064
 6147SOL     OW30068   2.283   1.465   2.178
 6147SOL    HW130069   2.336   1.412   2.119
 6147SOL    HW230070   2.334   1.545   2.191
 6148SOL     OW30071   2.050   2.263   3.480
 6148SOL    HW130072   1.998   2.298   3.408
 6148SOL    HW230073   2.087   2.340   3.523
 6149SOL     OW30074   4.120   1.263  27.845
 6149SOL    HW130075   4.095   1.203  27.775
 6149SOL    HW230076   4.163   1.336  27.801
 6150SOL     OW30077   2.735   0.320   8.613
 6150SOL    HW130078   2.758   0.404   8.653
 6150SOL    HW230079   2.781   0.321   8.529
 6151SOL     OW30080   2.912   0.563  11.324
 6151SOL    HW130081   2.822   0.587  11.349
 6151SOL    HW230082   2.962   0.575  11.405
 6152SOL     OW30083   1.666   1.027  20.989
 6152SOL    HW130084   1.630   0.938  20.976
 6152SOL    HW230085   1.671   1.063  20.901
 6153SOL     OW30086   3.868   0.011   2.024
 6153SOL    HW130087   3.957   4.756   2.018
 6153SOL    HW230088   3.825   4.763   1.943
 6154SOL     OW30089   2.391   3.222   8.544
 6154SOL    HW130090   2.323   3.228   8.611
 6154SOL    HW230091   2.420   3.131   8.548
 6155SOL     OW30092   3.845   4.318   9.312
 6155SOL    HW130093   3.843   4.254   9.241
 6155SOL    HW230094   3.860   4.266   9.391
 6156SOL     OW30095   0.816   1.623  19.502
 6156SOL    HW130096   0.798   1.716  19.500
 6156SOL    HW230097   0.741   1.584  19.547
 6157SOL     OW30098   3.637   1.052   7.390
 6157SOL    HW130099   3.622   0.958   7.381
 6157SOL    HW230100   3.695   1.074   7.318
 6158SOL     OW30101   0.344   3.716   3.180
 6158SOL    HW130102   0.381   3.737   3.095
 6158SOL    HW230103   0.251   3.701   3.163
 6159SOL     OW30104   4.393   2.437   1.937
 6159SOL    HW130105   4.376   2.420   2.030
 6159SOL    HW230106   4.468   2.496   1.938
 6160SOL     OW30107   3.397   2.372   7.779
 6160SOL    HW130108   3.481   2.391   7.737
 6160SOL    HW230109   3.414   2.381   7.873
 6161SOL     OW30110   3.624   1.023  20.470
 6161SOL    HW130111   3.539   0.986  20.492
 6161SOL    HW230112   3.685   0.950  20.482
 6162SOL     OW30113   3.787   3.128  23.878
 6162SOL    HW130114   3.848   3.187  23.833
 6162SOL    HW230115   3.715   3.185  23.906
 6163SOL     OW30116   0.735   2.456   6.600
 6163SOL    HW130117   0.799   2.523   6.625
 6163SOL    HW230118   0.789   2.385   6.564
 6164SOL     OW30119   0.137   4.234   7.848
 6164SOL    HW130120   0.075   4.284   7.902
 6164SOL    HW230121   0.182   4.301   7.796
 6165SOL     OW30122   2.246   2.895  28.164
 6165SOL    HW130123   2.211   2.897  28.253
 6165SOL    HW230124   2.340   2.906  28.176
 6166SOL     OW30125   0.734   0.819   3.157
 6166SOL    HW130126   0.825   0.840   3.177
 6166SOL    HW230127   0.719   0.856   3.070
 6167SOL     OW30128   4.534   4.086   4.617
 6167SOL    HW130129   4.566   4.037   4.693
 6167SOL    HW230130   4.588   4.165   4.616
 6168SOL     OW30131   0.874   0.673  27.922
 6168SOL    HW130132   0.785   0.707  27.925
 6168SOL    HW230133   0.915   0.705  28.003
 6169SOL     OW30134   2.512   0.327   5.721
 6169SOL    HW130135   2.600   0.364   5.727
 6169SOL    HW230136   2.501   0.307   5.628
 6170SOL     OW30137   3.172   1.714   7.254
 6170SOL    HW130138   3.080   1.691   7.243
 6170SOL    HW230139   3.201   1.741   7.167
 6171SOL     OW30140   3.928   2.497  25.718
 6171SOL    HW130141   3.927   2.527  25.809
 6171SOL    HW230142   3.850   2.443  25.709
 6172SOL     OW30143   4.770   0.007  19.455
 6172SOL    HW130144   4.681   0.016  19.490
 6172SOL    HW230145   4.760   4.730  19.379
 6173SOL     OW30146   1.719   0.056   5.247
 6173SOL    HW130147   1.796   0.002   5.265
 6173SOL    HW230148   1.755   0.141   5.221
 6174SOL     OW30149   4.469   2.549  20.185
 6174SOL    HW130150   4.528   2.616  20.151
 6174SOL    HW230151   4.407   2.597  20.239
 6175SOL     OW30152   0.506   0.785   9.170
 6175SOL    HW130153   0.417   0.821   9.178
 6175SOL    HW230154   0.518   0.770   9.077
 6176SOL     OW30155   1.041   1.273   0.991
 6176SOL    HW130156   1.035   1.255   1.085
 6176SOL    HW230157   1.135   1.271   0.972
 6177SOL     OW30158   1.748   4.421   7.986
 6177SOL    HW130159   1.690   4.352   8.018
 6177SOL    HW230160   1.712   4.443   7.899
 6178SOL     OW30161   3.580   3.016   3.516
 6178SOL    HW130162   3.601   3.071   3.440
 6178SOL    HW230163   3.574   3.077   3.589
 6179SOL     OW30164   0.778   3.115   0.069
 6179SOL    HW130165   0.802   3.205   0.047
 6179SOL    HW230166   0.835   3.092   0.142
 6180SOL     OW30167   3.036   4.109   3.291
 6180SOL    HW130168   3.065   4.195   3.260
 6180SOL    HW230169   3.060   4.107   3.384
 6181SOL     OW30170   4.419   2.032  20.552
 6181SOL    HW130171   4.477   1.956  20.560
 6181SOL    HW230172   4.372   2.018  20.470
 6182SOL     OW30173   2.319   3.629   6.538
 6182SOL    HW130174   2.360   3.569   6.601
 6182SOL    HW230175   2.393   3.670   6.493
 6183SOL     OW30176   0.772   0.613   0.641
 6183SOL    HW130177   0.767   0.559   0.562
 6183SOL    HW230178   0.779   0.703   0.609
 6184SOL     OW30179   3.334   3.717  27.115
 6184SOL    HW130180   3.339   3.724  27.210
 6184SOL    HW230181   3.247   3.752  27.093
 6185SOL     OW30182   1.935   0.487  26.567
 6185SOL    HW130183   1.915   0.450  26.653
 6185SOL    HW230184   2.007   0.549  26.584
 6186SOL     OW30185   4.044   0.112  26.776
 6186SOL    HW130186   4.106   0.103  26.704
 6186SOL    HW230187   4.014   0.203  26.770
 6187SOL     OW30188   0.214   4.712  28.511
 6187SOL    HW130189   0.213   4.767  28.433
 6187SOL    HW230190   0.139   4.654  28.501
 6188SOL     OW30191   2.980   0.094   2.142
 6188SOL    HW130192   3.024   0.035   2.082
 6188SOL    HW230193   2.986   0.050   2.227
 6189SOL     OW30194   3.064   0.416  11.067
 6189SOL    HW130195   3.110   0.341  11.027
 6189SOL    HW230196   3.012   0.377  11.137
 6190SOL     OW30197   2.095   4.058  26.016
 6190SOL    HW130198   2.130   4.002  26.085
 6190SOL    HW230199   2.038   4.000  25.965
 6191SOL     OW30200   3.153   2.952   2.556
 6191SOL    HW130201   3.085   3.005   2.598
 6191SOL    HW230202   3.186   3.007   2.484
 6192SOL     OW30203   3.249   3.897  28.431
 6192SOL    HW130204   3.207   3.857  28.355
 6192SOL    HW230205   3.323   3.840  28.451
 6193SOL     OW30206   1.814   4.022   2.841
 6193SOL    HW130207   1.755   4.013   2.917
 6193SOL    HW230208   1.902   4.014   2.878
 6194SOL     OW30209   2.443   3.324  23.623
 6194SOL    HW130210   2.463   3.396  23.683
 6194SOL    HW230211   2.514   3.327  23.558
 6195SOL     OW30212   2.286   3.839  19.977
 6195SOL    HW130213   2.361   3.849  19.919
 6195SOL    HW230214   2.274   3.745  19.986
 6196SOL     OW30215   1.880   1.758   3.617
 6196SOL    HW130216   1.878   1.694   3.688
 6196SOL    HW230217   1.962   1.805   3.628
 6197SOL     OW30218   2.980   0.710  19.940
 6197SOL    HW130219   2.963   0.764  20.018
 6197SOL    HW230220   2.954   0.765  19.866
 6198SOL     OW30221   4.045   1.847  19.224
 6198SOL    HW130222   4.102   1.845  19.147
 6198SOL    HW230223   4.069   1.768  19.273
 6199SOL     OW30224   3.404   4.747   2.467
 6199SOL    HW130225   3.320   4.702   2.456
 6199SOL    HW230226   3.469   4.682   2.442
 6200SOL     OW30227   4.097   3.180  22.753
 6200SOL    HW130228   4.120   3.200  22.663
 6200SOL    HW230229   4.164   3.117  22.781
 6201SOL     OW30230   0.876   4.306  10.682
 6201SOL    HW130231   0.890   4.368  10.754
 6201SOL    HW230232   0.835   4.230  10.723
 6202SOL     OW30233   0.494   3.543  18.992
 6202SOL    HW130234   0.549   3.617  19.019
 6202SOL    HW230235   0.547   3.496  18.928
 6203SOL     OW30236   2.812   2.245   3.282
 6203SOL    HW130237   2.784   2.154   3.271
 6203SOL    HW230238   2.896   2.238   3.328
 6204SOL     OW30239   4.325   2.714  20.337
 6204SOL    HW130240   4.340   2.783  20.272
 6204SOL    HW230241   4.392   2.729  20.403
 6205SOL     OW30242   0.348   2.200   9.408
 6205SOL    HW130243   0.352   2.151   9.490
 6205SOL    HW230244   0.342   2.292   9.436
 6206SOL     OW30245   0.895   2.239  22.168
 6206SOL    HW130246   0.948   2.214  22.092
 6206SOL    HW230247   0.929   2.325  22.194
 6207SOL     OW30248   1.262   3.257   3.615
 6207SOL    HW130249   1.183   3.219   3.653
 6207SOL    HW230250   1.317   3.279   3.690
 6208SOL     OW30251   1.432   2.452   0.276
 6208SOL    HW130252   1.440   2.544   0.300
 6208SOL    HW230253   1.367   2.450   0.206
 6209SOL     OW30254   4.130   0.265   6.186
 6209SOL    HW130255   4.049   0.313   6.169
 6209SOL    HW230256   4.114   0.220   6.269
 6210SOL     OW30257   4.319   2.519  24.988
 6210SOL    HW130258   4.247   2.574  25.020
 6210SOL    HW230259   4.363   2.573  24.922
 6211SOL     OW30260   0.130   0.750   4.372
 6211SOL    HW130261   0.186   0.677   4.400
 6211SOL    HW230262   0.049   0.709   4.344
 6212SOL     OW30263   4.414   3.234   2.704
 6212SOL    HW130264   4.431   3.193   2.788
 6212SOL    HW230265   4.420   3.163   2.640
 6213SOL     OW30266   4.408   1.154  20.026
 6213SOL    HW130267   4.374   1.147  19.937
 6213SOL    HW230268   4.397   1.066  20.063
 6214SOL     OW30269   0.625   2.208  20.403
 6214SOL    HW130270   0.563   2.228  20.473
 6214SOL    HW230271   0.683   2.284  20.400
 6215SOL     OW30272   3.071   1.892  20.083
 6215SOL    HW130273   3.090   1.813  20.033
 6215SOL    HW230274   3.137   1.956  20.055
 6216SOL     OW30275   0.422   1.899  22.202
 6216SOL    HW130276   0.419   1.834  22.131
 6216SOL    HW230277   0.405   1.982  22.159
 6217SOL     OW30278   3.549   0.511   2.653
 6217SOL    HW130279   3.559   0.602   2.682
 6217SOL    HW230280   3.474   0.479   2.703
 6218SOL     OW30281   2.119   4.494  21.862
 6218SOL    HW130282   2.059   4.561  21.830
 6218SOL    HW230283   2.206   4.531  21.850
 6219SOL     OW30284   1.578   1.594  20.971
 6219SOL    HW130285   1.608   1.666  20.915
 6219SOL    HW230286   1.580   1.517  20.914
 6220SOL     OW30287   1.747   3.467   8.730
 6220SOL    HW130288   1.842   3.467   8.734
 6220SOL    HW230289   1.720   3.399   8.792
 6221SOL     OW30290   3.428   3.838  24.406
 6221SOL    HW130291   3.426   3.832  24.311
 6221SOL    HW230292   3.462   3.754  24.436
 6222SOL     OW30293   3.594   1.098   1.767
 6222SOL    HW130294   3.573   1.190   1.748
 6222SOL    HW230295   3.536   1.076   1.841
 6223SOL     OW30296   4.599   1.280   3.906
 6223SOL    HW130297   4.651   1.268   3.827
 6223SOL    HW230298   4.550   1.198   3.914
 6224SOL     OW30299   4.603   3.371  25.167
 6224SOL    HW130300   4.681   3.403  25.212
 6224SOL    HW230301   4.635   3.344  25.081
 6225SOL     OW30302   1.786   0.513  24.848
 6225SOL    HW130303   1.778   0.455  24.773
 6225SOL    HW230304   1.814   0.597  24.810
 6226SOL     OW30305   2.737   0.285  25.644
 6226SOL    HW130306   2.820   0.333  25.650
 6226SOL    HW230307   2.691   0.327  25.571
 6227SOL     OW30308   3.721   1.401   4.355
 6227SOL    HW130309   3.805   1.358   4.339
 6227SOL    HW230310   3.658   1.352   4.303
 6228SOL     OW30311   1.553   0.475  20.606
 6228SOL    HW130312   1.529   0.532  20.533
 6228SOL    HW230313   1.585   0.395  20.564
 6229SOL     OW30314   0.321   2.922  10.274
 6229SOL    HW130315   0.416   2.936  10.271
 6229SOL    HW230316   0.300   2.883  10.190
 6230SOL     OW30317   0.602   4.183  27.529
 6230SOL    HW130318   0.657   4.247  27.484
 6230SOL    HW230319   0.512   4.206  27.504
 6231SOL     OW30320   3.787   0.661   8.922
 6231SOL    HW130321   3.744   0.575   8.916
 6231SOL    HW230322   3.724   0.715   8.970
 6232SOL     OW30323   0.373   0.236  19.989
 6232SOL    HW130324   0.396   0.192  19.907
 6232SOL    HW230325   0.454   0.278  20.018
 6233SOL     OW30326   1.892   0.670   4.987
 6233SOL    HW130327   1.840   0.708   4.917
 6233SOL    HW230328   1.864   0.717   5.066
 6234SOL     OW30329   2.972   4.033  28.158
 6234SOL    HW130330   3.020   4.093  28.215
 6234SOL    HW230331   2.910   4.089  28.111
 6235SOL     OW30332   1.119   1.636   6.119
 6235SOL    HW130333   1.042   1.607   6.167
 6235SOL    HW230334   1.094   1.722   6.085
 6236SOL     OW30335   1.167   3.023   8.848
 6236SOL    HW130336   1.191   3.116   8.847
 6236SOL    HW230337   1.251   2.977   8.837
 6237SOL     OW30338   0.320   2.038  28.287
 6237SOL    HW130339   0.310   2.062  28.195
 6237SOL    HW230340   0.382   2.102  28.322
 6238SOL     OW30341   4.700   3.446  26.748
 6238SOL    HW130342   4.674   3.496  26.825
 6238SOL    HW230343   0.015   3.444  26.751
 6239SOL     OW30344   4.275   2.586  27.944
 6239SOL    HW130345   4.362   2.608  27.977
 6239SOL    HW230346   4.266   2.492  27.963
 6240SOL     OW30347   4.110   1.750  24.827
 6240SOL    HW130348   4.117   1.845  24.822
 6240SOL    HW230349   4.081   1.724  24.739
 6241SOL     OW30350   4.053   3.337   0.121
 6241SOL    HW130351   4.043   3.337   0.216
 6241SOL    HW230352   4.119   3.403   0.103
 6242SOL     OW30353   0.348   2.212   1.331
 6242SOL    HW130354   0.382   2.299   1.311
 6242SOL    HW230355   0.425   2.161   1.355
 6243SOL     OW30356   4.580   3.654   8.362
 6243SOL    HW130357   4.552   3.664   8.452
 6243SOL    HW230358   4.595   3.743   8.331
 6244SOL     OW30359   1.232   1.867  18.523
 6244SOL    HW130360   1.204   1.785  18.483
 6244SOL    HW230361   1.292   1.906  18.459
 6245SOL     OW30362   1.680   1.722   1.318
 6245SOL    HW130363   1.618   1.794   1.325
 6245SOL    HW230364   1.626   1.646   1.298
 6246SOL     OW30365   4.761   1.009   4.780
 6246SOL    HW130366   4.744   1.081   4.719
 6246SOL    HW230367   0.048   0.957   4.738
 6247SOL     OW30368   3.829   0.010   5.848
 6247SOL    HW130369   3.914   0.046   5.824
 6247SOL    HW230370   3.821   4.711   5.797
 6248SOL     OW30371   0.288   0.607  21.030
 6248SOL    HW130372   0.273   0.513  21.019
 6248SOL    HW230373   0.325   0.635  20.946
 6249SOL     OW30374   2.921   0.010  25.864
 6249SOL    HW130375   2.894   4.749  25.946
 6249SOL    HW230376   2.927   4.720  25.801
 6250SOL     OW30377   4.538   2.566  28.217
 6250SOL    HW130378   4.551   2.496  28.282
 6250SOL    HW230379   4.474   2.624  28.258
 6251SOL     OW30380   2.652   1.117  25.397
 6251SOL    HW130381   2.651   1.072  25.312
 6251SOL    HW230382   2.742   1.147  25.407
 6252SOL     OW30383   3.553   3.371  23.694
 6252SOL    HW130384   3.514   3.371  23.781
 6252SOL    HW230385   3.478   3.374  23.634
 6253SOL     OW30386   1.351   2.711  12.209
 6253SOL    HW130387   1.289   2.656  12.256
 6253SOL    HW230388   1.417   2.650  12.176
 6254SOL     OW30389   3.172   4.254  21.072
 6254SOL    HW130390   3.219   4.300  21.141
 6254SOL    HW230391   3.121   4.187  21.118
 6255SOL     OW30392   2.136   0.564  26.063
 6255SOL    HW130393   2.118   0.657  26.071
 6255SOL    HW230394   2.127   0.530  26.152
 6256SOL     OW30395   2.432   0.413   7.686
 6256SOL    HW130396   2.337   0.424   7.696
 6256SOL    HW230397   2.465   0.503   7.678
 6257SOL     OW30398   0.275   4.205  28.146
 6257SOL    HW130399   0.338   4.262  28.191
 6257SOL    HW230400   0.327   4.162  28.078
 6258SOL     OW30401   3.691   1.888  26.954
 6258SOL    HW130402   3.614   1.834  26.938
 6258SOL    HW230403   3.765   1.831  26.932
 6259SOL     OW30404   4.331   2.831  27.424
 6259SOL    HW130405   4.341   2.813  27.517
 6259SOL    HW230406   4.363   2.751  27.381
 6260SOL     OW30407   1.237   3.770   3.186
 6260SOL    HW130408   1.310   3.826   3.158
 6260SOL    HW230409   1.232   3.702   3.119
 6261SOL     OW30410   1.425   2.895  10.727
 6261SOL    HW130411   1.369   2.821  10.750
 6261SOL    HW230412   1.421   2.900  10.632
 6262SOL     OW30413   1.703   0.626  24.076
 6262SOL    HW130414   1.780   0.620  24.021
 6262SOL    HW230415   1.688   0.536  24.106
 6263SOL     OW30416   3.432   2.000  24.278
 6263SOL    HW130417   3.357   2.025  24.332
 6263SOL    HW230418   3.509   2.023  24.331
 6264SOL     OW30419   1.410   3.895  27.992
 6264SOL    HW130420   1.430   3.863  28.080
 6264SOL    HW230421   1.351   3.829  27.956
 6265SOL     OW30422   2.367   1.407  22.992
 6265SOL    HW130423   2.381   1.493  22.953
 6265SOL    HW230424   2.275   1.406  23.017
 6266SOL     OW30425   1.936   3.691  19.351
 6266SOL    HW130426   2.028   3.676  19.372
 6266SOL    HW230427   1.936   3.720  19.260
 6267SOL     OW30428   4.712   2.873  24.468
 6267SOL    HW130429   4.699   2.779  24.470
 6267SOL    HW230430   4.680   2.901  24.383
 6268SOL     OW30431   4.510   3.084  16.431
 6268SOL    HW130432   4.503   2.989  16.447
 6268SOL    HW230433   4.525   3.091  16.337
 6269SOL     OW30434   2.521   2.014   4.455
 6269SOL    HW130435   2.589   2.081   4.454
 6269SOL    HW230436   2.440   2.063   4.466
 6270SOL     OW30437   3.233   1.057  20.010
 6270SOL    HW130438   3.273   1.116  20.074
 6270SOL    HW230439   3.161   1.107  19.973
 6271SOL     OW30440   1.914   2.979  24.253
 6271SOL    HW130441   1.835   3.032  24.248
 6271SOL    HW230442   1.882   2.890  24.266
 6272SOL     OW30443   1.324   2.174  25.577
 6272SOL    HW130444   1.357   2.258  25.607
 6272SOL    HW230445   1.278   2.193  25.495
 6273SOL     OW30446   0.032   3.632   3.998
 6273SOL    HW130447   0.018   3.727   3.989
 6273SOL    HW230448   0.117   3.617   3.957
 6274SOL     OW30449   3.419   0.409  11.281
 6274SOL    HW130450   3.418   0.313  11.291
 6274SOL    HW230451   3.502   0.427  11.237
 6275SOL     OW30452   3.170   4.008   5.429
 6275SOL    HW130453   3.133   4.089   5.465
 6275SOL    HW230454   3.139   3.939   5.487
 6276SOL     OW30455   3.375   3.349   9.793
 6276SOL    HW130456   3.417   3.432   9.817
 6276SOL    HW230457   3.294   3.348   9.843
 6277SOL     OW30458   1.383   4.520  23.338
 6277SOL    HW130459   1.353   4.461  23.269
 6277SOL    HW230460   1.474   4.494  23.353
 6278SOL     OW30461   3.038   3.561   9.153
 6278SOL    HW130462   3.054   3.653   9.134
 6278SOL    HW230463   3.124   3.520   9.146
 6279SOL     OW30464   2.079   0.263  28.451
 6279SOL    HW130465   2.156   0.243  28.504
 6279SOL    HW230466   2.060   0.182  28.404
 6280SOL     OW30467   0.922   4.648  27.709
 6280SOL    HW130468   0.834   4.680  27.726
 6280SOL    HW230469   0.915   4.602  27.626
 6281SOL     OW30470   3.408   1.628   4.771
 6281SOL    HW130471   3.341   1.563   4.749
 6281SOL    HW230472   3.475   1.617   4.704
 6282SOL     OW30473   4.585   3.454  21.150
 6282SOL    HW130474   4.603   3.397  21.076
 6282SOL    HW230475   4.651   3.523  21.143
 6283SOL     OW30476   3.926   2.915   4.813
 6283SOL    HW130477   3.853   2.901   4.873
 6283SOL    HW230478   3.983   2.978   4.858
 6284SOL     OW30479   1.612   2.722  21.086
 6284SOL    HW130480   1.645   2.807  21.114
 6284SOL    HW230481   1.601   2.673  21.168
 6285SOL     OW30482   0.647   2.754   2.604
 6285SOL    HW130483   0.688   2.673   2.630
 6285SOL    HW230484   0.581   2.728   2.540
 6286SOL     OW30485   0.209   4.576  25.591
 6286SOL    HW130486   0.245   4.638  25.528
 6286SOL    HW230487   0.210   4.622  25.675
 6287SOL     OW30488   1.854   1.164   9.628
 6287SOL    HW130489   1.768   1.123   9.622
 6287SOL    HW230490   1.912   1.096   9.662
 6288SOL     OW30491   4.693   0.498  27.452
 6288SOL    HW130492   4.662   0.408  27.460
 6288SOL    HW230493   4.723   0.504  27.361
 6289SOL     OW30494   2.300   2.186   4.469
 6289SOL    HW130495   2.301   2.182   4.565
 6289SOL    HW230496   2.212   2.157   4.445
 6290SOL     OW30497   3.211   4.657   9.829
 6290SOL    HW130498   3.255   4.572   9.831
 6290SOL    HW230499   3.267   4.714   9.880
 6291SOL     OW30500   3.086   0.601  10.851
 6291SOL    HW130501   3.133   0.568  10.775
 6291SOL    HW230502   3.001   0.628  10.817
 6292SOL     OW30503   3.640   2.078   7.493
 6292SOL    HW130504   3.721   2.053   7.448
 6292SOL    HW230505   3.668   2.099   7.582
 6293SOL     OW30506   1.053   2.847  22.210
 6293SOL    HW130507   1.026   2.777  22.270
 6293SOL    HW230508   0.974   2.899  22.197
 6294SOL     OW30509   2.849   4.399   5.695
 6294SOL    HW130510   2.821   4.414   5.786
 6294SOL    HW230511   2.917   4.465   5.680
 6295SOL     OW30512   0.740   2.914  21.849
 6295SOL    HW130513   0.788   2.988  21.813
 6295SOL    HW230514   0.802   2.841  21.847
 6296SOL     OW30515   3.964   3.374   1.969
 6296SOL    HW130516   3.935   3.461   1.942
 6296SOL    HW230517   4.046   3.389   2.016
 6297SOL     OW30518   1.864   1.245  21.650
 6297SOL    HW130519   1.781   1.200  21.662
 6297SOL    HW230520   1.930   1.179  21.673
 6298SOL     OW30521   3.318   0.497  10.966
 6298SOL    HW130522   3.400   0.545  10.965
 6298SOL    HW230523   3.342   0.408  10.942
 6299SOL     OW30524   4.586   1.355  24.448
 6299SOL    HW130525   4.648   1.368  24.519
 6299SOL    HW230526   4.613   1.273  24.407
 6300SOL     OW30527   0.411   1.080  10.488
 6300SOL    HW130528   0.337   1.128  10.451
 6300SOL    HW230529   0.443   1.138  10.558
 6301SOL     OW30530   1.153   3.029  26.031
 6301SOL    HW130531   1.061   3.017  26.054
 6301SOL    HW230532   1.153   3.033  25.935
 6302SOL     OW30533   1.468   0.069  21.810
 6302SOL    HW130534   1.391   0.119  21.836
 6302SOL    HW230535   1.531   0.134  21.780
 6303SOL     OW30536   4.155   1.902  28.288
 6303SOL    HW130537   4.096   1.827  28.294
 6303SOL    HW230538   4.193   1.909  28.376
 6304SOL     OW30539   0.003   4.727  20.180
 6304SOL    HW130540   0.054   0.027  20.175
 6304SOL    HW230541   4.704   4.752  20.226
 6305SOL     OW30542   1.576   0.593   3.922
 6305SOL    HW130543   1.581   0.567   3.830
 6305SOL    HW230544   1.573   0.511   3.970
 6306SOL     OW30545   3.499   4.155  26.022
 6306SOL    HW130546   3.547   4.073  26.022
 6306SOL    HW230547   3.526   4.198  25.941
 6307SOL     OW30548   4.057   3.926   5.304
 6307SOL    HW130549   4.135   3.953   5.353
 6307SOL    HW230550   3.992   3.906   5.371
 6308SOL     OW30551   2.909   2.480  25.845
 6308SOL    HW130552   2.996   2.496  25.807
 6308SOL    HW230553   2.921   2.402  25.900
 6309SOL     OW30554   0.473   0.118  22.904
 6309SOL    HW130555   0.566   0.124  22.881
 6309SOL    HW230556   0.453   0.025  22.899
 6310SOL     OW30557   3.491   0.888  23.666
 6310SOL    HW130558   3.408   0.847  23.691
 6310SOL    HW230559   3.520   0.837  23.590
 6311SOL     OW30560   2.009   4.184   1.740
 6311SOL    HW130561   1.998   4.122   1.812
 6311SOL    HW230562   1.966   4.143   1.665
 6312SOL     OW30563   4.113   3.756  19.463
 6312SOL    HW130564   4.131   3.664  19.484
 6312SOL    HW230565   4.111   3.800  19.548
 6313SOL     OW30566   4.046   3.637  20.744
 6313SOL    HW130567   4.126   3.645  20.692
 6313SOL    HW230568   3.986   3.587  20.688
 6314SOL     OW30569   0.789   2.553   5.408
 6314SOL    HW130570   0.725   2.483   5.395
 6314SOL    HW230571   0.846   2.520   5.478
 6315SOL     OW30572   0.691   1.491   7.003
 6315SOL    HW130573   0.678   1.514   7.095
 6315SOL    HW230574   0.651   1.563   6.954
 6316SOL     OW30575   1.456   0.111  20.478
 6316SOL    HW130576   1.398   0.185  20.499
 6316SOL    HW230577   1.544   0.146  20.488
 6317SOL     OW30578   1.851   4.227   5.768
 6317SOL    HW130579   1.756   4.229   5.781
 6317SOL    HW230580   1.873   4.134   5.775
 6318SOL     OW30581   2.420   0.204   9.567
 6318SOL    HW130582   2.479   0.279   9.568
 6318SOL    HW230583   2.342   0.235   9.521
 6319SOL     OW30584   3.296   2.593  19.668
 6319SOL    HW130585   3.317   2.606  19.576
 6319SOL    HW230586   3.240   2.667  19.691
 6320SOL     OW30587   2.502   2.760  24.064
 6320SOL    HW130588   2.545   2.706  24.131
 6320SOL    HW230589   2.503   2.848  24.100
 6321SOL     OW30590   2.437   0.538   3.749
 6321SOL    HW130591   2.413   0.599   3.819
 6321SOL    HW230592   2.356   0.491   3.729
 6322SOL     OW30593   4.355   0.719   6.175
 6322SOL    HW130594   4.354   0.803   6.128
 6322SOL    HW230595   4.349   0.653   6.105
 6323SOL     OW30596   1.959   0.984   6.660
 6323SOL    HW130597   1.904   1.032   6.721
 6323SOL    HW230598   2.043   0.975   6.706
 6324SOL     OW30599   0.221   2.052  23.081
 6324SOL    HW130600   0.219   2.052  22.985
 6324SOL    HW230601   0.130   2.067  23.106
 6325SOL     OW30602   2.147   0.421   6.862
 6325SOL    HW130603   2.200   0.480   6.917
 6325SOL    HW230604   2.196   0.416   6.779
 6326SOL     OW30605   3.381   2.667   1.919
 6326SOL    HW130606   3.414   2.743   1.966
 6326SOL    HW230607   3.342   2.703   1.839
 6327SOL     OW30608   4.229   0.450   0.148
 6327SOL    HW130609   4.178   0.529   0.131
 6327SOL    HW230610   4.163   0.383   0.170
 6328SOL     OW30611   2.537   1.857   1.337
 6328SOL    HW130612   2.525   1.766   1.312
 6328SOL    HW230613   2.450   1.896   1.331
 6329SOL     OW30614   2.744   1.570   6.886
 6329SOL    HW130615   2.684   1.643   6.872
 6329SOL    HW230616   2.814   1.607   6.941
 6330SOL     OW30617   3.089   3.962  11.634
 6330SOL    HW130618   3.030   4.018  11.685
 6330SOL    HW230619   3.177   3.984  11.664
 6331SOL     OW30620   2.255   0.702   6.137
 6331SOL    HW130621   2.336   0.728   6.094
 6331SOL    HW230622   2.252   0.754   6.217
 6332SOL     OW30623   3.058   3.721  24.965
 6332SOL    HW130624   3.050   3.665  24.888
 6332SOL    HW230625   2.975   3.768  24.970
 6333SOL     OW30626   1.404   2.992  23.947
 6333SOL    HW130627   1.446   3.074  23.923
 6333SOL    HW230628   1.336   2.979  23.880
 6334SOL     OW30629   1.230   0.036  23.553
 6334SOL    HW130630   1.229   4.723  23.536
 6334SOL    HW230631   1.226   0.044  23.649
 6335SOL     OW30632   0.240   1.729   0.109
 6335SOL    HW130633   0.293   1.717   0.188
 6335SOL    HW230634   0.151   1.707   0.136
 6336SOL     OW30635   1.240   4.380  27.718
 6336SOL    HW130636   1.185   4.397  27.642
 6336SOL    HW230637   1.263   4.467  27.751
 6337SOL     OW30638   1.351   1.543  22.043
 6337SOL    HW130639   1.417   1.532  21.975
 6337SOL    HW230640   1.268   1.530  21.998
 6338SOL     OW30641   0.176   2.155  17.101
 6338SOL    HW130642   0.238   2.201  17.045
 6338SOL    HW230643   0.091   2.172  17.062
 6339SOL     OW30644   0.311   4.401  26.247
 6339SOL    HW130645   0.217   4.411  26.235
 6339SOL    HW230646   0.350   4.466  26.188
 6340SOL     OW30647   3.965   3.580  17.358
 6340SOL    HW130648   3.941   3.657  17.307
 6340SOL    HW230649   4.061   3.579  17.357
 6341SOL     OW30650   0.758   2.574   6.923
 6341SOL    HW130651   0.714   2.644   6.971
 6341SOL    HW230652   0.721   2.578   6.835
 6342SOL     OW30653   2.831   3.648  20.789
 6342SOL    HW130654   2.839   3.583  20.719
 6342SOL    HW230655   2.813   3.730  20.743
 6343SOL     OW30656   2.092   0.075   5.910
 6343SOL    HW130657   2.077   0.079   5.815
 6343SOL    HW230658   2.133   4.770   5.924
 6344SOL     OW30659   1.285   1.058  22.949
 6344SOL    HW130660   1.270   1.023  22.862
 6344SOL    HW230661   1.364   1.112  22.940
 6345SOL     OW30662   4.266   3.387  28.016
 6345SOL    HW130663   4.337   3.380  27.953
 6345SOL    HW230664   4.209   3.313  27.997
 6346SOL     OW30665   1.500   0.705  25.100
 6346SOL    HW130666   1.575   0.651  25.073
 6346SOL    HW230667   1.455   0.651  25.165
 6347SOL     OW30668   1.598   2.947   7.835
 6347SOL    HW130669   1.514   2.924   7.875
 6347SOL    HW230670   1.578   3.025   7.782
 6348SOL     OW30671   2.877   4.434   1.750
 6348SOL    HW130672   2.846   4.380   1.677
 6348SOL    HW230673   2.866   4.524   1.719
 6349SOL     OW30674   3.938   1.783  27.549
 6349SOL    HW130675   4.013   1.843  27.555
 6349SOL    HW230676   3.971   1.708  27.499
 6350SOL     OW30677   3.634   2.389  25.499
 6350SOL    HW130678   3.640   2.364  25.406
 6350SOL    HW230679   3.646   2.484  25.499
 6351SOL     OW30680   0.115   0.096   1.535
 6351SOL    HW130681   0.054   0.088   1.608
 6351SOL    HW230682   0.195   0.128   1.574
 6352SOL     OW30683   3.549   1.187   6.296
 6352SOL    HW130684   3.483   1.190   6.366
 6352SOL    HW230685   3.529   1.262   6.241
 6353SOL     OW30686   3.548   3.488  26.841
 6353SOL    HW130687   3.529   3.477  26.748
 6353SOL    HW230688   3.477   3.442  26.886
 6354SOL     OW30689   0.814   3.382  27.196
 6354SOL    HW130690   0.865   3.456  27.160
 6354SOL    HW230691   0.770   3.344  27.120
 6355SOL     OW30692   0.799   4.095   3.503
 6355SOL    HW130693   0.726   4.109   3.443
 6355SOL    HW230694   0.876   4.092   3.447
 6356SOL     OW30695   0.180   0.211  23.254
 6356SOL    HW130696   0.111   0.208  23.188
 6356SOL    HW230697   0.137   0.243  23.333
 6357SOL     OW30698   4.689   4.773   4.790
 6357SOL    HW130699   4.733   0.068   4.827
 6357SOL    HW230700   4.623   0.028   4.730
 6358SOL     OW30701   4.074   0.124  11.667
 6358SOL    HW130702   4.134   0.057  11.635
 6358SOL    HW230703   4.072   0.191  11.598
 6359SOL     OW30704   2.487   0.686  26.050
 6359SOL    HW130705   2.437   0.692  25.969
 6359SOL    HW230706   2.578   0.697  26.023
 6360SOL     OW30707   0.862   0.379  28.167
 6360SOL    HW130708   0.838   0.318  28.237
 6360SOL    HW230709   0.803   0.453  28.179
 6361SOL     OW30710   2.603   3.495   3.518
 6361SOL    HW130711   2.622   3.474   3.427
 6361SOL    HW230712   2.538   3.566   3.514
 6362SOL     OW30713   4.052   4.317  27.471
 6362SOL    HW130714   4.084   4.384  27.411
 6362SOL    HW230715   4.085   4.234  27.435
 6363SOL     OW30716   1.320   4.016  19.059
 6363SOL    HW130717   1.363   4.096  19.028
 6363SOL    HW230718   1.357   3.947  19.004
 6364SOL     OW30719   2.366   2.260  26.595
 6364SOL    HW130720   2.355   2.301  26.681
 6364SOL    HW230721   2.455   2.224  26.597
 6365SOL     OW30722   3.498   0.753  27.049
 6365SOL    HW130723   3.537   0.741  26.962
 6365SOL    HW230724   3.541   0.688  27.104
 6366SOL     OW30725   3.750   1.325   0.898
 6366SOL    HW130726   3.692   1.396   0.927
 6366SOL    HW230727   3.830   1.337   0.949
 6367SOL     OW30728   2.098   1.617  22.190
 6367SOL    HW130729   2.088   1.712  22.197
 6367SOL    HW230730   2.108   1.588  22.280
 6368SOL     OW30731   1.803   4.258   4.143
 6368SOL    HW130732   1.711   4.247   4.121
 6368SOL    HW230733   1.802   4.313   4.222
 6369SOL     OW30734   4.237   3.014  25.741
 6369SOL    HW130735   4.166   2.990  25.682
 6369SOL    HW230736   4.303   3.055  25.685
 6370SOL     OW30737   2.041   3.664   3.523
 6370SOL    HW130738   1.973   3.698   3.582
 6370SOL    HW230739   2.088   3.599   3.576
 6371SOL     OW30740   0.368   1.662  24.856
 6371SOL    HW130741   0.445   1.671  24.800
 6371SOL    HW230742   0.392   1.592  24.917
 6372SOL     OW30743   0.271   0.986   4.354
 6372SOL    HW130744   0.306   0.973   4.266
 6372SOL    HW230745   0.220   0.907   4.372
 6373SOL     OW30746   0.859   3.039   8.066
 6373SOL    HW130747   0.849   3.023   7.973
 6373SOL    HW230748   0.774   3.018   8.104
 6374SOL     OW30749   3.237   2.439  19.198
 6374SOL    HW130750   3.182   2.361  19.198
 6374SOL    HW230751   3.225   2.477  19.111
 6375SOL     OW30752   1.300   0.881  26.979
 6375SOL    HW130753   1.388   0.898  26.947
 6375SOL    HW230754   1.288   0.786  26.971
 6376SOL     OW30755   0.832   0.387  27.631
 6376SOL    HW130756   0.861   0.441  27.558
 6376SOL    HW230757   0.826   0.299  27.596
 6377SOL     OW30758   4.377   2.282  11.609
 6377SOL    HW130759   4.342   2.361  11.651
 6377SOL    HW230760   4.471   2.288  11.623
 6378SOL     OW30761   3.921   4.184  10.171
 6378SOL    HW130762   3.901   4.091  10.186
 6378SOL    HW230763   3.885   4.228  10.247
 6379SOL     OW30764   0.952   3.704   5.035
 6379SOL    HW130765   0.941   3.765   5.109
 6379SOL    HW230766   1.024   3.648   5.061
 6380SOL     OW30767   2.123   0.241   8.517
 6380SOL    HW130768   2.124   0.154   8.478
 6380SOL    HW230769   2.203   0.283   8.483
 6381SOL     OW30770   2.818   4.483   2.330
 6381SOL    HW130771   2.844   4.403   2.376
 6381SOL    HW230772   2.751   4.455   2.268
 6382SOL     OW30773   4.443   3.665  27.781
 6382SOL    HW130774   4.429   3.570  27.792
 6382SOL    HW230775   4.356   3.703  27.796
 6383SOL     OW30776   2.077   1.160  24.985
 6383SOL    HW130777   2.157   1.181  25.032
 6383SOL    HW230778   2.047   1.243  24.950
 6384SOL     OW30779   3.091   1.868   7.566
 6384SOL    HW130780   3.183   1.857   7.542
 6384SOL    HW230781   3.063   1.781   7.594
 6385SOL     OW30782   0.885   1.414  28.213
 6385SOL    HW130783   0.799   1.376  28.233
 6385SOL    HW230784   0.878   1.505  28.242
 6386SOL     OW30785   1.737   3.525   2.218
 6386SOL    HW130786   1.821   3.484   2.196
 6386SOL    HW230787   1.713   3.487   2.302
 6387SOL     OW30788   4.219   3.507   6.211
 6387SOL    HW130789   4.240   3.499   6.304
 6387SOL    HW230790   4.301   3.488   6.166
 6388SOL     OW30791   4.707   3.076   2.853
 6388SOL    HW130792   0.016   3.098   2.827
 6388SOL    HW230793   4.681   3.146   2.912
 6389SOL     OW30794   4.715   2.051   8.743
 6389SOL    HW130795   4.730   2.034   8.836
 6389SOL    HW230796   4.639   1.998   8.721
 6390SOL     OW30797   1.897   2.001  10.532
 6390SOL    HW130798   1.937   2.087  10.545
 6390SOL    HW230799   1.965   1.938  10.557
 6391SOL     OW30800   3.167   2.658   4.982
 6391SOL    HW130801   3.249   2.668   4.935
 6391SOL    HW230802   3.171   2.570   5.019
 6392SOL     OW30803   2.710   0.957  21.874
 6392SOL    HW130804   2.682   0.911  21.795
 6392SOL    HW230805   2.804   0.971  21.862
 6393SOL     OW30806   4.646   0.681   4.887
 6393SOL    HW130807   4.707   0.649   4.820
 6393SOL    HW230808   4.629   0.772   4.861
 6394SOL     OW30809   0.757   4.112  10.051
 6394SOL    HW130810   0.804   4.070   9.979
 6394SOL    HW230811   0.826   4.143  10.110
 6395SOL     OW30812   1.695   2.170  28.064
 6395SOL    HW130813   1.749   2.248  28.049
 6395SOL    HW230814   1.739   2.124  28.135
 6396SOL     OW30815   2.447   0.700  25.432
 6396SOL    HW130816   2.409   0.787  25.438
 6396SOL    HW230817   2.413   0.654  25.509
 6397SOL     OW30818   0.179   1.207  28.398
 6397SOL    HW130819   0.092   1.166  28.403
 6397SOL    HW230820   0.160   1.301  28.398
 6398SOL     OW30821   3.584   3.607  21.247
 6398SOL    HW130822   3.597   3.539  21.181
 6398SOL    HW230823   3.633   3.682  21.214
 6399SOL     OW30824   0.277   0.591   6.929
 6399SOL    HW130825   0.197   0.628   6.966
 6399SOL    HW230826   0.302   0.651   6.859
 6400SOL     OW30827   0.306   0.131  25.262
 6400SOL    HW130828   0.335   0.040  25.253
 6400SOL    HW230829   0.309   0.166  25.173
 6401SOL     OW30830   4.302   1.231  25.402
 6401SOL    HW130831   4.376   1.290  25.387
 6401SOL    HW230832   4.315   1.160  25.339
 6402SOL     OW30833   3.229   0.547  10.637
 6402SOL    HW130834   3.223   0.462  10.593
 6402SOL    HW230835   3.315   0.582  10.611
 6403SOL     OW30836   3.971   0.382   1.959
 6403SOL    HW130837   4.059   0.395   1.996
 6403SOL    HW230838   3.981   0.307   1.900
 6404SOL     OW30839   2.660   1.918  17.686
 6404SOL    HW130840   2.687   1.842  17.636
 6404SOL    HW230841   2.724   1.986  17.664
 6405SOL     OW30842   1.110   0.277   7.251
 6405SOL    HW130843   1.035   0.240   7.206
 6405SOL    HW230844   1.173   0.205   7.257
 6406SOL     OW30845   2.399   3.873   6.738
 6406SOL    HW130846   2.478   3.822   6.754
 6406SOL    HW230847   2.330   3.828   6.787
 6407SOL     OW30848   1.822   1.444   5.974
 6407SOL    HW130849   1.781   1.484   6.051
 6407SOL    HW230850   1.793   1.353   5.976
 6408SOL     OW30851   4.383   4.490  20.049
 6408SOL    HW130852   4.442   4.417  20.031
 6408SOL    HW230853   4.441   4.567  20.050
 6409SOL     OW30854   0.418   2.384  27.415
 6409SOL    HW130855   0.364   2.356  27.341
 6409SOL    HW230856   0.508   2.381  27.382
 6410SOL     OW30857   0.532   3.656   7.530
 6410SOL    HW130858   0.498   3.702   7.607
 6410SOL    HW230859   0.610   3.704   7.505
 6411SOL     OW30860   0.431   2.613   0.361
 6411SOL    HW130861   0.367   2.542   0.351
 6411SOL    HW230862   0.496   2.596   0.293
 6412SOL     OW30863   2.953   3.066  23.169
 6412SOL    HW130864   2.999   2.983  23.186
 6412SOL    HW230865   2.943   3.069  23.074
 6413SOL     OW30866   2.693   3.795  18.153
 6413SOL    HW130867   2.604   3.828  18.165
 6413SOL    HW230868   2.711   3.809  18.060
 6414SOL     OW30869   4.141   1.126  25.937
 6414SOL    HW130870   4.197   1.055  25.970
 6414SOL    HW230871   4.099   1.089  25.860
 6415SOL     OW30872   2.471   2.591  26.566
 6415SOL    HW130873   2.540   2.600  26.501
 6415SOL    HW230874   2.436   2.503  26.553
 6416SOL     OW30875   3.175   1.217   5.915
 6416SOL    HW130876   3.122   1.199   5.992
 6416SOL    HW230877   3.112   1.242   5.847
 6417SOL     OW30878   0.651   1.557   9.591
 6417SOL    HW130879   0.651   1.571   9.686
 6417SOL    HW230880   0.741   1.532   9.570
 6418SOL     OW30881   3.167   4.069   7.735
 6418SOL    HW130882   3.160   4.075   7.830
 6418SOL    HW230883   3.148   4.158   7.704
 6419SOL     OW30884   0.054   3.096  27.063
 6419SOL    HW130885   0.132   3.143  27.092
 6419SOL    HW230886   0.027   3.141  26.983
 6420SOL     OW30887   0.690   3.452   6.358
 6420SOL    HW130888   0.720   3.449   6.267
 6420SOL    HW230889   0.711   3.540   6.388
 6421SOL     OW30890   2.146   4.313  21.583
 6421SOL    HW130891   2.198   4.392  21.568
 6421SOL    HW230892   2.063   4.330  21.538
 6422SOL     OW30893   1.935   2.516   2.812
 6422SOL    HW130894   1.977   2.489   2.730
 6422SOL    HW230895   1.956   2.445   2.874
 6423SOL     OW30896   3.768   1.370  18.311
 6423SOL    HW130897   3.711   1.301  18.278
 6423SOL    HW230898   3.774   1.354  18.405
 6424SOL     OW30899   0.974   4.293   3.199
 6424SOL    HW130900   0.985   4.322   3.290
 6424SOL    HW230901   0.968   4.198   3.206
 6425SOL     OW30902   3.124   3.304  26.719
 6425SOL    HW130903   3.095   3.216  26.694
 6425SOL    HW230904   3.054   3.362  26.690
 6426SOL     OW30905   1.771   1.458  16.097
 6426SOL    HW130906   1.703   1.514  16.061
 6426SOL    HW230907   1.815   1.422  16.019
 6427SOL     OW30908   4.584   3.973   5.736
 6427SOL    HW130909   4.491   3.957   5.747
 6427SOL    HW230910   4.590   4.061   5.699
 6428SOL     OW30911   3.602   0.591  27.234
 6428SOL    HW130912   3.570   0.657  27.295
 6428SOL    HW230913   3.685   0.561  27.272
 6429SOL     OW30914   1.322   0.777  21.195
 6429SOL    HW130915   1.307   0.863  21.157
 6429SOL    HW230916   1.381   0.794  21.269
 6430SOL     OW30917   1.634   0.568  12.573
 6430SOL    HW130918   1.665   0.489  12.617
 6430SOL    HW230919   1.709   0.627  12.576
 6431SOL     OW30920   0.213   1.085  20.991
 6431SOL    HW130921   0.203   1.179  21.008
 6431SOL    HW230922   0.210   1.045  21.078
 6432SOL     OW30923   4.151   2.294   0.342
 6432SOL    HW130924   4.098   2.365   0.378
 6432SOL    HW230925   4.094   2.218   0.343
 6433SOL     OW30926   1.684   3.924  25.975
 6433SOL    HW130927   1.614   3.861  25.992
 6433SOL    HW230928   1.641   4.010  25.981
 6434SOL     OW30929   3.074   2.183  28.499
 6434SOL    HW130930   3.104   2.268   0.011
 6434SOL    HW230931   3.068   2.196  28.405
 6435SOL     OW30932   0.980   4.573  24.694
 6435SOL    HW130933   0.948   4.655  24.657
 6435SOL    HW230934   0.944   4.505  24.637
 6436SOL     OW30935   3.103   3.980  10.708
 6436SOL    HW130936   3.198   3.978  10.699
 6436SOL    HW230937   3.087   4.045  10.776
 6437SOL     OW30938   1.875   0.727   2.614
 6437SOL    HW130939   1.811   0.781   2.660
 6437SOL    HW230940   1.955   0.779   2.616
 6438SOL     OW30941   3.290   0.776  20.062
 6438SOL    HW130942   3.246   0.757  19.979
 6438SOL    HW230943   3.279   0.871  20.073
 6439SOL     OW30944   1.132   4.413   0.224
 6439SOL    HW130945   1.059   4.475   0.229
 6439SOL    HW230946   1.211   4.467   0.233
 6440SOL     OW30947   3.150   0.300  27.128
 6440SOL    HW130948   3.209   0.258  27.192
 6440SOL    HW230949   3.142   0.236  27.057
 6441SOL     OW30950   3.675   0.485   4.271
 6441SOL    HW130951   3.608   0.427   4.235
 6441SOL    HW230952   3.736   0.499   4.198
 6442SOL     OW30953   1.896   2.533   3.555
 6442SOL    HW130954   1.844   2.613   3.540
 6442SOL    HW230955   1.833   2.462   3.545
 6443SOL     OW30956   1.514   4.744   7.220
 6443SOL    HW130957   1.513   4.666   7.164
 6443SOL    HW230958   1.594   0.009   7.196
 6444SOL     OW30959   3.800   1.475  28.463
 6444SOL    HW130960   3.814   1.553  28.517
 6444SOL    HW230961   3.832   1.403  28.518
 6445SOL     OW30962   2.414   3.455  22.644
 6445SOL    HW130963   2.429   3.505  22.724
 6445SOL    HW230964   2.338   3.498  22.604
 6446SOL     OW30965   3.125   1.479   3.142
 6446SOL    HW130966   3.138   1.401   3.089
 6446SOL    HW230967   3.144   1.450   3.232
 6447SOL     OW30968   0.781   1.661  18.912
 6447SOL    HW130969   0.864   1.707  18.917
 6447SOL    HW230970   0.730   1.694  18.986
 6448SOL     OW30971   0.602   1.176   1.937
 6448SOL    HW130972   0.669   1.110   1.920
 6448SOL    HW230973   0.601   1.230   1.858
 6449SOL     OW30974   0.455   0.863  22.860
 6449SOL    HW130975   0.448   0.799  22.931
 6449SOL    HW230976   0.385   0.926  22.879
 6450SOL     OW30977   3.696   4.055  20.487
 6450SOL    HW130978   3.730   3.987  20.429
 6450SOL    HW230979   3.663   4.122  20.427
 6451SOL     OW30980   4.686   2.276  18.043
 6451SOL    HW130981   4.729   2.223  18.110
 6451SOL    HW230982   4.596   2.286  18.076
 6452SOL     OW30983   0.502   0.792   8.871
 6452SOL    HW130984   0.593   0.760   8.868
 6452SOL    HW230985   0.469   0.775   8.783
 6453SOL     OW30986   4.549   0.312   4.383
 6453SOL    HW130987   4.579   0.223   4.363
 6453SOL    HW230988   4.551   0.358   4.300
 6454SOL     OW30989   0.308   1.475   4.159
 6454SOL    HW130990   0.224   1.430   4.166
 6454SOL    HW230991   0.285   1.568   4.157
 6455SOL     OW30992   0.161   1.805   6.906
 6455SOL    HW130993   0.144   1.898   6.915
 6455SOL    HW230994   0.076   1.768   6.882
 6456SOL     OW30995   0.842   3.314  28.124
 6456SOL    HW130996   0.815   3.393  28.172
 6456SOL    HW230997   0.809   3.328  28.035
 6457SOL     OW30998   1.612   2.622  22.521
 6457SOL    HW130999   1.567   2.632  22.605
 6457SOL    HW231000   1.701   2.596  22.545
 6458SOL     OW31001   0.876   3.106   9.758
 6458SOL    HW131002   0.858   3.015   9.783
 6458SOL    HW231003   0.793   3.152   9.774
 6459SOL     OW31004   4.563   1.246  24.151
 6459SOL    HW131005   4.655   1.244  24.125
 6459SOL    HW231006   4.515   1.246  24.068
 6460SOL     OW31007   1.661   0.678   7.769
 6460SOL    HW131008   1.663   0.707   7.860
 6460SOL    HW231009   1.750   0.694   7.737
 6461SOL     OW31010   4.533   2.548  18.092
 6461SOL    HW131011   4.527   2.641  18.115
 6461SOL    HW231012   4.610   2.543  18.036
 6462SOL     OW31013   2.024   4.123   9.080
 6462SOL    HW131014   1.945   4.070   9.092
 6462SOL    HW231015   2.089   4.084   9.138
 6463SOL     OW31016   1.716   0.559   8.555
 6463SOL    HW131017   1.805   0.532   8.579
 6463SOL    HW231018   1.666   0.551   8.636
 6464SOL     OW31019   1.389   0.865   7.660
 6464SOL    HW131020   1.388   0.811   7.739
 6464SOL    HW231021   1.369   0.805   7.589
 6465SOL     OW31022   3.076   1.251   4.774
 6465SOL    HW131023   3.143   1.268   4.840
 6465SOL    HW231024   3.112   1.181   4.720
 6466SOL     OW31025   0.355   1.211  27.135
 6466SOL    HW131026   0.418   1.156  27.182
 6466SOL    HW231027   0.343   1.287  27.192
 6467SOL     OW31028   1.873   1.531   1.378
 6467SOL    HW131029   1.819   1.472   1.430
 6467SOL    HW231030   1.823   1.613   1.376
 6468SOL     OW31031   3.672   1.292   1.387
 6468SOL    HW131032   3.735   1.256   1.449
 6468SOL    HW231033   3.607   1.223   1.375
 6469SOL     OW31034   2.540   2.778   9.542
 6469SOL    HW131035   2.502   2.806   9.458
 6469SOL    HW231036   2.515   2.686   9.550
 6470SOL     OW31037   0.312   1.331   4.668
 6470SOL    HW131038   0.368   1.408   4.658
 6470SOL    HW231039   0.331   1.279   4.590
 6471SOL     OW31040   2.930   3.592   0.320
 6471SOL    HW131041   2.882   3.517   0.356
 6471SOL    HW231042   2.869   3.631   0.257
 6472SOL     OW31043   3.551   3.286   6.295
 6472SOL    HW131044   3.489   3.359   6.293
 6472SOL    HW231045   3.603   3.298   6.215
 6473SOL     OW31046   2.300   4.029  24.163
 6473SOL    HW131047   2.326   4.037  24.255
 6473SOL    HW231048   2.382   4.019  24.115
 6474SOL     OW31049   3.696   0.077  11.162
 6474SOL    HW131050   3.765   0.131  11.202
 6474SOL    HW231051   3.616   0.127  11.178
 6475SOL     OW31052   4.260   1.707  25.083
 6475SOL    HW131053   4.209   1.758  25.020
 6475SOL    HW231054   4.346   1.749  25.084
 6476SOL     OW31055   4.438   3.904  18.801
 6476SOL    HW131056   4.438   3.824  18.748
 6476SOL    HW231057   4.358   3.950  18.776
 6477SOL     OW31058   4.320   3.232   0.109
 6477SOL    HW131059   4.322   3.264   0.019
 6477SOL    HW231060   4.234   3.260   0.142
 6478SOL     OW31061   3.018   4.297  28.236
 6478SOL    HW131062   2.952   4.290  28.167
 6478SOL    HW231063   2.968   4.311  28.316
 6479SOL     OW31064   4.203   1.474   3.010
 6479SOL    HW131065   4.174   1.469   2.918
 6479SOL    HW231066   4.283   1.421   3.012
 6480SOL     OW31067   2.862   3.925   0.238
 6480SOL    HW131068   2.832   3.892   0.153
 6480SOL    HW231069   2.930   3.988   0.217
 6481SOL     OW31070   1.215   3.632  19.813
 6481SOL    HW131071   1.237   3.706  19.869
 6481SOL    HW231072   1.284   3.568  19.829
 6482SOL     OW31073   3.401   1.688  22.310
 6482SOL    HW131074   3.310   1.668  22.288
 6482SOL    HW231075   3.443   1.705  22.225
 6483SOL     OW31076   2.279   0.061   7.159
 6483SOL    HW131077   2.267   0.071   7.254
 6483SOL    HW231078   2.203   0.104   7.121
 6484SOL     OW31079   4.066   1.538  24.143
 6484SOL    HW131080   4.030   1.590  24.214
 6484SOL    HW231081   4.000   1.543  24.074
 6485SOL     OW31082   4.065   4.406  22.945
 6485SOL    HW131083   4.039   4.338  22.882
 6485SOL    HW231084   4.104   4.474  22.891
 6486SOL     OW31085   0.174   2.293   4.137
 6486SOL    HW131086   0.122   2.374   4.133
 6486SOL    HW231087   0.221   2.300   4.220
 6487SOL     OW31088   2.333   1.720   0.878
 6487SOL    HW131089   2.354   1.628   0.860
 6487SOL    HW231090   2.418   1.761   0.894
 6488SOL     OW31091   1.787   1.104  24.370
 6488SOL    HW131092   1.841   1.181  24.352
 6488SOL    HW231093   1.753   1.077  24.285
 6489SOL     OW31094   2.122   0.603  23.346
 6489SOL    HW131095   2.086   0.680  23.302
 6489SOL    HW231096   2.215   0.606  23.327
 6490SOL     OW31097   4.422   0.332  21.133
 6490SOL    HW131098   4.483   0.324  21.060
 6490SOL    HW231099   4.478   0.338  21.211
 6491SOL     OW31100   3.370   0.607   5.520
 6491SOL    HW131101   3.446   0.576   5.570
 6491SOL    HW231102   3.377   0.703   5.524
 6492SOL     OW31103   0.536   2.123  27.122
 6492SOL    HW131104   0.497   2.192  27.069
 6492SOL    HW231105   0.599   2.080  27.065
 6493SOL     OW31106   0.427   1.512  19.844
 6493SOL    HW131107   0.404   1.481  19.932
 6493SOL    HW231108   0.365   1.468  19.787
 6494SOL     OW31109   0.894   3.930   0.674
 6494SOL    HW131110   0.837   3.940   0.598
 6494SOL    HW231111   0.872   3.845   0.711
 6495SOL     OW31112   3.006   0.033  10.236
 6495SOL    HW131113   2.960   4.739  10.199
 6495SOL    HW231114   3.031   0.086  10.160
 6496SOL     OW31115   2.099   4.142   6.421
 6496SOL    HW131116   2.109   4.126   6.328
 6496SOL    HW231117   2.171   4.094   6.462
 6497SOL     OW31118   3.339   2.186   1.371
 6497SOL    HW131119   3.308   2.161   1.284
 6497SOL    HW231120   3.270   2.242   1.406
 6498SOL     OW31121   1.474   1.396   5.222
 6498SOL    HW131122   1.506   1.329   5.161
 6498SOL    HW231123   1.523   1.474   5.200
 6499SOL     OW31124   0.882   4.274   5.889
 6499SOL    HW131125   0.837   4.313   5.815
 6499SOL    HW231126   0.912   4.349   5.941
 6500SOL     OW31127   0.766   2.987   3.290
 6500SOL    HW131128   0.702   2.958   3.355
 6500SOL    HW231129   0.793   2.906   3.246
 6501SOL     OW31130   4.185   3.164   6.616
 6501SOL    HW131131   4.219   3.092   6.668
 6501SOL    HW231132   4.155   3.228   6.680
 6502SOL     OW31133   2.833   4.618  24.468
 6502SOL    HW131134   2.770   4.551  24.493
 6502SOL    HW231135   2.852   4.665  24.550
 6503SOL     OW31136   0.420   1.600   2.287
 6503SOL    HW131137   0.422   1.688   2.324
 6503SOL    HW231138   0.507   1.564   2.306
 6504SOL     OW31139   1.830   1.037  11.241
 6504SOL    HW131140   1.852   1.088  11.319
 6504SOL    HW231141   1.883   1.075  11.172
 6505SOL     OW31142   0.649   4.486   8.937
 6505SOL    HW131143   0.619   4.501   8.847
 6505SOL    HW231144   0.744   4.500   8.933
 6506SOL     OW31145   3.641   1.557  26.594
 6506SOL    HW131146   3.585   1.480  26.608
 6506SOL    HW231147   3.580   1.628  26.576
 6507SOL     OW31148   2.822   4.397   4.153
 6507SOL    HW131149   2.739   4.430   4.117
 6507SOL    HW231150   2.798   4.314   4.195
 6508SOL     OW31151   3.208   3.244   5.852
 6508SOL    HW131152   3.165   3.159   5.843
 6508SOL    HW231153   3.275   3.229   5.919
 6509SOL     OW31154   2.086   2.302   6.974
 6509SOL    HW131155   2.128   2.388   6.973
 6509SOL    HW231156   2.125   2.255   6.901
 6510SOL     OW31157   0.872   0.267  27.875
 6510SOL    HW131158   0.846   0.308  27.957
 6510SOL    HW231159   0.852   0.333  27.808
 6511SOL     OW31160   3.998   2.526   0.460
 6511SOL    HW131161   3.907   2.495   0.465
 6511SOL    HW231162   3.991   2.610   0.415
 6512SOL     OW31163   1.625   2.461   1.747
 6512SOL    HW131164   1.601   2.374   1.713
 6512SOL    HW231165   1.700   2.487   1.693
 6513SOL     OW31166   0.721   0.390   7.511
 6513SOL    HW131167   0.802   0.362   7.553
 6513SOL    HW231168   0.703   0.321   7.446
 6514SOL     OW31169   2.115   2.406  24.447
 6514SOL    HW131170   2.103   2.312  24.460
 6514SOL    HW231171   2.042   2.446  24.495
 6515SOL     OW31172   4.579   0.667  27.930
 6515SOL    HW131173   4.546   0.696  27.845
 6515SOL    HW231174   4.641   0.597  27.909
 6516SOL     OW31175   0.505   0.126   5.834
 6516SOL    HW131176   0.512   0.041   5.877
 6516SOL    HW231177   0.563   0.119   5.758
 6517SOL     OW31178   3.952   0.847   0.314
 6517SOL    HW131179   4.019   0.835   0.382
 6517SOL    HW231180   3.881   0.894   0.359
 6518SOL     OW31181   0.032   0.798   7.431
 6518SOL    HW131182   4.772   0.788   7.517
 6518SOL    HW231183   0.071   0.713   7.412
 6519SOL     OW31184   4.564   1.689   1.688
 6519SOL    HW131185   4.641   1.639   1.663
 6519SOL    HW231186   4.490   1.640   1.652
 6520SOL     OW31187   1.929   3.797   7.548
 6520SOL    HW131188   1.925   3.714   7.595
 6520SOL    HW231189   1.975   3.857   7.607
 6521SOL     OW31190   0.574   3.786   3.320
 6521SOL    HW131191   0.513   3.726   3.277
 6521SOL    HW231192   0.604   3.844   3.251
 6522SOL     OW31193   4.145   3.218  20.180
 6522SOL    HW131194   4.191   3.273  20.117
 6522SOL    HW231195   4.056   3.211  20.146
 6523SOL     OW31196   2.218   1.438  27.240
 6523SOL    HW131197   2.181   1.433  27.152
 6523SOL    HW231198   2.312   1.423  27.227
 6524SOL     OW31199   1.010   1.169   7.709
 6524SOL    HW131200   0.944   1.207   7.768
 6524SOL    HW231201   0.959   1.135   7.635
 6525SOL     OW31202   3.344   0.603  22.657
 6525SOL    HW131203   3.261   0.637  22.624
 6525SOL    HW231204   3.352   0.517  22.617
 6526SOL     OW31205   1.844   3.226  25.214
 6526SOL    HW131206   1.928   3.244  25.255
 6526SOL    HW231207   1.843   3.280  25.136
 6527SOL     OW31208   3.233   2.744   7.587
 6527SOL    HW131209   3.227   2.673   7.524
 6527SOL    HW231210   3.149   2.742   7.633
 6528SOL     OW31211   0.151   1.185  21.615
 6528SOL    HW131212   0.168   1.091  21.605
 6528SOL    HW231213   0.057   1.194  21.601
 6529SOL     OW31214   2.699   3.548  19.725
 6529SOL    HW131215   2.702   3.546  19.629
 6529SOL    HW231216   2.790   3.539  19.752
 6530SOL     OW31217   2.835   0.010  27.559
 6530SOL    HW131218   2.810   0.101  27.546
 6530SOL    HW231219   2.766   4.741  27.514
 6531SOL     OW31220   0.835   0.886   0.477
 6531SOL    HW131221   0.743   0.904   0.457
 6531SOL    HW231222   0.852   0.932   0.559
 6532SOL     OW31223   3.996   0.526  28.390
 6532SOL    HW131224   3.937   0.467  28.437
 6532SOL    HW231225   4.082   0.508  28.427
 6533SOL     OW31226   4.588   1.323   1.955
 6533SOL    HW131227   4.501   1.344   1.921
 6533SOL    HW231228   4.636   1.406   1.953
 6534SOL     OW31229   1.766   0.052  28.312
 6534SOL    HW131230   1.733   0.126  28.261
 6534SOL    HW231231   1.858   0.044  28.287
 6535SOL     OW31232   4.756   1.473  28.082
 6535SOL    HW131233   0.062   1.508  28.063
 6535SOL    HW231234   4.770   1.415  28.157
 6536SOL     OW31235   4.066   3.069  20.821
 6536SOL    HW131236   4.084   2.994  20.764
 6536SOL    HW231237   3.971   3.078  20.819
 6537SOL     OW31238   0.493   1.346  21.999
 6537SOL    HW131239   0.479   1.270  21.943
 6537SOL    HW231240   0.467   1.421  21.945
 6538SOL     OW31241   0.294   3.176   6.879
 6538SOL    HW131242   0.255   3.180   6.792
 6538SOL    HW231243   0.377   3.222   6.871
 6539SOL     OW31244   4.055   0.178   7.818
 6539SOL    HW131245   3.980   0.136   7.859
 6539SOL    HW231246   4.110   0.207   7.891
 6540SOL     OW31247   1.261   1.609  24.689
 6540SOL    HW131248   1.274   1.597  24.783
 6540SOL    HW231249   1.183   1.557  24.668
 6541SOL     OW31250   1.388   2.903  13.060
 6541SOL    HW131251   1.321   2.971  13.071
 6541SOL    HW231252   1.386   2.854  13.142
 6542SOL     OW31253   3.279   0.482   1.363
 6542SOL    HW131254   3.261   0.526   1.280
 6542SOL    HW231255   3.210   0.416   1.371
 6543SOL     OW31256   2.467   2.371  21.213
 6543SOL    HW131257   2.470   2.438  21.281
 6543SOL    HW231258   2.391   2.317  21.235
 6544SOL     OW31259   2.235   1.583  12.161
 6544SOL    HW131260   2.294   1.544  12.225
 6544SOL    HW231261   2.152   1.591  12.207
 6545SOL     OW31262   3.834   1.064   4.045
 6545SOL    HW131263   3.832   1.159   4.049
 6545SOL    HW231264   3.799   1.035   4.129
 6546SOL     OW31265   2.728   3.769  14.030
 6546SOL    HW131266   2.754   3.707  14.097
 6546SOL    HW231267   2.811   3.807  14.000
 6547SOL     OW31268   2.003   0.204  25.465
 6547SOL    HW131269   2.079   0.179  25.517
 6547SOL    HW231270   1.995   0.135  25.399
 6548SOL     OW31271   2.336   1.581   4.099
 6548SOL    HW131272   2.243   1.567   4.120
 6548SOL    HW231273   2.378   1.589   4.184
 6549SOL     OW31274   3.465   3.026  11.069
 6549SOL    HW131275   3.539   2.998  11.123
 6549SOL    HW231276   3.453   3.118  11.092
 6550SOL     OW31277   4.244   2.980  22.876
 6550SOL    HW131278   4.201   2.926  22.942
 6550SOL    HW231279   4.305   2.922  22.833
 6551SOL     OW31280   0.850   3.950   1.260
 6551SOL    HW131281   0.897   4.032   1.275
 6551SOL    HW231282   0.822   3.955   1.168
 6552SOL     OW31283   1.251   2.332   7.007
 6552SOL    HW131284   1.174   2.387   7.018
 6552SOL    HW231285   1.322   2.383   7.046
 6553SOL     OW31286   3.880   4.396   2.622
 6553SOL    HW131287   3.868   4.486   2.653
 6553SOL    HW231288   3.802   4.350   2.651
 6554SOL     OW31289   2.765   2.502  27.295
 6554SOL    HW131290   2.853   2.509  27.257
 6554SOL    HW231291   2.781   2.484  27.388
 6555SOL     OW31292   3.266   0.279  26.636
 6555SOL    HW131293   3.310   0.239  26.561
 6555SOL    HW231294   3.268   0.211  26.704
 6556SOL     OW31295   2.571   3.153   4.987
 6556SOL    HW131296   2.641   3.204   4.946
 6556SOL    HW231297   2.615   3.075   5.021
 6557SOL     OW31298   1.746   2.071   3.604
 6557SOL    HW131299   1.771   2.075   3.697
 6557SOL    HW231300   1.816   2.020   3.564
 6558SOL     OW31301   1.015   4.673   8.283
 6558SOL    HW131302   1.055   4.592   8.252
 6558SOL    HW231303   1.001   4.659   8.376
 6559SOL     OW31304   4.571   3.817  10.954
 6559SOL    HW131305   4.599   3.772  11.033
 6559SOL    HW231306   4.640   3.880  10.936
 6560SOL     OW31307   3.194   0.648   0.694
 6560SOL    HW131308   3.270   0.640   0.636
 6560SOL    HW231309   3.174   0.741   0.696
 6561SOL     OW31310   3.928   1.259  19.496
 6561SOL    HW131311   3.853   1.275  19.439
 6561SOL    HW231312   4.000   1.305  19.453
 6562SOL     OW31313   2.458   2.722  11.779
 6562SOL    HW131314   2.400   2.687  11.710
 6562SOL    HW231315   2.476   2.647  11.835
 6563SOL     OW31316   1.495   2.699   7.466
 6563SOL    HW131317   1.468   2.638   7.397
 6563SOL    HW231318   1.531   2.642   7.535
 6564SOL     OW31319   1.240   3.774   4.149
 6564SOL    HW131320   1.145   3.775   4.160
 6564SOL    HW231321   1.274   3.755   4.237
 6565SOL     OW31322   4.061   3.187  22.214
 6565SOL    HW131323   4.044   3.201  22.120
 6565SOL    HW231324   4.136   3.128  22.216
 6566SOL     OW31325   0.301   4.596   2.931
 6566SOL    HW131326   0.232   4.651   2.969
 6566SOL    HW231327   0.278   4.507   2.960
 6567SOL     OW31328   2.379   2.310   1.048
 6567SOL    HW131329   2.436   2.242   1.085
 6567SOL    HW231330   2.300   2.264   1.022
 6568SOL     OW31331   3.754   0.056   9.331
 6568SOL    HW131332   3.675   0.109   9.346
 6568SOL    HW231333   3.745   0.026   9.241
 6569SOL     OW31334   4.622   2.324  12.736
 6569SOL    HW131335   4.616   2.381  12.813
 6569SOL    HW231336   4.532   2.296  12.719
 6570SOL     OW31337   0.980   1.741   1.646
 6570SOL    HW131338   1.050   1.676   1.650
 6570SOL    HW231339   0.900   1.691   1.663
 6571SOL     OW31340   3.371   3.496   4.014
 6571SOL    HW131341   3.385   3.483   4.108
 6571SOL    HW231342   3.370   3.591   4.002
 6572SOL     OW31343   2.753   4.119   2.810
 6572SOL    HW131344   2.765   4.208   2.777
 6572SOL    HW231345   2.823   4.069   2.769
 6573SOL     OW31346   3.831   2.515  19.502
 6573SOL    HW131347   3.808   2.537  19.593
 6573SOL    HW231348   3.882   2.435  19.509
 6574SOL     OW31349   0.309   3.627  22.717
 6574SOL    HW131350   0.313   3.604  22.624
 6574SOL    HW231351   0.307   3.723  22.718
 6575SOL     OW31352   0.992   1.908  20.728
 6575SOL    HW131353   0.898   1.888  20.733
 6575SOL    HW231354   1.005   1.976  20.794
 6576SOL     OW31355   3.688   3.311   2.072
 6576SOL    HW131356   3.705   3.395   2.116
 6576SOL    HW231357   3.596   3.317   2.044
 6577SOL     OW31358   0.161   4.526  19.237
 6577SOL    HW131359   0.164   4.516  19.332
 6577SOL    HW231360   0.079   4.572  19.220
 6578SOL     OW31361   2.265   3.649   5.327
 6578SOL    HW131362   2.289   3.556   5.326
 6578SOL    HW231363   2.263   3.674   5.235
 6579SOL     OW31364   3.268   2.952   7.991
 6579SOL    HW131365   3.276   3.033   7.941
 6579SOL    HW231366   3.351   2.906   7.975
 6580SOL     OW31367   1.056   3.294  13.938
 6580SOL    HW131368   1.016   3.381  13.947
 6580SOL    HW231369   1.149   3.312  13.929
 6581SOL     OW31370   2.370   4.025  12.225
 6581SOL    HW131371   2.280   3.992  12.217
 6581SOL    HW231372   2.392   4.056  12.137
 6582SOL     OW31373   2.045   0.518  13.824
 6582SOL    HW131374   2.016   0.483  13.908
 6582SOL    HW231375   1.968   0.515  13.768
 6583SOL     OW31376   3.836   2.484  13.193
 6583SOL    HW131377   3.759   2.466  13.140
 6583SOL    HW231378   3.904   2.507  13.129
 6584SOL     OW31379   1.367   3.163  23.118
 6584SOL    HW131380   1.331   3.211  23.193
 6584SOL    HW231381   1.442   3.115  23.153
 6585SOL     OW31382   2.205   2.976  12.121
 6585SOL    HW131383   2.281   2.927  12.152
 6585SOL    HW231384   2.208   3.058  12.170
 6586SOL     OW31385   2.400   1.342  11.843
 6586SOL    HW131386   2.346   1.310  11.915
 6586SOL    HW231387   2.407   1.436  11.858
 6587SOL     OW31388   4.404   1.717  11.933
 6587SOL    HW131389   4.442   1.754  12.012
 6587SOL    HW231390   4.408   1.623  11.945
 6588SOL     OW31391   4.281   3.186  11.456
 6588SOL    HW131392   4.360   3.219  11.498
 6588SOL    HW231393   4.228   3.151  11.528
 6589SOL     OW31394   3.540   0.405  13.567
 6589SOL    HW131395   3.510   0.389  13.656
 6589SOL    HW231396   3.629   0.370  13.565
 6590SOL     OW31397   4.529   2.437  13.020
 6590SOL    HW131398   4.461   2.472  13.078
 6590SOL    HW231399   4.595   2.507  13.016
 6591SOL     OW31400   3.636   4.131  21.085
 6591SOL    HW131401   3.542   4.147  21.076
 6591SOL    HW231402   3.667   4.117  20.996
 6592SOL     OW31403   3.927   2.774  12.619
 6592SOL    HW131404   3.862   2.802  12.683
 6592SOL    HW231405   3.914   2.679  12.611
 6593SOL     OW31406   2.060   1.271   0.329
 6593SOL    HW131407   2.131   1.307   0.275
 6593SOL    HW231408   2.015   1.347   0.363
 6594SOL     OW31409   2.543   4.323  25.736
 6594SOL    HW131410   2.552   4.367  25.821
 6594SOL    HW231411   2.580   4.236  25.751
 6595SOL     OW31412   0.820   2.679  12.413
 6595SOL    HW131413   0.888   2.739  12.382
 6595SOL    HW231414   0.860   2.634  12.487
 6596SOL     OW31415   3.160   2.219  13.011
 6596SOL    HW131416   3.112   2.213  12.929
 6596SOL    HW231417   3.119   2.291  13.058
 6597SOL     OW31418   2.996   0.848  23.426
 6597SOL    HW131419   3.062   0.851  23.356
 6597SOL    HW231420   2.934   0.918  23.404
 6598SOL     OW31421   0.563   1.374  12.198
 6598SOL    HW131422   0.649   1.340  12.222
 6598SOL    HW231423   0.503   1.300  12.210
 6599SOL     OW31424   1.492   1.676  10.559
 6599SOL    HW131425   1.564   1.628  10.600
 6599SOL    HW231426   1.448   1.719  10.632
 6600SOL     OW31427   3.405   3.386  12.329
 6600SOL    HW131428   3.414   3.374  12.424
 6600SOL    HW231429   3.455   3.465  12.309
 6601SOL     OW31430   1.730   2.259   8.385
 6601SOL    HW131431   1.725   2.170   8.421
 6601SOL    HW231432   1.640   2.291   8.388
 6602SOL     OW31433   1.822   3.325   9.069
 6602SOL    HW131434   1.841   3.253   9.129
 6602SOL    HW231435   1.836   3.288   8.982
 6603SOL     OW31436   3.517   2.593  12.837
 6603SOL    HW131437   3.533   2.684  12.864
 6603SOL    HW231438   3.449   2.600  12.770
 6604SOL     OW31439   3.490   1.057  10.327
 6604SOL    HW131440   3.518   1.144  10.298
 6604SOL    HW231441   3.556   1.030  10.391
 6605SOL     OW31442   4.395   2.655  10.769
 6605SOL    HW131443   4.350   2.616  10.694
 6605SOL    HW231444   4.417   2.580  10.825
 6606SOL     OW31445   0.353   3.078   2.286
 6606SOL    HW131446   0.325   3.113   2.370
 6606SOL    HW231447   0.441   3.042   2.303
 6607SOL     OW31448   0.899   1.182  13.098
 6607SOL    HW131449   0.918   1.094  13.129
 6607SOL    HW231450   0.941   1.239  13.162
 6608SOL     OW31451   2.476   1.783  12.057
 6608SOL    HW131452   2.398   1.760  12.107
 6608SOL    HW231453   2.481   1.878  12.062
 6609SOL     OW31454   3.024   3.290  11.421
 6609SOL    HW131455   2.996   3.336  11.501
 6609SOL    HW231456   3.101   3.240  11.448
 6610SOL     OW31457   4.022   3.368  12.985
 6610SOL    HW131458   3.972   3.392  13.063
 6610SOL    HW231459   3.991   3.428  12.918
 6611SOL     OW31460   2.789   4.282   9.635
 6611SOL    HW131461   2.776   4.375   9.655
 6611SOL    HW231462   2.884   4.271   9.631
 6612SOL     OW31463   3.737   1.957  12.907
 6612SOL    HW131464   3.674   1.885  12.908
 6612SOL    HW231465   3.820   1.917  12.931
 6613SOL     OW31466   3.257   2.090  12.416
 6613SOL    HW131467   3.168   2.086  12.383
 6613SOL    HW231468   3.264   2.176  12.458
 6614SOL     OW31469   0.916   0.304   5.259
 6614SOL    HW131470   0.831   0.346   5.272
 6614SOL    HW231471   0.943   0.277   5.347
 6615SOL     OW31472   3.134   0.187  26.064
 6615SOL    HW131473   3.184   0.115  26.024
 6615SOL    HW231474   3.072   0.213  25.996
 6616SOL     OW31475   2.455   1.789  11.240
 6616SOL    HW131476   2.501   1.845  11.302
 6616SOL    HW231477   2.426   1.848  11.171
 6617SOL     OW31478   3.925   2.625   0.910
 6617SOL    HW131479   3.959   2.676   0.983
 6617SOL    HW231480   3.902   2.690   0.844
 6618SOL     OW31481   4.562   4.682   1.919
 6618SOL    HW131482   4.647   4.637   1.912
 6618SOL    HW231483   4.550   4.695   2.013
 6619SOL     OW31484   1.724   2.639   0.031
 6619SOL    HW131485   1.636   2.673   0.048
 6619SOL    HW231486   1.761   2.624   0.118
 6620SOL     OW31487   3.819   2.553  12.768
 6620SOL    HW131488   3.861   2.527  12.850
 6620SOL    HW231489   3.735   2.590  12.794
 6621SOL     OW31490   4.205   3.070  12.983
 6621SOL    HW131491   4.177   3.127  13.055
 6621SOL    HW231492   4.124   3.048  12.937
 6622SOL     OW31493   2.792   2.801  11.400
 6622SOL    HW131494   2.847   2.875  11.373
 6622SOL    HW231495   2.844   2.724  11.379
 6623SOL     OW31496   2.721   2.472  12.168
 6623SOL    HW131497   2.746   2.447  12.257
 6623SOL    HW231498   2.630   2.442  12.160
 6624SOL     OW31499   3.487   2.107  12.093
 6624SOL    HW131500   3.495   2.098  12.188
 6624SOL    HW231501   3.537   2.034  12.057
 6625SOL     OW31502   0.554   0.563  24.854
 6625SOL    HW131503   0.619   0.561  24.924
 6625SOL    HW231504   0.550   0.655  24.827
 6626SOL     OW31505   1.804   4.433   8.751
 6626SOL    HW131506   1.792   4.379   8.829
 6626SOL    HW231507   1.797   4.523   8.783
 6627SOL     OW31508   1.108   1.580  26.909
 6627SOL    HW131509   1.166   1.576  26.985
 6627SOL    HW231510   1.159   1.625  26.842
 6628SOL     OW31511   4.369   2.883  13.082
 6628SOL    HW131512   4.445   2.912  13.132
 6628SOL    HW231513   4.325   2.964  13.055
 6629SOL     OW31514   4.196   3.068   9.619
 6629SOL    HW131515   4.193   3.153   9.576
 6629SOL    HW231516   4.118   3.022   9.588
 6630SOL     OW31517   4.421   2.161  13.020
 6630SOL    HW131518   4.477   2.134  13.092
 6630SOL    HW231519   4.445   2.252  13.003
 6631SOL     OW31520   4.539   2.676  12.408
 6631SOL    HW131521   4.563   2.686  12.500
 6631SOL    HW231522   4.443   2.675  12.408
 6632SOL     OW31523   1.926   2.866  12.081
 6632SOL    HW131524   1.947   2.776  12.105
 6632SOL    HW231525   2.010   2.911  12.082
 6633SOL     OW31526   3.095   1.161  11.321
 6633SOL    HW131527   3.067   1.073  11.347
 6633SOL    HW231528   3.188   1.164  11.343
 6634SOL     OW31529   3.475   0.326  26.176
 6634SOL    HW131530   3.531   0.403  26.174
 6634SOL    HW231531   3.536   0.252  26.176
 6635SOL     OW31532   2.254   1.847  14.994
 6635SOL    HW131533   2.203   1.920  14.959
 6635SOL    HW231534   2.270   1.790  14.918
 6636SOL     OW31535   2.961   2.995  15.092
 6636SOL    HW131536   3.014   2.915  15.102
 6636SOL    HW231537   3.025   3.066  15.095
 6637SOL     OW31538   3.991   2.613  13.381
 6637SOL    HW131539   4.003   2.552  13.454
 6637SOL    HW231540   3.918   2.576  13.331
 6638SOL     OW31541   1.842   2.145  13.932
 6638SOL    HW131542   1.824   2.227  13.886
 6638SOL    HW231543   1.769   2.134  13.993
 6639SOL     OW31544   2.519   2.607  13.375
 6639SOL    HW131545   2.547   2.653  13.454
 6639SOL    HW231546   2.583   2.538  13.363
 6640SOL     OW31547   1.362   3.060  13.497
 6640SOL    HW131548   1.334   3.102  13.416
 6640SOL    HW231549   1.302   3.093  13.564
 6641SOL     OW31550   1.800   2.504  13.613
 6641SOL    HW131551   1.758   2.564  13.552
 6641SOL    HW231552   1.845   2.561  13.676
 6642SOL     OW31553   2.557   2.234  13.455
 6642SOL    HW131554   2.651   2.248  13.466
 6642SOL    HW231555   2.540   2.253  13.363
 6643SOL     OW31556   1.887   1.672  14.620
 6643SOL    HW131557   1.871   1.705  14.532
 6643SOL    HW231558   1.954   1.604  14.608
 6644SOL     OW31559   3.602   2.288  15.356
 6644SOL    HW131560   3.634   2.260  15.442
 6644SOL    HW231561   3.517   2.245  15.347
 6645SOL     OW31562   2.603   2.503  13.048
 6645SOL    HW131563   2.625   2.504  12.955
 6645SOL    HW231564   2.563   2.589  13.064
 6646SOL     OW31565   2.651   3.320  14.264
 6646SOL    HW131566   2.742   3.294  14.280
 6646SOL    HW231567   2.602   3.238  14.263
 6647SOL     OW31568   2.618   1.639  15.776
 6647SOL    HW131569   2.579   1.658  15.691
 6647SOL    HW231570   2.659   1.554  15.766
 6648SOL     OW31571   2.921   2.651  15.006
 6648SOL    HW131572   2.986   2.676  14.940
 6648SOL    HW231573   2.960   2.679  15.089
 6649SOL     OW31574   2.712   2.651  14.470
 6649SOL    HW131575   2.798   2.660  14.512
 6649SOL    HW231576   2.673   2.574  14.512
 6650SOL     OW31577   2.340   1.681  14.284
 6650SOL    HW131578   2.257   1.728  14.277
 6650SOL    HW231579   2.346   1.629  14.204
 6651SOL     OW31580   2.532   2.783  14.291
 6651SOL    HW131581   2.585   2.761  14.367
 6651SOL    HW231582   2.561   2.722  14.223
 6652SOL     OW31583   1.965   2.229  15.195
 6652SOL    HW131584   2.040   2.240  15.136
 6652SOL    HW231585   1.983   2.147  15.241
 6653SOL     OW31586   0.119   2.722  15.336
 6653SOL    HW131587   0.078   2.736  15.422
 6653SOL    HW231588   0.046   2.724  15.274
 6654SOL     OW31589   3.047   3.271  15.293
 6654SOL    HW131590   3.071   3.363  15.287
 6654SOL    HW231591   3.069   3.235  15.207
 6655SOL     OW31592   2.024   0.878  15.700
 6655SOL    HW131593   1.991   0.867  15.611
 6655SOL    HW231594   2.082   0.954  15.694
 6656SOL     OW31595   3.683   2.465  15.159
 6656SOL    HW131596   3.651   2.396  15.217
 6656SOL    HW231597   3.719   2.531  15.218
 6657SOL     OW31598   1.869   2.286  12.708
 6657SOL    HW131599   1.930   2.218  12.735
 6657SOL    HW231600   1.832   2.254  12.625
 6658SOL     OW31601   3.850   2.378  14.769
 6658SOL    HW131602   3.888   2.403  14.853
 6658SOL    HW231603   3.897   2.298  14.744
 6659SOL     OW31604   2.503   3.220  14.519
 6659SOL    HW131605   2.500   3.187  14.429
 6659SOL    HW231606   2.590   3.197  14.551
 6660SOL     OW31607   2.437   3.800  13.415
 6660SOL    HW131608   2.469   3.727  13.362
 6660SOL    HW231609   2.431   3.765  13.504
 6661SOL     OW31610   3.758   2.547  13.651
 6661SOL    HW131611   3.727   2.463  13.619
 6661SOL    HW231612   3.826   2.526  13.714
 6662SOL     OW31613   2.705   3.462  14.509
 6662SOL    HW131614   2.626   3.516  14.503
 6662SOL    HW231615   2.683   3.382  14.461
 6663SOL     OW31616   3.092   2.151  14.268
 6663SOL    HW131617   3.099   2.061  14.236
 6663SOL    HW231618   3.016   2.186  14.221
 6664SOL     OW31619   2.568   2.261  13.168
 6664SOL    HW131620   2.661   2.241  13.176
 6664SOL    HW231621   2.565   2.346  13.125
 6665SOL     OW31622   2.603   2.863  15.213
 6665SOL    HW131623   2.679   2.913  15.246
 6665SOL    HW231624   2.554   2.927  15.161
 6666SOL     OW31625   2.184   2.266  14.658
 6666SOL    HW131626   2.274   2.261  14.690
 6666SOL    HW231627   2.154   2.354  14.682
 6667SOL     OW31628   0.854   3.126  17.513
 6667SOL    HW131629   0.863   3.051  17.454
 6667SOL    HW231630   0.884   3.201  17.461
 6668SOL     OW31631   3.303   2.781  15.276
 6668SOL    HW131632   3.378   2.802  15.220
 6668SOL    HW231633   3.342   2.747  15.356
 6669SOL     OW31634   2.446   2.444  14.362
 6669SOL    HW131635   2.494   2.490  14.293
 6669SOL    HW231636   2.510   2.432  14.432
 6670SOL     OW31637   1.936   0.843  15.435
 6670SOL    HW131638   1.848   0.820  15.407
 6670SOL    HW231639   1.993   0.809  15.366
 6671SOL     OW31640   4.129   2.427  14.821
 6671SOL    HW131641   4.073   2.450  14.896
 6671SOL    HW231642   4.181   2.353  14.852
 6672SOL     OW31643   2.947   2.498  14.582
 6672SOL    HW131644   3.041   2.493  14.600
 6672SOL    HW231645   2.905   2.493  14.668
 6673SOL     OW31646   1.338   2.224  16.684
 6673SOL    HW131647   1.365   2.136  16.710
 6673SOL    HW231648   1.375   2.235  16.596
 6674SOL     OW31649   1.930   2.204  14.331
 6674SOL    HW131650   2.014   2.242  14.356
 6674SOL    HW231651   1.905   2.148  14.405
 6675SOL     OW31652   2.819   2.250  14.961
 6675SOL    HW131653   2.877   2.270  15.035
 6675SOL    HW231654   2.839   2.160  14.937
 6676SOL     OW31655   2.789   2.468  14.793
 6676SOL    HW131656   2.795   2.396  14.857
 6676SOL    HW231657   2.796   2.547  14.845
 6677SOL     OW31658   3.030   2.753  15.229
 6677SOL    HW131659   3.120   2.769  15.255
 6677SOL    HW231660   2.983   2.740  15.311
 6678SOL     OW31661   2.063   1.891  17.001
 6678SOL    HW131662   2.024   1.811  16.968
 6678SOL    HW231663   2.126   1.916  16.934
 6679SOL     OW31664   2.985   2.788  14.563
 6679SOL    HW131665   3.017   2.704  14.596
 6679SOL    HW231666   2.984   2.846  14.640
 6680SOL     OW31667   3.168   2.323  16.195
 6680SOL    HW131668   3.134   2.400  16.148
 6680SOL    HW231669   3.226   2.359  16.262
 6681SOL     OW31670   1.940   2.494  15.248
 6681SOL    HW131671   2.032   2.511  15.269
 6681SOL    HW231672   1.935   2.400  15.234
 6682SOL     OW31673   3.272   2.977  14.963
 6682SOL    HW131674   3.226   3.049  15.007
 6682SOL    HW231675   3.359   2.977  15.003
 6683SOL     OW31676   3.157   2.561  14.759
 6683SOL    HW131677   3.180   2.612  14.837
 6683SOL    HW231678   3.192   2.473  14.776
 6684SOL     OW31679   3.546   3.043  16.026
 6684SOL    HW131680   3.477   2.988  16.065
 6684SOL    HW231681   3.550   3.015  15.934
 6685SOL     OW31682   3.782   2.396  16.127
 6685SOL    HW131683   3.828   2.386  16.043
 6685SOL    HW231684   3.747   2.485  16.125
 6686SOL     OW31685   2.255   2.620  15.135
 6686SOL    HW131686   2.321   2.611  15.066
 6686SOL    HW231687   2.182   2.666  15.092
 6687SOL     OW31688   2.017   3.457  15.499
 6687SOL    HW131689   2.051   3.547  15.499
 6687SOL    HW231690   2.057   3.416  15.422
 6688SOL     OW31691   3.312   2.398  16.413
 6688SOL    HW131692   3.404   2.371  16.413
 6688SOL    HW231693   3.303   2.453  16.491
 6689SOL     OW31694   2.075   1.473  14.580
 6689SOL    HW131695   2.165   1.505  14.588
 6689SOL    HW231696   2.082   1.394  14.527
 6690SOL     OW31697   2.080   3.032  15.605
 6690SOL    HW131698   2.170   3.064  15.602
 6690SOL    HW231699   2.073   2.976  15.528
 6691SOL     OW31700   3.730   4.453   1.663
 6691SOL    HW131701   3.652   4.400   1.680
 6691SOL    HW231702   3.767   4.469   1.750
 6692SOL     OW31703   1.983   3.432  17.187
 6692SOL    HW131704   1.980   3.508  17.130
 6692SOL    HW231705   2.073   3.429  17.219
 6693SOL     OW31706   2.706   3.935  17.293
 6693SOL    HW131707   2.728   4.014  17.243
 6693SOL    HW231708   2.628   3.959  17.343
 6694SOL     OW31709   2.241   0.700  23.134
 6694SOL    HW131710   2.292   0.673  23.057
 6694SOL    HW231711   2.246   0.795  23.134
 6695SOL     OW31712   2.547   1.301  28.378
 6695SOL    HW131713   2.617   1.323  28.317
 6695SOL    HW231714   2.591   1.282  28.461
 6696SOL     OW31715   4.644   1.265  27.518
 6696SOL    HW131716   4.663   1.203  27.448
 6696SOL    HW231717   4.687   1.229  27.596
 6697SOL     OW31718   2.410   0.586  16.962
 6697SOL    HW131719   2.354   0.662  16.949
 6697SOL    HW231720   2.479   0.596  16.897
 6698SOL     OW31721   2.573   2.847  16.795
 6698SOL    HW131722   2.485   2.876  16.772
 6698SOL    HW231723   2.570   2.751  16.789
 6699SOL     OW31724   3.750   0.287  16.435
 6699SOL    HW131725   3.721   0.371  16.471
 6699SOL    HW231726   3.750   0.300  16.341
 6700SOL     OW31727   2.896   4.739  22.740
 6700SOL    HW131728   2.848   4.780  22.812
 6700SOL    HW231729   2.851   4.656  22.726
 6701SOL     OW31730   3.758   3.006   1.488
 6701SOL    HW131731   3.747   2.918   1.454
 6701SOL    HW231732   3.677   3.051   1.465
 6702SOL     OW31733   2.802   2.432  16.836
 6702SOL    HW131734   2.864   2.380  16.887
 6702SOL    HW231735   2.847   2.447  16.752
 6703SOL     OW31736   2.573   2.583  16.805
 6703SOL    HW131737   2.528   2.521  16.749
 6703SOL    HW231738   2.661   2.547  16.816
 6704SOL     OW31739   0.175   1.005  18.650
 6704SOL    HW131740   0.260   0.981  18.615
 6704SOL    HW231741   0.144   0.927  18.696
 6705SOL     OW31742   0.494   0.299   4.202
 6705SOL    HW131743   0.546   0.222   4.181
 6705SOL    HW231744   0.410   0.284   4.159
 6706SOL     OW31745   2.036   0.899  16.449
 6706SOL    HW131746   1.955   0.949  16.446
 6706SOL    HW231747   2.009   0.810  16.471
 6707SOL     OW31748   2.973   4.737  20.290
 6707SOL    HW131749   2.980   0.046  20.321
 6707SOL    HW231750   2.910   4.696  20.350
 6708SOL     OW31751   0.226   3.321  26.529
 6708SOL    HW131752   0.314   3.356  26.517
 6708SOL    HW231753   0.171   3.375  26.471
 6709SOL     OW31754   3.534   1.363   4.944
 6709SOL    HW131755   3.559   1.455   4.932
 6709SOL    HW231756   3.534   1.351   5.039
 6710SOL     OW31757   2.695   4.727  16.584
 6710SOL    HW131758   2.757   4.663  16.550
 6710SOL    HW231759   2.746   4.781  16.645
 6711SOL     OW31760   1.111   1.443  16.599
 6711SOL    HW131761   1.071   1.438  16.687
 6711SOL    HW231762   1.041   1.415  16.540
 6712SOL     OW31763   3.106   2.625  17.303
 6712SOL    HW131764   3.104   2.720  17.312
 6712SOL    HW231765   3.189   2.606  17.258
 6713SOL     OW31766   0.042   0.420  16.799
 6713SOL    HW131767   0.072   0.424  16.890
 6713SOL    HW231768   4.733   0.387  16.805
 6714SOL     OW31769   3.190   0.092  27.957
 6714SOL    HW131770   3.230   0.025  28.013
 6714SOL    HW231771   3.139   0.041  27.893
 6715SOL     OW31772   4.607   2.376   6.829
 6715SOL    HW131773   4.577   2.413   6.746
 6715SOL    HW231774   4.700   2.359   6.816
 6716SOL     OW31775   0.815   1.358  16.201
 6716SOL    HW131776   0.745   1.307  16.161
 6716SOL    HW231777   0.779   1.447  16.206
 6717SOL     OW31778   2.697   2.489  17.134
 6717SOL    HW131779   2.684   2.467  17.042
 6717SOL    HW231780   2.640   2.564  17.149
 6718SOL     OW31781   0.537   1.037  27.282
 6718SOL    HW131782   0.610   1.024  27.343
 6718SOL    HW231783   0.478   0.963  27.298
 6719SOL     OW31784   4.263   4.455  16.740
 6719SOL    HW131785   4.297   4.544  16.725
 6719SOL    HW231786   4.207   4.438  16.664
 6720SOL     OW31787   1.741   0.065  21.322
 6720SOL    HW131788   1.647   0.078  21.327
 6720SOL    HW231789   1.772   0.073  21.412
 6721SOL     OW31790   1.758   2.409  17.586
 6721SOL    HW131791   1.776   2.389  17.494
 6721SOL    HW231792   1.717   2.330  17.621
 6722SOL     OW31793   2.069   3.072  17.979
 6722SOL    HW131794   2.050   3.140  17.915
 6722SOL    HW231795   2.133   3.112  18.039
 6723SOL     OW31796   2.701   0.845  23.710
 6723SOL    HW131797   2.672   0.884  23.793
 6723SOL    HW231798   2.735   0.759  23.735
 6724SOL     OW31799   4.413   2.752   0.817
 6724SOL    HW131800   4.462   2.680   0.778
 6724SOL    HW231801   4.324   2.742   0.783
 6725SOL     OW31802   1.466   4.777  26.212
 6725SOL    HW131803   1.503   4.689  26.204
 6725SOL    HW231804   1.423   0.012  26.128
 6726SOL     OW31805   2.879   3.298  17.571
 6726SOL    HW131806   2.917   3.377  17.609
 6726SOL    HW231807   2.832   3.329  17.494
 6727SOL     OW31808   4.085   0.704  25.442
 6727SOL    HW131809   4.167   0.680  25.399
 6727SOL    HW231810   4.021   0.640  25.411
 6728SOL     OW31811   2.357   1.882  16.091
 6728SOL    HW131812   2.323   1.941  16.025
 6728SOL    HW231813   2.361   1.797  16.048
 6729SOL     OW31814   2.650   2.999  17.032
 6729SOL    HW131815   2.605   2.955  16.960
 6729SOL    HW231816   2.694   2.928  17.080
 6730SOL     OW31817   2.069   1.965  20.174
 6730SOL    HW131818   2.083   2.039  20.116
 6730SOL    HW231819   2.113   1.989  20.256
 6731SOL     OW31820   3.386   1.629   3.124
 6731SOL    HW131821   3.297   1.593   3.126
 6731SOL    HW231822   3.410   1.627   3.031
 6732SOL     OW31823   1.911   2.581  18.370
 6732SOL    HW131824   1.986   2.621  18.326
 6732SOL    HW231825   1.852   2.556  18.299
 6733SOL     OW31826   4.252   3.022  17.172
 6733SOL    HW131827   4.187   3.085  17.141
 6733SOL    HW231828   4.271   3.050  17.262
 6734SOL     OW31829   2.439   1.055  20.734
 6734SOL    HW131830   2.526   1.048  20.775
 6734SOL    HW231831   2.400   1.132  20.775
 6735SOL     OW31832   4.062   2.757  24.247
 6735SOL    HW131833   4.104   2.842  24.259
 6735SOL    HW231834   4.089   2.730  24.159
 6736SOL     OW31835   3.530   4.252  26.673
 6736SOL    HW131836   3.554   4.210  26.756
 6736SOL    HW231837   3.530   4.346  26.693
 6737SOL     OW31838   4.624   2.356   1.320
 6737SOL    HW131839   4.608   2.290   1.387
 6737SOL    HW231840   4.618   2.439   1.366
 6738SOL     OW31841   1.104   2.779  23.988
 6738SOL    HW131842   1.035   2.806  23.928
 6738SOL    HW231843   1.176   2.750  23.931
 6739SOL     OW31844   1.245   2.627  24.435
 6739SOL    HW131845   1.210   2.713  24.413
 6739SOL    HW231846   1.168   2.573  24.451
 6740SOL     OW31847   1.089   2.627  20.757
 6740SOL    HW131848   1.167   2.599  20.804
 6740SOL    HW231849   1.017   2.610  20.817
 6741SOL     OW31850   2.624   0.008   9.654
 6741SOL    HW131851   2.564   0.083   9.651
 6741SOL    HW231852   2.690   0.032   9.718
 6742SOL     OW31853   0.747   0.007   7.004
 6742SOL    HW131854   0.714   4.773   7.093
 6742SOL    HW231855   0.779   4.702   6.976
 6743SOL     OW31856   0.323   3.601  26.148
 6743SOL    HW131857   0.403   3.575  26.195
 6743SOL    HW231858   0.347   3.682  26.103
 6744SOL     OW31859   3.246   1.763  18.601
 6744SOL    HW131860   3.252   1.747  18.507
 6744SOL    HW231861   3.152   1.758  18.620
 6745SOL     OW31862   2.334   3.520   8.280
 6745SOL    HW131863   2.272   3.556   8.216
 6745SOL    HW231864   2.420   3.535   8.241
 6746SOL     OW31865   0.136   3.227  17.752
 6746SOL    HW131866   0.220   3.193  17.780
 6746SOL    HW231867   0.144   3.322  17.762
 6747SOL     OW31868   1.361   0.913  20.693
 6747SOL    HW131869   1.286   0.896  20.750
 6747SOL    HW231870   1.424   0.844  20.714
 6748SOL     OW31871   1.495   0.725  25.688
 6748SOL    HW131872   1.412   0.720  25.735
 6748SOL    HW231873   1.560   0.695  25.752
 6749SOL     OW31874   2.275   2.919  17.808
 6749SOL    HW131875   2.264   3.003  17.854
 6749SOL    HW231876   2.369   2.914  17.790
 6750SOL     OW31877   0.746   4.438   8.258
 6750SOL    HW131878   0.775   4.486   8.180
 6750SOL    HW231879   0.655   4.463   8.270
 6751SOL     OW31880   2.118   0.291   9.924
 6751SOL    HW131881   2.160   0.377   9.924
 6751SOL    HW231882   2.184   0.232   9.963
 6752SOL     OW31883   3.362   2.117  27.778
 6752SOL    HW131884   3.412   2.060  27.836
 6752SOL    HW231885   3.426   2.182  27.747
 6753SOL     OW31886   0.440   4.673   0.818
 6753SOL    HW131887   0.351   4.649   0.793
 6753SOL    HW231888   0.430   4.718   0.902
 6754SOL     OW31889   0.913   4.583   4.147
 6754SOL    HW131890   0.823   4.594   4.117
 6754SOL    HW231891   0.957   4.666   4.123
 6755SOL     OW31892   3.057   1.126  28.386
 6755SOL    HW131893   3.120   1.114  28.314
 6755SOL    HW231894   3.075   1.215  28.418
 6756SOL     OW31895   2.690   2.748   7.850
 6756SOL    HW131896   2.679   2.656   7.824
 6756SOL    HW231897   2.658   2.798   7.775
 6757SOL     OW31898   1.112   0.761  28.447
 6757SOL    HW131899   1.197   0.799  28.469
 6757SOL    HW231900   1.100   0.779  28.353
 6758SOL     OW31901   1.614   1.673  20.345
 6758SOL    HW131902   1.630   1.582  20.369
 6758SOL    HW231903   1.654   1.725  20.414
 6759SOL     OW31904   4.443   2.275  23.899
 6759SOL    HW131905   4.357   2.239  23.876
 6759SOL    HW231906   4.426   2.333  23.973
 6760SOL     OW31907   1.403   4.527  27.043
 6760SOL    HW131908   1.404   4.606  26.989
 6760SOL    HW231909   1.448   4.461  26.991
 6761SOL     OW31910   4.362   3.475   8.323
 6761SOL    HW131911   4.437   3.528   8.298
 6761SOL    HW231912   4.287   3.521   8.285
 6762SOL     OW31913   0.358   0.651   5.524
 6762SOL    HW131914   0.317   0.635   5.608
 6762SOL    HW231915   0.390   0.741   5.529
 6763SOL     OW31916   2.274   1.190  22.274
 6763SOL    HW131917   2.348   1.246  22.298
 6763SOL    HW231918   2.313   1.105  22.257
 6764SOL     OW31919   3.242   2.279   1.760
 6764SOL    HW131920   3.228   2.283   1.855
 6764SOL    HW231921   3.260   2.369   1.734
 6765SOL     OW31922   4.060   3.977  19.310
 6765SOL    HW131923   4.096   3.890  19.328
 6765SOL    HW231924   4.003   3.963  19.234
 6766SOL     OW31925   2.025   0.580   4.645
 6766SOL    HW131926   1.969   0.502   4.638
 6766SOL    HW231927   2.110   0.551   4.613
 6767SOL     OW31928   3.426   0.583  20.587
 6767SOL    HW131929   3.396   0.661  20.633
 6767SOL    HW231930   3.494   0.615  20.528
 6768SOL     OW31931   3.013   0.447  15.771
 6768SOL    HW131932   3.068   0.369  15.771
 6768SOL    HW231933   2.923   0.414  15.776
 6769SOL     OW31934   2.768   2.480   0.396
 6769SOL    HW131935   2.860   2.455   0.405
 6769SOL    HW231936   2.721   2.397   0.390
 6770SOL     OW31937   1.048   4.232  27.230
 6770SOL    HW131938   1.131   4.185  27.237
 6770SOL    HW231939   0.985   4.165  27.204
 6771SOL     OW31940   2.346   0.415   3.047
 6771SOL    HW131941   2.304   0.348   3.100
 6771SOL    HW231942   2.339   0.495   3.098
 6772SOL     OW31943   3.286   2.790   8.374
 6772SOL    HW131944   3.232   2.868   8.393
 6772SOL    HW231945   3.243   2.720   8.423
 6773SOL     OW31946   2.561   0.234   4.054
 6773SOL    HW131947   2.494   0.167   4.039
 6773SOL    HW231948   2.536   0.275   4.137
 6774SOL     OW31949   2.106   0.155   4.068
 6774SOL    HW131950   2.112   0.242   4.027
 6774SOL    HW231951   2.036   0.164   4.133
 6775SOL     OW31952   2.969   4.572  21.514
 6775SOL    HW131953   3.016   4.538  21.438
 6775SOL    HW231954   3.036   4.619  21.565
 6776SOL     OW31955   2.355   3.058  26.272
 6776SOL    HW131956   2.308   3.077  26.353
 6776SOL    HW231957   2.301   3.096  26.203
 6777SOL     OW31958   4.326   3.702  11.098
 6777SOL    HW131959   4.370   3.725  11.180
 6777SOL    HW231960   4.381   3.633  11.060
 6778SOL     OW31961   4.611   3.120  22.205
 6778SOL    HW131962   4.596   3.141  22.113
 6778SOL    HW231963   4.704   3.098  22.210
 6779SOL     OW31964   1.005   0.808  20.176
 6779SOL    HW131965   1.074   0.745  20.194
 6779SOL    HW231966   0.935   0.787  20.238
 6780SOL     OW31967   2.471   2.226   0.770
 6780SOL    HW131968   2.550   2.258   0.813
 6780SOL    HW231969   2.421   2.185   0.841
 6781SOL     OW31970   0.587   4.135   9.395
 6781SOL    HW131971   0.500   4.111   9.425
 6781SOL    HW231972   0.572   4.205   9.331
 6782SOL     OW31973   2.280   0.993  23.080
 6782SOL    HW131974   2.328   1.068  23.046
 6782SOL    HW231975   2.245   0.950  23.002
 6783SOL     OW31976   3.369   1.843  19.781
 6783SOL    HW131977   3.293   1.804  19.824
 6783SOL    HW231978   3.387   1.923  19.831
 6784SOL     OW31979   3.935   1.455   0.416
 6784SOL    HW131980   3.909   1.544   0.441
 6784SOL    HW231981   3.866   1.426   0.357
 6785SOL     OW31982   0.189   4.532   8.200
 6785SOL    HW131983   0.208   4.536   8.294
 6785SOL    HW231984   0.271   4.558   8.158
 6786SOL     OW31985   4.715   0.929   8.819
 6786SOL    HW131986   4.722   0.994   8.749
 6786SOL    HW231987   4.678   0.852   8.776
 6787SOL     OW31988   0.008   2.089  25.977
 6787SOL    HW131989   0.048   2.022  26.033
 6787SOL    HW231990   4.768   2.042  25.896
 6788SOL     OW31991   2.078   1.814  25.705
 6788SOL    HW131992   2.042   1.779  25.623
 6788SOL    HW231993   2.102   1.904  25.684
 6789SOL     OW31994   3.987   1.027  25.191
 6789SOL    HW131995   3.991   0.959  25.259
 6789SOL    HW231996   4.008   0.981  25.110
 6790SOL     OW31997   3.244   1.379   3.853
 6790SOL    HW131998   3.268   1.289   3.833
 6790SOL    HW231999   3.164   1.394   3.802
 6791SOL     OW32000   2.303   2.771  17.564
 6791SOL    HW132001   2.214   2.743  17.546
 6791SOL    HW232002   2.297   2.820  17.647
 6792SOL     OW32003   1.685   3.794  19.169
 6792SOL    HW132004   1.778   3.814  19.171
 6792SOL    HW232005   1.645   3.869  19.126
 6793SOL     OW32006   1.290   0.700  27.503
 6793SOL    HW132007   1.248   0.726  27.585
 6793SOL    HW232008   1.354   0.770  27.486
 6794SOL     OW32009   2.282   1.977  23.062
 6794SOL    HW132010   2.373   1.954  23.082
 6794SOL    HW232011   2.241   1.988  23.148
 6795SOL     OW32012   4.339   2.368  28.097
 6795SOL    HW132013   4.415   2.401  28.146
 6795SOL    HW232014   4.280   2.335  28.165
 6796SOL     OW32015   2.669   1.833  15.965
 6796SOL    HW132016   2.755   1.824  15.925
 6796SOL    HW232017   2.612   1.777  15.912
 6797SOL     OW32018   3.031   1.560   4.731
 6797SOL    HW132019   3.079   1.478   4.716
 6797SOL    HW232020   2.945   1.545   4.691
 6798SOL     OW32021   3.884   4.559   5.710
 6798SOL    HW132022   3.872   4.504   5.787
 6798SOL    HW232023   3.807   4.541   5.655
 6799SOL     OW32024   4.719   4.570  21.298
 6799SOL    HW132025   4.643   4.547  21.352
 6799SOL    HW232026   4.688   4.643  21.244
 6800SOL     OW32027   3.931   1.139  21.146
 6800SOL    HW132028   3.962   1.229  21.137
 6800SOL    HW232029   4.007   1.085  21.126
 6801SOL     OW32030   4.056   3.060   4.444
 6801SOL    HW132031   4.017   3.146   4.457
 6801SOL    HW232032   4.073   3.055   4.350
 6802SOL     OW32033   2.889   3.502   8.842
 6802SOL    HW132034   2.899   3.474   8.933
 6802SOL    HW232035   2.977   3.501   8.806
 6803SOL     OW32036   3.738   3.978   2.431
 6803SOL    HW132037   3.802   4.045   2.452
 6803SOL    HW232038   3.654   4.024   2.433
 6804SOL     OW32039   1.521   0.884   4.016
 6804SOL    HW132040   1.439   0.917   4.054
 6804SOL    HW232041   1.496   0.802   3.974
 6805SOL     OW32042   4.243   0.596   5.169
 6805SOL    HW132043   4.323   0.563   5.128
 6805SOL    HW232044   4.234   0.544   5.249
 6806SOL     OW32045   4.468   3.339  21.358
 6806SOL    HW132046   4.498   3.392  21.285
 6806SOL    HW232047   4.386   3.300  21.327
 6807SOL     OW32048   0.478   0.060  15.032
 6807SOL    HW132049   0.443   0.031  14.948
 6807SOL    HW232050   0.515   0.147  15.014
 6808SOL     OW32051   0.789   2.152   7.042
 6808SOL    HW132052   0.751   2.067   7.021
 6808SOL    HW232053   0.865   2.159   6.984
 6809SOL     OW32054   0.230   4.625  23.749
 6809SOL    HW132055   0.195   4.614  23.661
 6809SOL    HW232056   0.221   4.539  23.789
 6810SOL     OW32057   0.813   3.510  25.609
 6810SOL    HW132058   0.756   3.510  25.532
 6810SOL    HW232059   0.819   3.418  25.635
 6811SOL     OW32060   2.439   2.012  19.194
 6811SOL    HW132061   2.479   2.081  19.246
 6811SOL    HW232062   2.486   1.933  19.219
 6812SOL     OW32063   1.875   4.763  24.832
 6812SOL    HW132064   1.953   4.715  24.803
 6812SOL    HW232065   1.885   4.770  24.927
 6813SOL     OW32066   3.960   1.917  18.921
 6813SOL    HW132067   3.922   1.831  18.934
 6813SOL    HW232068   4.015   1.932  18.999
 6814SOL     OW32069   3.691   1.173  25.356
 6814SOL    HW132070   3.626   1.146  25.291
 6814SOL    HW232071   3.692   1.269  25.351
 6815SOL     OW32072   4.391   3.155   7.810
 6815SOL    HW132073   4.467   3.166   7.866
 6815SOL    HW232074   4.384   3.237   7.761
 6816SOL     OW32075   1.902   3.000  22.041
 6816SOL    HW132076   1.996   2.981  22.046
 6816SOL    HW232077   1.860   2.922  22.076
 6817SOL     OW32078   4.508   1.859  23.586
 6817SOL    HW132079   4.561   1.925  23.630
 6817SOL    HW232080   4.566   1.819  23.522
 6818SOL     OW32081   0.892   1.920   5.311
 6818SOL    HW132082   0.828   1.956   5.373
 6818SOL    HW232083   0.892   1.826   5.330
 6819SOL     OW32084   1.736   3.450   1.693
 6819SOL    HW132085   1.767   3.467   1.782
 6819SOL    HW232086   1.796   3.384   1.659
 6820SOL     OW32087   2.157   4.761   8.370
 6820SOL    HW132088   2.138   0.037   8.294
 6820SOL    HW232089   2.072   4.726   8.395
 6821SOL     OW32090   3.883   1.257   0.079
 6821SOL    HW132091   3.829   1.194   0.032
 6821SOL    HW232092   3.925   1.206   0.148
 6822SOL     OW32093   3.684   2.208  27.793
 6822SOL    HW132094   3.626   2.243  27.725
 6822SOL    HW232095   3.718   2.285  27.838
 6823SOL     OW32096   2.422   1.502  23.695
 6823SOL    HW132097   2.406   1.431  23.632
 6823SOL    HW232098   2.446   1.577  23.640
 6824SOL     OW32099   0.773   1.458  20.455
 6824SOL    HW132100   0.824   1.383  20.424
 6824SOL    HW232101   0.834   1.532  20.450
 6825SOL     OW32102   0.033   1.704  26.700
 6825SOL    HW132103   0.043   1.743  26.787
 6825SOL    HW232104   4.740   1.750  26.662
 6826SOL     OW32105   3.773   3.754  28.202
 6826SOL    HW132106   3.818   3.698  28.138
 6826SOL    HW232107   3.785   3.710  28.286
 6827SOL     OW32108   0.503   0.813   2.286
 6827SOL    HW132109   0.464   0.836   2.370
 6827SOL    HW232110   0.576   0.873   2.275
 6828SOL     OW32111   3.414   2.950   2.916
 6828SOL    HW132112   3.389   2.858   2.907
 6828SOL    HW232113   3.346   2.998   2.870
 6829SOL     OW32114   1.951   1.864  18.603
 6829SOL    HW132115   1.949   1.779  18.647
 6829SOL    HW232116   2.032   1.862  18.551
 6830SOL     OW32117   0.010   3.644  21.093
 6830SOL    HW132118   0.052   3.588  21.157
 6830SOL    HW232119   0.067   3.641  21.017
 6831SOL     OW32120   2.882   0.615  28.488
 6831SOL    HW132121   2.926   0.589  28.406
 6831SOL    HW232122   2.941   0.585   0.035
 6832SOL     OW32123   2.520   4.184   7.991
 6832SOL    HW132124   2.474   4.100   7.987
 6832SOL    HW232125   2.451   4.250   7.985
 6833SOL     OW32126   2.182   0.192   2.589
 6833SOL    HW132127   2.267   0.149   2.576
 6833SOL    HW232128   2.136   0.180   2.506
 6834SOL     OW32129   3.927   3.759   6.729
 6834SOL    HW132130   3.866   3.794   6.794
 6834SOL    HW232131   3.981   3.834   6.704
 6835SOL     OW32132   1.971   2.607  22.911
 6835SOL    HW132133   1.944   2.696  22.936
 6835SOL    HW232134   1.894   2.553  22.928
 6836SOL     OW32135   1.701   2.739  19.697
 6836SOL    HW132136   1.716   2.650  19.729
 6836SOL    HW232137   1.708   2.731  19.602
 6837SOL     OW32138   3.510   3.657  19.517
 6837SOL    HW132139   3.596   3.621  19.538
 6837SOL    HW232140   3.456   3.580  19.497
 6838SOL     OW32141   2.865   4.470  21.149
 6838SOL    HW132142   2.821   4.395  21.188
 6838SOL    HW232143   2.795   4.532  21.131
 6839SOL     OW32144   2.016   1.603   6.048
 6839SOL    HW132145   2.083   1.624   5.983
 6839SOL    HW232146   1.981   1.518   6.020
 6840SOL     OW32147   2.548   1.864  26.543
 6840SOL    HW132148   2.455   1.885  26.551
 6840SOL    HW232149   2.551   1.770  26.527
 6841SOL     OW32150   3.951   1.874  26.479
 6841SOL    HW132151   3.893   1.863  26.555
 6841SOL    HW232152   3.978   1.785  26.457
 6842SOL     OW32153   4.705   1.509   9.496
 6842SOL    HW132154   4.617   1.498   9.461
 6842SOL    HW232155   4.762   1.486   9.422
 6843SOL     OW32156   3.277   0.334  27.862
 6843SOL    HW132157   3.238   0.253  27.896
 6843SOL    HW232158   3.325   0.307  27.784
 6844SOL     OW32159   3.104   3.186   0.173
 6844SOL    HW132160   3.138   3.197   0.085
 6844SOL    HW232161   3.009   3.199   0.164
 6845SOL     OW32162   4.585   1.587  28.489
 6845SOL    HW132163   4.561   1.559  28.400
 6845SOL    HW232164   4.551   1.676  28.496
 6846SOL     OW32165   3.235   2.673  21.933
 6846SOL    HW132166   3.190   2.752  21.903
 6846SOL    HW232167   3.325   2.702  21.949
 6847SOL     OW32168   2.570   1.278   2.700
 6847SOL    HW132169   2.491   1.275   2.645
 6847SOL    HW232170   2.537   1.300   2.787
 6848SOL     OW32171   4.212   0.640  23.870
 6848SOL    HW132172   4.128   0.678  23.845
 6848SOL    HW232173   4.271   0.660  23.797
 6849SOL     OW32174   3.892   1.385   4.695
 6849SOL    HW132175   3.805   1.359   4.666
 6849SOL    HW232176   3.907   1.471   4.654
 6850SOL     OW32177   4.378   2.061   5.100
 6850SOL    HW132178   4.467   2.070   5.135
 6850SOL    HW232179   4.362   1.967   5.099
 6851SOL     OW32180   2.792   4.223  27.421
 6851SOL    HW132181   2.870   4.272  27.447
 6851SOL    HW232182   2.722   4.289  27.419
 6852SOL     OW32183   1.178   2.410  24.202
 6852SOL    HW132184   1.261   2.439  24.238
 6852SOL    HW232185   1.202   2.350  24.132
 6853SOL     OW32186   2.872   3.415  27.992
 6853SOL    HW132187   2.785   3.455  27.998
 6853SOL    HW232188   2.927   3.468  28.051
 6854SOL     OW32189   1.161   4.654  15.371
 6854SOL    HW132190   1.106   4.731  15.379
 6854SOL    HW232191   1.114   4.596  15.311
 6855SOL     OW32192   4.191   4.553  18.632
 6855SOL    HW132193   4.194   4.647  18.648
 6855SOL    HW232194   4.250   4.540  18.557
 6856SOL     OW32195   2.145   2.734  23.579
 6856SOL    HW132196   2.148   2.800  23.510
 6856SOL    HW232197   2.197   2.773  23.650
 6857SOL     OW32198   3.383   4.118  21.616
 6857SOL    HW132199   3.362   4.119  21.523
 6857SOL    HW232200   3.306   4.155  21.659
 6858SOL     OW32201   2.708   1.964  20.762
 6858SOL    HW132202   2.790   1.918  20.744
 6858SOL    HW232203   2.673   1.985  20.675
 6859SOL     OW32204   4.678   2.144   0.348
 6859SOL    HW132205   4.735   2.130   0.424
 6859SOL    HW232206   4.642   2.057   0.329
 6860SOL     OW32207   0.659   3.986  18.698
 6860SOL    HW132208   0.610   4.061  18.732
 6860SOL    HW232209   0.751   4.009  18.710
 6861SOL     OW32210   3.454   2.739   0.094
 6861SOL    HW132211   3.544   2.749   0.063
 6861SOL    HW232212   3.459   2.668   0.158
 6862SOL     OW32213   1.211   0.529  26.047
 6862SOL    HW132214   1.263   0.569  26.117
 6862SOL    HW232215   1.245   0.569  25.966
 6863SOL     OW32216   1.768   4.651   1.831
 6863SOL    HW132217   1.723   4.680   1.910
 6863SOL    HW232218   1.713   4.581   1.796
 6864SOL     OW32219   4.762   1.347  22.832
 6864SOL    HW132220   0.022   1.293  22.764
 6864SOL    HW232221   0.009   1.436  22.813
 6865SOL     OW32222   1.279   0.156   2.421
 6865SOL    HW132223   1.200   0.107   2.401
 6865SOL    HW232224   1.290   0.215   2.346
 6866SOL     OW32225   0.328   2.081  10.055
 6866SOL    HW132226   0.373   2.097  10.138
 6866SOL    HW232227   0.236   2.069  10.079
 6867SOL     OW32228   1.103   3.552  20.996
 6867SOL    HW132229   1.055   3.519  20.920
 6867SOL    HW232230   1.172   3.608  20.959
 6868SOL     OW32231   2.744   4.757  19.981
 6868SOL    HW132232   2.822   0.031  19.982
 6868SOL    HW232233   2.693   0.004  20.057
 6869SOL     OW32234   3.450   4.546  25.389
 6869SOL    HW132235   3.433   4.452  25.386
 6869SOL    HW232236   3.474   4.569  25.300
 6870SOL     OW32237   1.866   0.554   9.230
 6870SOL    HW132238   1.961   0.567   9.231
 6870SOL    HW232239   1.844   0.530   9.320
 6871SOL     OW32240   3.145   0.989   6.778
 6871SOL    HW132241   3.198   0.969   6.855
 6871SOL    HW232242   3.136   1.084   6.779
 6872SOL     OW32243   3.661   1.544  16.230
 6872SOL    HW132244   3.579   1.566  16.186
 6872SOL    HW232245   3.720   1.616  16.209
 6873SOL     OW32246   0.619   1.015  27.687
 6873SOL    HW132247   0.688   1.074  27.717
 6873SOL    HW232248   0.661   0.961  27.620
 6874SOL     OW32249   3.488   3.616  28.047
 6874SOL    HW132250   3.533   3.546  28.094
 6874SOL    HW232251   3.559   3.673  28.017
 6875SOL     OW32252   2.262   4.207  18.786
 6875SOL    HW132253   2.228   4.163  18.709
 6875SOL    HW232254   2.265   4.139  18.854
 6876SOL     OW32255   2.426   0.212  24.548
 6876SOL    HW132256   2.375   0.285  24.582
 6876SOL    HW232257   2.454   0.163  24.625
 6877SOL     OW32258   0.610   3.412  23.172
 6877SOL    HW132259   0.561   3.474  23.118
 6877SOL    HW232260   0.585   3.326  23.139
 6878SOL     OW32261   2.680   2.421  26.831
 6878SOL    HW132262   2.752   2.391  26.888
 6878SOL    HW232263   2.629   2.480  26.886
 6879SOL     OW32264   0.345   2.094  27.549
 6879SOL    HW132265   0.429   2.102  27.504
 6879SOL    HW232266   0.303   2.179  27.537
 6880SOL     OW32267   2.812   3.993  24.963
 6880SOL    HW132268   2.802   4.075  25.009
 6880SOL    HW232269   2.725   3.974  24.927
 6881SOL     OW32270   3.863   2.718   0.240
 6881SOL    HW132271   3.822   2.728   0.154
 6881SOL    HW232272   3.799   2.756   0.301
 6882SOL     OW32273   1.329   1.407  21.393
 6882SOL    HW132274   1.414   1.401  21.437
 6882SOL    HW232275   1.351   1.407  21.299
 6883SOL     OW32276   0.121   1.565   0.457
 6883SOL    HW132277   0.177   1.496   0.422
 6883SOL    HW232278   0.083   1.527   0.537
 6884SOL     OW32279   2.608   0.606  24.373
 6884SOL    HW132280   2.663   0.568  24.442
 6884SOL    HW232281   2.641   0.696  24.365
 6885SOL     OW32282   4.544   3.084   8.540
 6885SOL    HW132283   4.455   3.099   8.509
 6885SOL    HW232284   4.533   3.060   8.632
 6886SOL     OW32285   3.678   4.138   3.864
 6886SOL    HW132286   3.699   4.137   3.957
 6886SOL    HW232287   3.596   4.088   3.857
 6887SOL     OW32288   0.108   2.834   4.921
 6887SOL    HW132289   0.130   2.754   4.969
 6887SOL    HW232290   0.164   2.901   4.960
 6888SOL     OW32291   2.467   0.758   2.284
 6888SOL    HW132292   2.384   0.739   2.329
 6888SOL    HW232293   2.462   0.708   2.203
 6889SOL     OW32294   2.093   3.970   9.809
 6889SOL    HW132295   2.139   3.902   9.760
 6889SOL    HW232296   2.158   4.039   9.823
 6890SOL     OW32297   4.260   3.011  22.172
 6890SOL    HW132298   4.319   3.027  22.246
 6890SOL    HW232299   4.303   3.052  22.098
 6891SOL     OW32300   1.875   0.652  27.954
 6891SOL    HW132301   1.930   0.586  27.912
 6891SOL    HW232302   1.926   0.682  28.028
 6892SOL     OW32303   2.681   2.142  25.660
 6892SOL    HW132304   2.695   2.086  25.736
 6892SOL    HW232305   2.678   2.231  25.695
 6893SOL     OW32306   3.902   2.708  26.729
 6893SOL    HW132307   3.925   2.709  26.822
 6893SOL    HW232308   3.976   2.667  26.686
 6894SOL     OW32309   2.007   2.164   8.456
 6894SOL    HW132310   1.944   2.094   8.436
 6894SOL    HW232311   1.977   2.239   8.405
 6895SOL     OW32312   1.145   1.996   4.593
 6895SOL    HW132313   1.134   2.032   4.504
 6895SOL    HW232314   1.065   2.022   4.638
 6896SOL     OW32315   1.661   2.095  20.762
 6896SOL    HW132316   1.636   2.184  20.788
 6896SOL    HW232317   1.616   2.038  20.824
 6897SOL     OW32318   0.698   1.408   3.887
 6897SOL    HW132319   0.611   1.445   3.899
 6897SOL    HW232320   0.746   1.431   3.967
 6898SOL     OW32321   0.574   0.956   0.421
 6898SOL    HW132322   0.544   0.932   0.509
 6898SOL    HW232323   0.546   1.046   0.410
 6899SOL     OW32324   4.446   1.019   4.559
 6899SOL    HW132325   4.527   0.969   4.556
 6899SOL    HW232326   4.389   0.970   4.618
 6900SOL     OW32327   3.775   2.092   3.443
 6900SOL    HW132328   3.753   2.185   3.454
 6900SOL    HW232329   3.866   2.092   3.414
 6901SOL     OW32330   1.790   0.942  21.654
 6901SOL    HW132331   1.801   0.864  21.600
 6901SOL    HW232332   1.850   0.930  21.727
 6902SOL     OW32333   4.330   4.612   1.752
 6902SOL    HW132334   4.366   4.550   1.690
 6902SOL    HW232335   4.402   4.628   1.814
 6903SOL     OW32336   2.139   1.416  26.982
 6903SOL    HW132337   2.108   1.330  26.952
 6903SOL    HW232338   2.097   1.478  26.923
 6904SOL     OW32339   4.295   0.133  20.810
 6904SOL    HW132340   4.351   0.062  20.776
 6904SOL    HW232341   4.356   0.193  20.852
 6905SOL     OW32342   0.724   3.485  24.539
 6905SOL    HW132343   0.710   3.486  24.445
 6905SOL    HW232344   0.732   3.577  24.564
 6906SOL     OW32345   0.459   1.091   3.822
 6906SOL    HW132346   0.459   1.150   3.897
 6906SOL    HW232347   0.427   1.144   3.749
 6907SOL     OW32348   3.312   3.929   2.929
 6907SOL    HW132349   3.220   3.954   2.923
 6907SOL    HW232350   3.310   3.833   2.933
 6908SOL     OW32351   3.825   0.793  21.762
 6908SOL    HW132352   3.745   0.838  21.736
 6908SOL    HW232353   3.801   0.742  21.839
 6909SOL     OW32354   3.980   0.665  21.246
 6909SOL    HW132355   4.017   0.743  21.286
 6909SOL    HW232356   3.964   0.689  21.155
 6910SOL     OW32357   1.391   4.767   9.522
 6910SOL    HW132358   1.343   4.688   9.496
 6910SOL    HW232359   1.469   4.734   9.566
 6911SOL     OW32360   0.100   3.004   2.191
 6911SOL    HW132361   0.186   3.031   2.224
 6911SOL    HW232362   0.118   2.975   2.101
 6912SOL     OW32363   1.973   0.790  28.185
 6912SOL    HW132364   1.934   0.728  28.246
 6912SOL    HW232365   1.912   0.864  28.183
 6913SOL     OW32366   3.251   1.930   8.655
 6913SOL    HW132367   3.295   1.949   8.572
 6913SOL    HW232368   3.163   1.902   8.629
 6914SOL     OW32369   0.740   2.458  22.685
 6914SOL    HW132370   0.672   2.468  22.751
 6914SOL    HW232371   0.716   2.378  22.638
 6915SOL     OW32372   3.910   0.736   5.023
 6915SOL    HW132373   3.850   0.799   5.064
 6915SOL    HW232374   3.891   0.743   4.929
 6916SOL     OW32375   4.237   4.733   3.100
 6916SOL    HW132376   4.208   0.024   3.043
 6916SOL    HW232377   4.326   4.759   3.127
 6917SOL     OW32378   1.930   3.861  10.741
 6917SOL    HW132379   1.897   3.935  10.691
 6917SOL    HW232380   2.012   3.892  10.779
 6918SOL     OW32381   1.379   4.188   3.286
 6918SOL    HW132382   1.415   4.222   3.368
 6918SOL    HW232383   1.354   4.266   3.237
 6919SOL     OW32384   4.203   1.481  24.870
 6919SOL    HW132385   4.115   1.446  24.853
 6919SOL    HW232386   4.190   1.575  24.882
 6920SOL     OW32387   3.283   0.815   5.862
 6920SOL    HW132388   3.374   0.842   5.845
 6920SOL    HW232389   3.238   0.829   5.779
 6921SOL     OW32390   0.872   0.216  22.124
 6921SOL    HW132391   0.893   0.123  22.112
 6921SOL    HW232392   0.957   0.259  22.132
 6922SOL     OW32393   0.669   3.802  23.400
 6922SOL    HW132394   0.685   3.795  23.494
 6922SOL    HW232395   0.574   3.807  23.392
 6923SOL     OW32396   2.776   3.237  27.696
 6923SOL    HW132397   2.739   3.321  27.671
 6923SOL    HW232398   2.794   3.193  27.613
 6924SOL     OW32399   2.066   0.053   4.412
 6924SOL    HW132400   1.999   0.121   4.415
 6924SOL    HW232401   2.138   0.088   4.466
 6925SOL     OW32402   2.064   2.783  24.017
 6925SOL    HW132403   1.984   2.739  23.988
 6925SOL    HW232404   2.130   2.713  24.021
 6926SOL     OW32405   2.720   1.586  24.331
 6926SOL    HW132406   2.631   1.604  24.360
 6926SOL    HW232407   2.756   1.530  24.400
 6927SOL     OW32408   4.365   3.809   1.215
 6927SOL    HW132409   4.357   3.724   1.173
 6927SOL    HW232410   4.380   3.870   1.144
 6928SOL     OW32411   0.715   0.594   6.749
 6928SOL    HW132412   0.688   0.629   6.834
 6928SOL    HW232413   0.636   0.554   6.714
 6929SOL     OW32414   3.476   2.011  21.095
 6929SOL    HW132415   3.413   2.077  21.124
 6929SOL    HW232416   3.423   1.947  21.048
 6930SOL     OW32417   3.675   0.371   3.738
 6930SOL    HW132418   3.745   0.305   3.741
 6930SOL    HW232419   3.600   0.325   3.700
 6931SOL     OW32420   4.231   1.411  20.624
 6931SOL    HW132421   4.154   1.413  20.681
 6931SOL    HW232422   4.198   1.438  20.538
 6932SOL     OW32423   0.894   1.726  23.328
 6932SOL    HW132424   0.913   1.656  23.390
 6932SOL    HW232425   0.911   1.807  23.376
 6933SOL     OW32426   4.365   4.516  18.403
 6933SOL    HW132427   4.449   4.541  18.442
 6933SOL    HW232428   4.382   4.433  18.359
 6934SOL     OW32429   2.519   1.004  28.503
 6934SOL    HW132430   2.550   1.086   0.019
 6934SOL    HW232431   2.579   0.987  28.431
 6935SOL     OW32432   1.589   3.801  10.671
 6935SOL    HW132433   1.590   3.757  10.586
 6935SOL    HW232434   1.501   3.839  10.677
 6936SOL     OW32435   2.747   1.991   3.262
 6936SOL    HW132436   2.745   1.953   3.350
 6936SOL    HW232437   2.808   1.935   3.214
 6937SOL     OW32438   3.616   3.509  22.638
 6937SOL    HW132439   3.672   3.551  22.573
 6937SOL    HW232440   3.529   3.508  22.599
 6938SOL     OW32441   0.397   1.032  22.124
 6938SOL    HW132442   0.401   1.112  22.177
 6938SOL    HW232443   0.484   0.993  22.133
 6939SOL     OW32444   4.430   2.327  25.881
 6939SOL    HW132445   4.410   2.261  25.814
 6939SOL    HW232446   4.435   2.277  25.963
 6940SOL     OW32447   2.509   2.892  27.439
 6940SOL    HW132448   2.512   2.807  27.396
 6940SOL    HW232449   2.533   2.954  27.370
 6941SOL     OW32450   4.130   1.741  26.075
 6941SOL    HW132451   4.068   1.690  26.126
 6941SOL    HW232452   4.174   1.798  26.138
 6942SOL     OW32453   1.017   1.496  23.460
 6942SOL    HW132454   0.970   1.418  23.491
 6942SOL    HW232455   1.069   1.465  23.386
 6943SOL     OW32456   2.760   0.304  25.239
 6943SOL    HW132457   2.688   0.261  25.193
 6943SOL    HW232458   2.806   0.234  25.284
 6944SOL     OW32459   1.068   1.883   4.998
 6944SOL    HW132460   1.013   1.811   5.029
 6944SOL    HW232461   1.139   1.888   5.062
 6945SOL     OW32462   1.466   3.222  24.670
 6945SOL    HW132463   1.522   3.292  24.636
 6945SOL    HW232464   1.485   3.219  24.764
 6946SOL     OW32465   3.378   3.386  28.403
 6946SOL    HW132466   3.379   3.332  28.482
 6946SOL    HW232467   3.449   3.352  28.350
 6947SOL     OW32468   4.607   4.093   3.371
 6947SOL    HW132469   4.579   4.013   3.327
 6947SOL    HW232470   4.527   4.145   3.381
 6948SOL     OW32471   4.326   4.000   3.031
 6948SOL    HW132472   4.376   3.949   3.095
 6948SOL    HW232473   4.343   4.091   3.054
 6949SOL     OW32474   0.430   0.689  24.563
 6949SOL    HW132475   0.439   0.738  24.481
 6949SOL    HW232476   0.477   0.607  24.548
 6950SOL     OW32477   4.331   1.185  23.417
 6950SOL    HW132478   4.321   1.155  23.326
 6950SOL    HW232479   4.328   1.104  23.469
 6951SOL     OW32480   1.086   1.814  19.412
 6951SOL    HW132481   0.995   1.836  19.431
 6951SOL    HW232482   1.122   1.788  19.496
 6952SOL     OW32483   4.580   2.200  18.394
 6952SOL    HW132484   4.562   2.111  18.424
 6952SOL    HW232485   4.648   2.232  18.453
 6953SOL     OW32486   0.720   2.227   9.554
 6953SOL    HW132487   0.709   2.188   9.468
 6953SOL    HW232488   0.727   2.152   9.614
 6954SOL     OW32489   3.402   0.282  21.251
 6954SOL    HW132490   3.413   0.320  21.338
 6954SOL    HW232491   3.488   0.247  21.229
 6955SOL     OW32492   1.516   2.599  21.297
 6955SOL    HW132493   1.532   2.517  21.343
 6955SOL    HW232494   1.475   2.656  21.363
 6956SOL     OW32495   4.383   4.071  17.385
 6956SOL    HW132496   4.380   4.014  17.308
 6956SOL    HW232497   4.344   4.153  17.355
 6957SOL     OW32498   0.810   3.531  27.659
 6957SOL    HW132499   0.843   3.477  27.731
 6957SOL    HW232500   0.784   3.468  27.592
 6958SOL     OW32501   4.073   0.075  22.624
 6958SOL    HW132502   4.090   0.164  22.593
 6958SOL    HW232503   4.156   0.029  22.612
 6959SOL     OW32504   3.472   0.600  16.112
 6959SOL    HW132505   3.441   0.604  16.202
 6959SOL    HW232506   3.567   0.609  16.119
 6960SOL     OW32507   1.289   3.960   1.567
 6960SOL    HW132508   1.237   3.881   1.581
 6960SOL    HW232509   1.256   3.997   1.485
 6961SOL     OW32510   1.778   1.725  20.764
 6961SOL    HW132511   1.707   1.774  20.724
 6961SOL    HW232512   1.854   1.745  20.709
 6962SOL     OW32513   2.110   2.455  22.050
 6962SOL    HW132514   2.159   2.375  22.031
 6962SOL    HW232515   2.078   2.443  22.140
 6963SOL     OW32516   1.053   1.663  19.171
 6963SOL    HW132517   1.073   1.609  19.094
 6963SOL    HW232518   0.967   1.633  19.200
 6964SOL     OW32519   2.933   0.886  19.739
 6964SOL    HW132520   2.964   0.902  19.650
 6964SOL    HW232521   2.838   0.895  19.734
 6965SOL     OW32522   3.893   1.182   0.544
 6965SOL    HW132523   3.959   1.135   0.595
 6965SOL    HW232524   3.937   1.261   0.514
 6966SOL     OW32525   3.801   1.091   5.095
 6966SOL    HW132526   3.805   1.187   5.101
 6966SOL    HW232527   3.750   1.074   5.016
 6967SOL     OW32528   3.275   1.683   9.493
 6967SOL    HW132529   3.335   1.668   9.566
 6967SOL    HW232530   3.331   1.718   9.423
 6968SOL     OW32531   1.282   0.462  25.120
 6968SOL    HW132532   1.236   0.530  25.168
 6968SOL    HW232533   1.237   0.381  25.145
 6969SOL     OW32534   2.876   3.794   8.711
 6969SOL    HW132535   2.832   3.776   8.628
 6969SOL    HW232536   2.817   3.760   8.778
 6970SOL     OW32537   2.445   2.203  25.874
 6970SOL    HW132538   2.360   2.236  25.846
 6970SOL    HW232539   2.507   2.270  25.847
 6971SOL     OW32540   2.436   3.144   2.288
 6971SOL    HW132541   2.502   3.150   2.356
 6971SOL    HW232542   2.474   3.086   2.222
 6972SOL     OW32543   3.041   3.853   1.952
 6972SOL    HW132544   3.007   3.796   1.883
 6972SOL    HW232545   3.109   3.905   1.909
 6973SOL     OW32546   1.304   1.960  19.292
 6973SOL    HW132547   1.307   2.052  19.267
 6973SOL    HW232548   1.347   1.957  19.377
 6974SOL     OW32549   0.125   3.631  28.042
 6974SOL    HW132550   0.120   3.535  28.034
 6974SOL    HW232551   0.211   3.647  28.079
 6975SOL     OW32552   0.178   2.618  16.094
 6975SOL    HW132553   0.199   2.601  16.002
 6975SOL    HW232554   0.118   2.693  16.092
 6976SOL     OW32555   3.817   2.841   8.330
 6976SOL    HW132556   3.722   2.832   8.340
 6976SOL    HW232557   3.851   2.752   8.341
 6977SOL     OW32558   0.511   2.915  25.784
 6977SOL    HW132559   0.480   2.830  25.816
 6977SOL    HW232560   0.480   2.920  25.694
 6978SOL     OW32561   0.170   1.180  18.002
 6978SOL    HW132562   0.148   1.113  18.067
 6978SOL    HW232563   0.201   1.131  17.927
 6979SOL     OW32564   1.775   3.236   4.673
 6979SOL    HW132565   1.838   3.165   4.660
 6979SOL    HW232566   1.815   3.312   4.631
 6980SOL     OW32567   1.038   1.581  22.587
 6980SOL    HW132568   1.072   1.574  22.676
 6980SOL    HW232569   0.992   1.498  22.573
 6981SOL     OW32570   1.369   0.918   2.096
 6981SOL    HW132571   1.342   0.982   2.030
 6981SOL    HW232572   1.289   0.871   2.118
 6982SOL     OW32573   3.011   0.110  21.312
 6982SOL    HW132574   3.097   0.077  21.283
 6982SOL    HW232575   2.965   0.130  21.230
 6983SOL     OW32576   4.583   0.138  26.143
 6983SOL    HW132577   4.588   0.213  26.203
 6983SOL    HW232578   4.533   0.171  26.068
 6984SOL     OW32579   4.622   4.647   2.181
 6984SOL    HW132580   4.708   4.665   2.218
 6984SOL    HW232581   4.577   4.597   2.249
 6985SOL     OW32582   0.113   4.414   0.309
 6985SOL    HW132583   0.197   4.439   0.349
 6985SOL    HW232584   0.087   4.491   0.258
 6986SOL     OW32585   1.522   4.330   6.048
 6986SOL    HW132586   1.446   4.346   5.992
 6986SOL    HW232587   1.594   4.375   6.004
 6987SOL     OW32588   4.577   1.884  24.169
 6987SOL    HW132589   4.544   1.928  24.090
 6987SOL    HW232590   4.512   1.815  24.187
 6988SOL     OW32591   1.259   3.400  23.263
 6988SOL    HW132592   1.189   3.457  23.293
 6988SOL    HW232593   1.339   3.441  23.295
 6989SOL     OW32594   1.712   3.416   2.485
 6989SOL    HW132595   1.656   3.489   2.512
 6989SOL    HW232596   1.721   3.363   2.564
 6990SOL     OW32597   0.166   2.927   8.572
 6990SOL    HW132598   0.155   2.871   8.649
 6990SOL    HW232599   0.260   2.944   8.568
 6991SOL     OW32600   1.338   3.656   2.765
 6991SOL    HW132601   1.265   3.695   2.717
 6991SOL    HW232602   1.310   3.655   2.856
 6992SOL     OW32603   1.038   1.953  19.169
 6992SOL    HW132604   1.011   1.948  19.078
 6992SOL    HW232605   0.973   2.009  19.210
 6993SOL     OW32606   2.288   4.192  27.041
 6993SOL    HW132607   2.321   4.169  27.128
 6993SOL    HW232608   2.205   4.145  27.034
 6994SOL     OW32609   4.473   4.483  25.168
 6994SOL    HW132610   4.428   4.567  25.177
 6994SOL    HW232611   4.558   4.497  25.210
 6995SOL     OW32612   4.588   2.380   5.282
 6995SOL    HW132613   4.583   2.430   5.201
 6995SOL    HW232614   4.511   2.408   5.332
 6996SOL     OW32615   3.799   2.350  24.375
 6996SOL    HW132616   3.824   2.431  24.331
 6996SOL    HW232617   3.844   2.281  24.326
 6997SOL     OW32618   4.211   4.633   6.019
 6997SOL    HW132619   4.122   4.641   6.053
 6997SOL    HW232620   4.253   4.715   6.043
 6998SOL     OW32621   0.389   4.623  20.626
 6998SOL    HW132622   0.343   4.569  20.562
 6998SOL    HW232623   0.342   4.608  20.708
 6999SOL     OW32624   2.377   4.719  18.973
 6999SOL    HW132625   2.436   0.013  18.971
 6999SOL    HW232626   2.299   4.748  18.926
 7000SOL     OW32627   3.750   2.325  26.496
 7000SOL    HW132628   3.830   2.300  26.543
 7000SOL    HW232629   3.781   2.385  26.428
 7001SOL     OW32630   1.315   1.667  19.315
 7001SOL    HW132631   1.407   1.672  19.342
 7001SOL    HW232632   1.294   1.573  19.319
 7002SOL     OW32633   1.907   0.152   1.749
 7002SOL    HW132634   1.916   0.070   1.798
 7002SOL    HW232635   1.978   0.207   1.782
 7003SOL     OW32636   1.977   2.179  16.652
 7003SOL    HW132637   1.956   2.086  16.657
 7003SOL    HW232638   1.902   2.218  16.607
 7004SOL     OW32639   3.189   3.400  25.496
 7004SOL    HW132640   3.161   3.372  25.408
 7004SOL    HW232641   3.128   3.355  25.555
 7005SOL     OW32642   0.333   3.421  24.989
 7005SOL    HW132643   0.326   3.458  25.077
 7005SOL    HW232644   0.347   3.497  24.932
 7006SOL     OW32645   1.040   1.302  25.287
 7006SOL    HW132646   1.071   1.216  25.260
 7006SOL    HW232647   1.115   1.339  25.335
 7007SOL     OW32648   3.595   3.797  16.759
 7007SOL    HW132649   3.663   3.783  16.825
 7007SOL    HW232650   3.588   3.712  16.714
 7008SOL     OW32651   2.259   4.104   4.642
 7008SOL    HW132652   2.334   4.150   4.605
 7008SOL    HW232653   2.190   4.169   4.645
 7009SOL     OW32654   4.662   4.446   7.078
 7009SOL    HW132655   4.649   4.456   7.172
 7009SOL    HW232656   4.659   4.351   7.063
 7010SOL     OW32657   4.017   3.781  27.103
 7010SOL    HW132658   4.066   3.834  27.040
 7010SOL    HW232659   3.969   3.717  27.049
 7011SOL     OW32660   4.128   0.358  22.830
 7011SOL    HW132661   4.135   0.295  22.902
 7011SOL    HW232662   4.036   0.384  22.830
 7012SOL     OW32663   0.868   4.262  23.336
 7012SOL    HW132664   0.800   4.235  23.274
 7012SOL    HW232665   0.949   4.229  23.298
 7013SOL     OW32666   1.068   1.198  24.488
 7013SOL    HW132667   1.153   1.190  24.444
 7013SOL    HW232668   1.009   1.229  24.420
 7014SOL     OW32669   4.044   0.020  27.443
 7014SOL    HW132670   4.107   0.088  27.468
 7014SOL    HW232671   3.972   0.031  27.504
 7015SOL     OW32672   2.647   3.251   4.208
 7015SOL    HW132673   2.668   3.185   4.141
 7015SOL    HW232674   2.729   3.297   4.222
 7016SOL     OW32675   3.263   2.318  28.038
 7016SOL    HW132676   3.238   2.294  27.949
 7016SOL    HW232677   3.328   2.388  28.027
 7017SOL     OW32678   4.458   3.652   0.996
 7017SOL    HW132679   4.497   3.612   0.918
 7017SOL    HW232680   4.518   3.723   1.019
 7018SOL     OW32681   3.031   1.169   6.116
 7018SOL    HW132682   3.045   1.203   6.204
 7018SOL    HW232683   3.013   1.076   6.128
 7019SOL     OW32684   4.095   4.407  22.103
 7019SOL    HW132685   4.165   4.417  22.039
 7019SOL    HW232686   4.020   4.453  22.064
 7020SOL     OW32687   1.132   2.224  25.334
 7020SOL    HW132688   1.125   2.280  25.257
 7020SOL    HW232689   1.042   2.214  25.365
 7021SOL     OW32690   0.852   3.958   9.839
 7021SOL    HW132691   0.927   3.941   9.782
 7021SOL    HW232692   0.775   3.936   9.785
 7022SOL     OW32693   3.689   3.338  23.119
 7022SOL    HW132694   3.636   3.402  23.073
 7022SOL    HW232695   3.758   3.315  23.057
 7023SOL     OW32696   0.627   1.172   4.615
 7023SOL    HW132697   0.628   1.211   4.702
 7023SOL    HW232698   0.542   1.128   4.609
 7024SOL     OW32699   0.124   3.741  26.574
 7024SOL    HW132700   0.212   3.774  26.595
 7024SOL    HW232701   0.075   3.750  26.656
 7025SOL     OW32702   2.207   4.407  19.741
 7025SOL    HW132703   2.185   4.336  19.801
 7025SOL    HW232704   2.275   4.457  19.787
 7026SOL     OW32705   1.001   0.343   7.615
 7026SOL    HW132706   1.012   0.381   7.703
 7026SOL    HW232707   1.090   0.317   7.589
 7027SOL     OW32708   0.196   3.430   6.549
 7027SOL    HW132709   0.270   3.459   6.495
 7027SOL    HW232710   0.121   3.431   6.489
 7028SOL     OW32711   0.214   1.245  22.445
 7028SOL    HW132712   0.243   1.284  22.528
 7028SOL    HW232713   0.292   1.245  22.390
 7029SOL     OW32714   0.771   4.219   8.732
 7029SOL    HW132715   0.835   4.176   8.676
 7029SOL    HW232716   0.820   4.290   8.774
 7030SOL     OW32717   1.511   4.099  17.845
 7030SOL    HW132718   1.505   4.017  17.796
 7030SOL    HW232719   1.498   4.167  17.778
 7031SOL     OW32720   1.883   3.662   5.710
 7031SOL    HW132721   1.860   3.582   5.663
 7031SOL    HW232722   1.844   3.649   5.797
 7032SOL     OW32723   4.717   4.659  22.371
 7032SOL    HW132724   4.672   4.595  22.427
 7032SOL    HW232725   0.005   4.695  22.427
 7033SOL     OW32726   4.411   0.722  17.877
 7033SOL    HW132727   4.322   0.695  17.898
 7033SOL    HW232728   4.404   0.814  17.851
 7034SOL     OW32729   0.963   2.943  17.347
 7034SOL    HW132730   1.057   2.952  17.366
 7034SOL    HW232731   0.959   2.871  17.283
 7035SOL     OW32732   1.831   0.138  26.261
 7035SOL    HW132733   1.916   0.113  26.296
 7035SOL    HW232734   1.803   0.062  26.210
 7036SOL     OW32735   0.690   1.996  21.005
 7036SOL    HW132736   0.756   2.064  20.992
 7036SOL    HW232737   0.708   1.931  20.938
 7037SOL     OW32738   2.792   4.736  20.689
 7037SOL    HW132739   2.697   4.750  20.693
 7037SOL    HW232740   2.828   0.019  20.751
 7038SOL     OW32741   3.032   2.399   0.388
 7038SOL    HW132742   3.085   2.347   0.328
 7038SOL    HW232743   3.049   2.490   0.362
 7039SOL     OW32744   1.524   0.795  27.248
 7039SOL    HW132745   1.547   0.851  27.322
 7039SOL    HW232746   1.486   0.854  27.184
 7040SOL     OW32747   4.281   1.061  21.713
 7040SOL    HW132748   4.293   1.090  21.803
 7040SOL    HW232749   4.264   0.967  21.720
 7041SOL     OW32750   2.850   4.585  10.202
 7041SOL    HW132751   2.885   4.512  10.254
 7041SOL    HW232752   2.786   4.544  10.144
 7042SOL     OW32753   3.246   3.385   3.785
 7042SOL    HW132754   3.317   3.402   3.847
 7042SOL    HW232755   3.179   3.341   3.836
 7043SOL     OW32756   2.240   1.943   0.026
 7043SOL    HW132757   2.222   1.854   0.058
 7043SOL    HW232758   2.153   1.982   0.014
 7044SOL     OW32759   4.760   3.998  26.566
 7044SOL    HW132760   4.675   3.962  26.539
 7044SOL    HW232761   4.779   3.955  26.650
 7045SOL     OW32762   1.610   4.750   7.475
 7045SOL    HW132763   1.612   4.655   7.461
 7045SOL    HW232764   1.562   0.003   7.400
 7046SOL     OW32765   4.532   1.655  17.271
 7046SOL    HW132766   4.458   1.608  17.232
 7046SOL    HW232767   4.578   1.693  17.197
 7047SOL     OW32768   1.226   1.984   6.186
 7047SOL    HW132769   1.317   1.966   6.161
 7047SOL    HW232770   1.173   1.932   6.125
 7048SOL     OW32771   2.714   1.090  24.707
 7048SOL    HW132772   2.798   1.059  24.742
 7048SOL    HW232773   2.667   1.010  24.684
 7049SOL     OW32774   2.749   1.764  24.690
 7049SOL    HW132775   2.811   1.825  24.650
 7049SOL    HW232776   2.671   1.770  24.635
 7050SOL     OW32777   0.886   2.321   7.219
 7050SOL    HW132778   0.907   2.377   7.144
 7050SOL    HW232779   0.833   2.251   7.183
 7051SOL     OW32780   4.230   2.885   1.875
 7051SOL    HW132781   4.194   2.965   1.913
 7051SOL    HW232782   4.299   2.859   1.936
 7052SOL     OW32783   2.870   3.645  23.034
 7052SOL    HW132784   2.819   3.670  23.111
 7052SOL    HW232785   2.812   3.663  22.960
 7053SOL     OW32786   1.628   3.639   9.170
 7053SOL    HW132787   1.566   3.566   9.175
 7053SOL    HW232788   1.680   3.632   9.249
 7054SOL     OW32789   4.387   1.653  24.171
 7054SOL    HW132790   4.327   1.662  24.244
 7054SOL    HW232791   4.337   1.606  24.104
 7055SOL     OW32792   0.512   1.189  26.912
 7055SOL    HW132793   0.453   1.192  26.988
 7055SOL    HW232794   0.552   1.276  26.909
 7056SOL     OW32795   0.317   1.764  17.515
 7056SOL    HW132796   0.406   1.796  17.532
 7056SOL    HW232797   0.301   1.786  17.423
 7057SOL     OW32798   2.000   0.444  20.374
 7057SOL    HW132799   2.046   0.460  20.456
 7057SOL    HW232800   1.986   0.349  20.372
 7058SOL     OW32801   0.290   2.659   8.353
 7058SOL    HW132802   0.209   2.679   8.399
 7058SOL    HW232803   0.306   2.736   8.298
 7059SOL     OW32804   0.216   2.639  20.943
 7059SOL    HW132805   0.247   2.593  21.020
 7059SOL    HW232806   0.251   2.590  20.869
 7060SOL     OW32807   1.486   0.671  26.716
 7060SOL    HW132808   1.479   0.756  26.760
 7060SOL    HW232809   1.414   0.671  26.653
 7061SOL     OW32810   2.890   1.728  27.828
 7061SOL    HW132811   2.913   1.736  27.736
 7061SOL    HW232812   2.954   1.666  27.863
 7062SOL     OW32813   3.173   3.815  28.201
 7062SOL    HW132814   3.138   3.902  28.183
 7062SOL    HW232815   3.224   3.793  28.122
 7063SOL     OW32816   1.277   1.824  19.047
 7063SOL    HW132817   1.371   1.807  19.049
 7063SOL    HW232818   1.255   1.822  18.954
 7064SOL     OW32819   1.732   2.614   4.790
 7064SOL    HW132820   1.709   2.585   4.878
 7064SOL    HW232821   1.648   2.642   4.752
 7065SOL     OW32822   2.744   4.334   8.053
 7065SOL    HW132823   2.740   4.418   8.007
 7065SOL    HW232824   2.660   4.293   8.036
 7066SOL     OW32825   0.740   3.002  28.335
 7066SOL    HW132826   0.751   3.087  28.379
 7066SOL    HW232827   0.709   2.943  28.403
 7067SOL     OW32828   0.413   4.273   1.353
 7067SOL    HW132829   0.500   4.281   1.392
 7067SOL    HW232830   0.352   4.283   1.426
 7068SOL     OW32831   4.705   1.087   5.139
 7068SOL    HW132832   4.670   1.162   5.186
 7068SOL    HW232833   4.775   1.124   5.084
 7069SOL     OW32834   0.055   1.799  20.889
 7069SOL    HW132835   0.089   1.710  20.878
 7069SOL    HW232836   0.108   1.836  20.960
 7070SOL     OW32837   1.076   0.859  21.420
 7070SOL    HW132838   1.144   0.904  21.370
 7070SOL    HW232839   1.123   0.802  21.479
 7071SOL     OW32840   2.027   3.215  20.948
 7071SOL    HW132841   2.034   3.288  21.011
 7071SOL    HW232842   1.962   3.245  20.884
 7072SOL     OW32843   1.318   3.922   7.119
 7072SOL    HW132844   1.391   3.922   7.056
 7072SOL    HW232845   1.334   4.000   7.173
 7073SOL     OW32846   1.010   2.133   6.278
 7073SOL    HW132847   1.096   2.109   6.242
 7073SOL    HW232848   0.947   2.093   6.219
 7074SOL     OW32849   2.952   4.405  19.000
 7074SOL    HW132850   3.023   4.408  18.936
 7074SOL    HW232851   2.967   4.323  19.048
 7075SOL     OW32852   0.827   3.205   8.676
 7075SOL    HW132853   0.845   3.298   8.662
 7075SOL    HW232854   0.880   3.160   8.610
 7076SOL     OW32855   1.877   1.506  22.439
 7076SOL    HW132856   1.934   1.430  22.426
 7076SOL    HW232857   1.817   1.504  22.365
 7077SOL     OW32858   2.833   1.643  28.294
 7077SOL    HW132859   2.755   1.637  28.238
 7077SOL    HW232860   2.805   1.606  28.377
 7078SOL     OW32861   0.685   2.524  27.791
 7078SOL    HW132862   0.723   2.497  27.708
 7078SOL    HW232863   0.662   2.442  27.836
 7079SOL     OW32864   3.010   4.201  26.903
 7079SOL    HW132865   3.097   4.177  26.934
 7079SOL    HW232866   2.959   4.215  26.982
 7080SOL     OW32867   1.135   4.081  20.339
 7080SOL    HW132868   1.166   3.991  20.344
 7080SOL    HW232869   1.053   4.080  20.390
 7081SOL     OW32870   2.330   0.409  23.206
 7081SOL    HW132871   2.254   0.351  23.214
 7081SOL    HW232872   2.295   0.488  23.163
 7082SOL     OW32873   1.684   4.210   7.401
 7082SOL    HW132874   1.626   4.162   7.459
 7082SOL    HW232875   1.767   4.215   7.449
 7083SOL     OW32876   3.034   1.308  18.969
 7083SOL    HW132877   3.048   1.392  18.925
 7083SOL    HW232878   2.942   1.287  18.952
 7084SOL     OW32879   2.997   2.871   5.084
 7084SOL    HW132880   3.074   2.917   5.116
 7084SOL    HW232881   3.027   2.823   5.008
 7085SOL     OW32882   4.701   2.040   2.546
 7085SOL    HW132883   4.649   2.007   2.619
 7085SOL    HW232884   4.645   2.031   2.469
 7086SOL     OW32885   0.970   3.760  28.510
 7086SOL    HW132886   0.877   3.760   0.009
 7086SOL    HW232887   0.975   3.796  28.422
 7087SOL     OW32888   1.412   4.708  21.454
 7087SOL    HW132889   1.471   4.672  21.520
 7087SOL    HW232890   1.442   0.017  21.441
 7088SOL     OW32891   4.209   3.957   3.344
 7088SOL    HW132892   4.148   3.927   3.277
 7088SOL    HW232893   4.161   4.026   3.391
 7089SOL     OW32894   1.483   3.584  19.869
 7089SOL    HW132895   1.521   3.544  19.947
 7089SOL    HW232896   1.529   3.668  19.860
 7090SOL     OW32897   3.914   1.731  27.819
 7090SOL    HW132898   3.867   1.652  27.843
 7090SOL    HW232899   3.963   1.708  27.740
 7091SOL     OW32900   4.700   0.047   1.749
 7091SOL    HW132901   4.643   4.759   1.784
 7091SOL    HW232902   4.645   0.125   1.749
 7092SOL     OW32903   2.406   1.761  20.279
 7092SOL    HW132904   2.411   1.711  20.197
 7092SOL    HW232905   2.496   1.780  20.301
 7093SOL     OW32906   3.178   1.755  25.298
 7093SOL    HW132907   3.101   1.812  25.303
 7093SOL    HW232908   3.220   1.763  25.384
 7094SOL     OW32909   1.024   1.485  23.955
 7094SOL    HW132910   0.968   1.498  24.032
 7094SOL    HW232911   1.093   1.426  23.985
 7095SOL     OW32912   4.382   2.974  19.092
 7095SOL    HW132913   4.412   3.046  19.147
 7095SOL    HW232914   4.338   3.016  19.019
 7096SOL     OW32915   1.647   2.027  10.415
 7096SOL    HW132916   1.729   1.993  10.450
 7096SOL    HW232917   1.668   2.052  10.325
 7097SOL     OW32918   4.650   3.286   8.129
 7097SOL    HW132919   4.583   3.237   8.178
 7097SOL    HW232920   4.681   3.224   8.063
 7098SOL     OW32921   2.818   0.571  26.526
 7098SOL    HW132922   2.810   0.515  26.449
 7098SOL    HW232923   2.902   0.546  26.565
 7099SOL     OW32924   0.672   3.213  24.376
 7099SOL    HW132925   0.620   3.161  24.314
 7099SOL    HW232926   0.729   3.266  24.321
 7100SOL     OW32927   1.292   1.782  28.498
 7100SOL    HW132928   1.285   1.727   0.053
 7100SOL    HW232929   1.358   1.738  28.443
 7101SOL     OW32930   0.613   0.505   4.385
 7101SOL    HW132931   0.701   0.515   4.349
 7101SOL    HW232932   0.578   0.428   4.340
 7102SOL     OW32933   4.035   2.859  22.405
 7102SOL    HW132934   3.981   2.809  22.344
 7102SOL    HW232935   3.989   2.943  22.414
 7103SOL     OW32936   1.705   4.385   8.267
 7103SOL    HW132937   1.753   4.343   8.338
 7103SOL    HW232938   1.765   4.382   8.192
 7104SOL     OW32939   3.704   2.107  22.912
 7104SOL    HW132940   3.779   2.079  22.965
 7104SOL    HW232941   3.662   2.176  22.964
 7105SOL     OW32942   0.805   0.479   0.356
 7105SOL    HW132943   0.846   0.418   0.417
 7105SOL    HW232944   0.712   0.460   0.361
 7106SOL     OW32945   3.764   3.152  28.234
 7106SOL    HW132946   3.851   3.151  28.274
 7106SOL    HW232947   3.778   3.189  28.147
 7107SOL     OW32948   0.231   1.420   7.173
 7107SOL    HW132949   0.304   1.362   7.150
 7107SOL    HW232950   0.241   1.436   7.267
 7108SOL     OW32951   2.381   3.882  11.502
 7108SOL    HW132952   2.432   3.939  11.445
 7108SOL    HW232953   2.443   3.815  11.531
 7109SOL     OW32954   3.134   2.646   0.348
 7109SOL    HW132955   3.100   2.735   0.339
 7109SOL    HW232956   3.207   2.655   0.408
 7110SOL     OW32957   0.797   2.505  28.309
 7110SOL    HW132958   0.849   2.578  28.274
 7110SOL    HW232959   0.713   2.544  28.331
 7111SOL     OW32960   1.742   2.212  23.445
 7111SOL    HW132961   1.673   2.186  23.506
 7111SOL    HW232962   1.743   2.308  23.450
 7112SOL     OW32963   0.896   2.798  21.206
 7112SOL    HW132964   0.951   2.743  21.150
 7112SOL    HW232965   0.812   2.802  21.160
 7113SOL     OW32966   4.552   0.351  24.913
 7113SOL    HW132967   4.580   0.385  24.997
 7113SOL    HW232968   4.581   0.417  24.849
 7114SOL     OW32969   0.009   3.574   3.193
 7114SOL    HW132970   0.022   3.481   3.213
 7114SOL    HW232971   0.054   3.620   3.262
 7115SOL     OW32972   0.105   4.474   5.950
 7115SOL    HW132973   0.024   4.460   5.999
 7115SOL    HW232974   0.079   4.532   5.878
 7116SOL     OW32975   0.823   3.606  26.032
 7116SOL    HW132976   0.909   3.605  25.990
 7116SOL    HW232977   0.839   3.571  26.120
 7117SOL     OW32978   2.522   4.351   5.151
 7117SOL    HW132979   2.544   4.438   5.184
 7117SOL    HW232980   2.605   4.316   5.118
 7118SOL     OW32981   0.824   1.271  26.453
 7118SOL    HW132982   0.917   1.250  26.453
 7118SOL    HW232983   0.782   1.194  26.491
 7119SOL     OW32984   3.474   3.008  28.396
 7119SOL    HW132985   3.483   3.042  28.485
 7119SOL    HW232986   3.498   2.916  28.402
 7120SOL     OW32987   3.374   1.407  22.759
 7120SOL    HW132988   3.432   1.395  22.834
 7120SOL    HW232989   3.289   1.377  22.789
 7121SOL     OW32990   4.313   1.638   3.764
 7121SOL    HW132991   4.388   1.692   3.788
 7121SOL    HW232992   4.351   1.563   3.718
 7122SOL     OW32993   0.592   2.898  26.362
 7122SOL    HW132994   0.686   2.914  26.361
 7122SOL    HW232995   0.583   2.815  26.409
 7123SOL     OW32996   0.246   3.910  24.453
 7123SOL    HW132997   0.242   3.915  24.358
 7123SOL    HW232998   0.336   3.934  24.475
 7124SOL     OW32999   3.114   4.241  27.605
 7124SOL    HW133000   3.131   4.203  27.519
 7124SOL    HW233001   3.051   4.182  27.646
 7125SOL     OW33002   0.589   1.529  26.093
 7125SOL    HW133003   0.652   1.518  26.022
 7125SOL    HW233004   0.558   1.620  26.083
 7126SOL     OW33005   2.337   0.807   1.825
 7126SOL    HW133006   2.346   0.899   1.801
 7126SOL    HW233007   2.299   0.764   1.748
 7127SOL     OW33008   3.245   1.482  24.312
 7127SOL    HW133009   3.190   1.461  24.237
 7127SOL    HW233010   3.184   1.492  24.385
 7128SOL     OW33011   0.591   3.567  21.604
 7128SOL    HW133012   0.647   3.506  21.651
 7128SOL    HW233013   0.630   3.572  21.516
 7129SOL     OW33014   1.085   3.352  25.819
 7129SOL    HW133015   1.106   3.439  25.852
 7129SOL    HW233016   0.996   3.335  25.850
 7130SOL     OW33017   1.805   0.132  21.589
 7130SOL    HW133018   1.772   0.200  21.648
 7130SOL    HW233019   1.847   0.069  21.647
 7131SOL     OW33020   2.081   2.751   1.320
 7131SOL    HW133021   2.089   2.844   1.299
 7131SOL    HW233022   2.140   2.738   1.394
 7132SOL     OW33023   4.522   1.788  19.290
 7132SOL    HW133024   4.568   1.855  19.341
 7132SOL    HW233025   4.529   1.819  19.200
 7133SOL     OW33026   0.049   3.414   2.666
 7133SOL    HW133027   4.764   3.438   2.731
 7133SOL    HW233028   0.133   3.430   2.710
 7134SOL     OW33029   4.027   2.956   4.154
 7134SOL    HW133030   3.957   2.947   4.090
 7134SOL    HW233031   4.085   3.022   4.118
 7135SOL     OW33032   3.215   1.844  26.209
 7135SOL    HW133033   3.162   1.784  26.262
 7135SOL    HW233034   3.212   1.927  26.256
 7136SOL     OW33035   4.261   1.831  27.749
 7136SOL    HW133036   4.332   1.768  27.758
 7136SOL    HW233037   4.234   1.850  27.839
 7137SOL     OW33038   0.219   2.061   6.968
 7137SOL    HW133039   0.269   2.080   7.047
 7137SOL    HW233040   0.129   2.085   6.990
 7138SOL     OW33041   1.687   4.571  20.692
 7138SOL    HW133042   1.622   4.619  20.743
 7138SOL    HW233043   1.666   4.479  20.706
 7139SOL     OW33044   1.098   1.169  17.252
 7139SOL    HW133045   1.007   1.163  17.224
 7139SOL    HW233046   1.123   1.260  17.238
 7140SOL     OW33047   2.921   0.573   7.830
 7140SOL    HW133048   2.909   0.657   7.786
 7140SOL    HW233049   2.983   0.526   7.774
 7141SOL     OW33050   2.846   1.322  20.292
 7141SOL    HW133051   2.819   1.342  20.382
 7141SOL    HW233052   2.907   1.393  20.270
 7142SOL     OW33053   4.283   3.816  20.602
 7142SOL    HW133054   4.227   3.888  20.631
 7142SOL    HW233055   4.372   3.849  20.613
 7143SOL     OW33056   3.986   2.119   8.777
 7143SOL    HW133057   3.955   2.198   8.822
 7143SOL    HW233058   3.912   2.058   8.782
 7144SOL     OW33059   1.360   2.633  28.326
 7144SOL    HW133060   1.317   2.707  28.283
 7144SOL    HW233061   1.436   2.614  28.272
 7145SOL     OW33062   1.408   1.157   8.773
 7145SOL    HW133063   1.392   1.250   8.791
 7145SOL    HW233064   1.496   1.142   8.806
 7146SOL     OW33065   0.295   0.367  23.601
 7146SOL    HW133066   0.326   0.413  23.679
 7146SOL    HW233067   0.372   0.320  23.569
 7147SOL     OW33068   4.112   3.951   0.388
 7147SOL    HW133069   4.081   4.022   0.332
 7147SOL    HW233070   4.037   3.892   0.398
 7148SOL     OW33071   3.146   4.669   7.600
 7148SOL    HW133072   3.063   4.684   7.554
 7148SOL    HW233073   3.120   4.629   7.683
 7149SOL     OW33074   4.249   3.944  27.505
 7149SOL    HW133075   4.331   3.975  27.468
 7149SOL    HW233076   4.261   3.850  27.517
 7150SOL     OW33077   2.791   3.915  19.750
 7150SOL    HW133078   2.759   3.998  19.716
 7150SOL    HW233079   2.838   3.875  19.676
 7151SOL     OW33080   3.508   0.403  20.300
 7151SOL    HW133081   3.565   0.479  20.313
 7151SOL    HW233082   3.442   0.411  20.370
 7152SOL     OW33083   2.473   3.232  20.250
 7152SOL    HW133084   2.425   3.204  20.328
 7152SOL    HW233085   2.419   3.203  20.177
 7153SOL     OW33086   2.346   1.362  26.658
 7153SOL    HW133087   2.376   1.400  26.742
 7153SOL    HW233088   2.323   1.439  26.605
 7154SOL     OW33089   3.172   2.100  24.370
 7154SOL    HW133090   3.116   2.132  24.441
 7154SOL    HW233091   3.160   2.006  24.370
 7155SOL     OW33092   3.909   0.592  23.527
 7155SOL    HW133093   3.910   0.683  23.497
 7155SOL    HW233094   3.820   0.579  23.561
 7156SOL     OW33095   1.167   3.401   4.875
 7156SOL    HW133096   1.258   3.421   4.855
 7156SOL    HW233097   1.150   3.319   4.829
 7157SOL     OW33098   2.743   2.059   5.464
 7157SOL    HW133099   2.750   2.075   5.558
 7157SOL    HW233100   2.716   2.144   5.428
 7158SOL     OW33101   3.133   1.831  24.355
 7158SOL    HW133102   3.106   1.775  24.282
 7158SOL    HW233103   3.176   1.771  24.416
 7159SOL     OW33104   2.334   3.862  27.175
 7159SOL    HW133105   2.367   3.773  27.162
 7159SOL    HW233106   2.256   3.850  27.230
 7160SOL     OW33107   3.239   3.858   8.451
 7160SOL    HW133108   3.171   3.900   8.505
 7160SOL    HW233109   3.280   3.930   8.404
 7161SOL     OW33110   3.408   1.851   3.489
 7161SOL    HW133111   3.356   1.922   3.451
 7161SOL    HW233112   3.379   1.846   3.580
 7162SOL     OW33113   4.466   1.023   3.894
 7162SOL    HW133114   4.399   0.984   3.838
 7162SOL    HW233115   4.527   0.951   3.912
 7163SOL     OW33116   4.669   3.808   7.195
 7163SOL    HW133117   4.676   3.754   7.116
 7163SOL    HW233118   4.581   3.846   7.191
 7164SOL     OW33119   0.744   2.569   5.107
 7164SOL    HW133120   0.755   2.644   5.049
 7164SOL    HW233121   0.736   2.607   5.195
 7165SOL     OW33122   0.096   0.559  24.158
 7165SOL    HW133123   0.143   0.485  24.195
 7165SOL    HW233124   0.105   0.628  24.224
 7166SOL     OW33125   1.802   4.208   3.773
 7166SOL    HW133126   1.859   4.271   3.817
 7166SOL    HW233127   1.736   4.186   3.839
 7167SOL     OW33128   4.533   0.474   7.133
 7167SOL    HW133129   4.456   0.428   7.100
 7167SOL    HW233130   4.503   0.563   7.152
 7168SOL     OW33131   0.117   2.951  26.716
 7168SOL    HW133132   0.044   3.014  26.717
 7168SOL    HW233133   0.157   2.959  26.802
 7169SOL     OW33134   2.524   0.275  28.009
 7169SOL    HW133135   2.591   0.330  27.970
 7169SOL    HW233136   2.568   0.232  28.082
 7170SOL     OW33137   3.420   4.364  21.250
 7170SOL    HW133138   3.395   4.394  21.337
 7170SOL    HW233139   3.444   4.272  21.263
 7171SOL     OW33140   1.271   4.646  27.824
 7171SOL    HW133141   1.359   4.681  27.809
 7171SOL    HW233142   1.212   4.716  27.797
 7172SOL     OW33143   0.730   2.980   5.036
 7172SOL    HW133144   0.706   3.058   5.085
 7172SOL    HW233145   0.651   2.925   5.039
 7173SOL     OW33146   4.530   3.030   3.497
 7173SOL    HW133147   4.601   3.083   3.533
 7173SOL    HW233148   4.493   3.084   3.427
 7174SOL     OW33149   4.608   0.516   6.444
 7174SOL    HW133150   4.536   0.579   6.447
 7174SOL    HW233151   4.664   0.546   6.373
 7175SOL     OW33152   0.430   4.388  27.405
 7175SOL    HW133153   0.402   4.471  27.443
 7175SOL    HW233154   0.470   4.412  27.322
 7176SOL     OW33155   0.691   3.908   1.532
 7176SOL    HW133156   0.772   3.878   1.491
 7176SOL    HW233157   0.631   3.922   1.459
 7177SOL     OW33158   1.821   3.717   4.532
 7177SOL    HW133159   1.876   3.742   4.458
 7177SOL    HW233160   1.745   3.774   4.526
 7178SOL     OW33161   0.615   3.025   8.168
 7178SOL    HW133162   0.589   2.947   8.119
 7178SOL    HW233163   0.596   3.003   8.259
 7179SOL     OW33164   0.788   1.295   7.822
 7179SOL    HW133165   0.742   1.240   7.758
 7179SOL    HW233166   0.813   1.373   7.774
 7180SOL     OW33167   3.361   0.262   1.569
 7180SOL    HW133168   3.377   0.356   1.581
 7180SOL    HW233169   3.432   0.231   1.513
 7181SOL     OW33170   1.381   1.746  19.721
 7181SOL    HW133171   1.435   1.810  19.676
 7181SOL    HW233172   1.357   1.788  19.804
 7182SOL     OW33173   4.564   1.810   9.009
 7182SOL    HW133174   4.502   1.849   9.071
 7182SOL    HW233175   4.631   1.876   8.997
 7183SOL     OW33176   2.753   4.576   0.379
 7183SOL    HW133177   2.797   4.501   0.340
 7183SOL    HW233178   2.804   4.652   0.349
 7184SOL     OW33179   0.234   4.405   3.300
 7184SOL    HW133180   0.283   4.386   3.380
 7184SOL    HW233181   0.286   4.472   3.255
 7185SOL     OW33182   3.523   2.529   4.945
 7185SOL    HW133183   3.468   2.545   4.868
 7185SOL    HW233184   3.467   2.481   5.005
 7186SOL     OW33185   2.185   2.906  22.082
 7186SOL    HW133186   2.230   2.968  22.026
 7186SOL    HW233187   2.189   2.823  22.034
 7187SOL     OW33188   4.664   1.844   0.560
 7187SOL    HW133189   4.606   1.909   0.600
 7187SOL    HW233190   4.633   1.760   0.596
 7188SOL     OW33191   4.628   2.720   6.036
 7188SOL    HW133192   4.666   2.805   6.057
 7188SOL    HW233193   4.619   2.720   5.941
 7189SOL     OW33194   0.033   3.074  25.872
 7189SOL    HW133195   0.074   3.007  25.927
 7189SOL    HW233196   4.767   3.130  25.934
 7190SOL     OW33197   2.839   3.559   7.396
 7190SOL    HW133198   2.831   3.555   7.491
 7190SOL    HW233199   2.795   3.640   7.371
 7191SOL     OW33200   3.435   1.632  17.843
 7191SOL    HW133201   3.457   1.578  17.919
 7191SOL    HW233202   3.472   1.585  17.768
 7192SOL     OW33203   2.221   2.247  10.491
 7192SOL    HW133204   2.280   2.183  10.531
 7192SOL    HW233205   2.208   2.215  10.402
 7193SOL     OW33206   3.049   2.476  27.229
 7193SOL    HW133207   3.114   2.544  27.208
 7193SOL    HW233208   3.085   2.431  27.305
 7194SOL     OW33209   0.620   0.442   6.245
 7194SOL    HW133210   0.630   0.398   6.161
 7194SOL    HW233211   0.691   0.409   6.299
 7195SOL     OW33212   4.587   1.064  26.250
 7195SOL    HW133213   4.526   1.108  26.310
 7195SOL    HW233214   4.637   1.135  26.210
 7196SOL     OW33215   3.835   2.524   8.042
 7196SOL    HW133216   3.893   2.568   7.979
 7196SOL    HW233217   3.750   2.566   8.030
 7197SOL     OW33218   0.330   1.094   8.718
 7197SOL    HW133219   0.300   1.024   8.775
 7197SOL    HW233220   0.405   1.057   8.671
 7198SOL     OW33221   2.921   3.135  26.200
 7198SOL    HW133222   2.909   3.222  26.162
 7198SOL    HW233223   3.011   3.111  26.175
 7199SOL     OW33224   3.615   4.326   3.337
 7199SOL    HW133225   3.576   4.283   3.413
 7199SOL    HW233226   3.649   4.255   3.283
 7200SOL     OW33227   4.295   0.432  19.695
 7200SOL    HW133228   4.279   0.424  19.789
 7200SOL    HW233229   4.246   0.511  19.669
 7201SOL     OW33230   0.948   1.156   6.707
 7201SOL    HW133231   0.970   1.249   6.697
 7201SOL    HW233232   0.996   1.129   6.785
 7202SOL     OW33233   2.018   1.714  26.600
 7202SOL    HW133234   1.986   1.804  26.596
 7202SOL    HW233235   2.005   1.688  26.691
 7203SOL     OW33236   0.278   2.367   5.212
 7203SOL    HW133237   0.241   2.437   5.159
 7203SOL    HW233238   0.310   2.412   5.291
 7204SOL     OW33239   4.500   1.887  17.554
 7204SOL    HW133240   4.427   1.844  17.510
 7204SOL    HW233241   4.550   1.815  17.593
 7205SOL     OW33242   3.741   1.154   8.601
 7205SOL    HW133243   3.704   1.128   8.518
 7205SOL    HW233244   3.744   1.250   8.598
 7206SOL     OW33245   2.349   4.420  24.045
 7206SOL    HW133246   2.259   4.447  24.059
 7206SOL    HW233247   2.393   4.437  24.129
 7207SOL     OW33248   4.339   3.114  20.944
 7207SOL    HW133249   4.253   3.113  20.901
 7207SOL    HW233250   4.344   3.199  20.987
 7208SOL     OW33251   0.581   1.225  18.716
 7208SOL    HW133252   0.649   1.256  18.775
 7208SOL    HW233253   0.552   1.142  18.755
 7209SOL     OW33254   1.212   2.621  23.303
 7209SOL    HW133255   1.289   2.571  23.275
 7209SOL    HW233256   1.138   2.561  23.287
 7210SOL     OW33257   3.323   1.509   6.131
 7210SOL    HW133258   3.388   1.547   6.191
 7210SOL    HW233259   3.239   1.541   6.164
 7211SOL     OW33260   4.184   0.597   5.641
 7211SOL    HW133261   4.218   0.676   5.685
 7211SOL    HW233262   4.093   0.619   5.621
 7212SOL     OW33263   4.276   4.434  21.842
 7212SOL    HW133264   4.368   4.427  21.819
 7212SOL    HW233265   4.238   4.491  21.776
 7213SOL     OW33266   1.600   2.778  23.007
 7213SOL    HW133267   1.692   2.801  22.998
 7213SOL    HW233268   1.581   2.724  22.931
 7214SOL     OW33269   0.044   4.235  20.397
 7214SOL    HW133270   4.750   4.257  20.454
 7214SOL    HW233271   0.004   4.208  20.314
 7215SOL     OW33272   1.085   2.658  19.210
 7215SOL    HW133273   1.106   2.646  19.117
 7215SOL    HW233274   0.992   2.634  19.216
 7216SOL     OW33275   2.152   4.499  27.207
 7216SOL    HW133276   2.212   4.574  27.210
 7216SOL    HW233277   2.075   4.528  27.256
 7217SOL     OW33278   4.164   3.277  22.477
 7217SOL    HW133279   4.248   3.258  22.435
 7217SOL    HW233280   4.100   3.229  22.424
 7218SOL     OW33281   0.203   1.335   2.190
 7218SOL    HW133282   0.122   1.373   2.225
 7218SOL    HW233283   0.210   1.370   2.101
 7219SOL     OW33284   4.347   2.642   0.418
 7219SOL    HW133285   4.256   2.671   0.406
 7219SOL    HW233286   4.399   2.722   0.406
 7220SOL     OW33287   0.369   2.769   7.873
 7220SOL    HW133288   0.376   2.799   7.782
 7220SOL    HW233289   0.364   2.850   7.924
 7221SOL     OW33290   3.808   0.861  19.448
 7221SOL    HW133291   3.778   0.794  19.386
 7221SOL    HW233292   3.851   0.927  19.393
 7222SOL     OW33293   3.132   0.509   5.424
 7222SOL    HW133294   3.095   0.597   5.416
 7222SOL    HW233295   3.225   0.523   5.439
 7223SOL     OW33296   1.304   4.652  23.094
 7223SOL    HW133297   1.295   4.569  23.047
 7223SOL    HW233298   1.329   4.626  23.182
 7224SOL     OW33299   0.303   1.847   3.861
 7224SOL    HW133300   0.396   1.846   3.839
 7224SOL    HW233301   0.261   1.885   3.784
 7225SOL     OW33302   1.149   3.357  24.782
 7225SOL    HW133303   1.061   3.372  24.817
 7225SOL    HW233304   1.135   3.325  24.693
 7226SOL     OW33305   1.222   4.354  21.161
 7226SOL    HW133306   1.154   4.419  21.142
 7226SOL    HW233307   1.176   4.283  21.206
 7227SOL     OW33308   0.909   2.025   4.741
 7227SOL    HW133309   0.912   1.950   4.800
 7227SOL    HW233310   0.816   2.047   4.736
 7228SOL     OW33311   2.375   4.556  19.194
 7228SOL    HW133312   2.360   4.609  19.117
 7228SOL    HW233313   2.369   4.465  19.163
 7229SOL     OW33314   0.562   4.496   7.187
 7229SOL    HW133315   0.510   4.535   7.258
 7229SOL    HW233316   0.508   4.509   7.109
 7230SOL     OW33317   3.774   3.662   4.175
 7230SOL    HW133318   3.815   3.582   4.143
 7230SOL    HW233319   3.769   3.651   4.270
 7231SOL     OW33320   3.000   1.404  22.571
 7231SOL    HW133321   3.037   1.438  22.653
 7231SOL    HW233322   2.983   1.482  22.518
 7232SOL     OW33323   0.047   2.856  23.076
 7232SOL    HW133324   0.101   2.829  23.150
 7232SOL    HW233325   0.100   2.921  23.030
 7233SOL     OW33326   2.932   1.501   1.780
 7233SOL    HW133327   2.872   1.453   1.838
 7233SOL    HW233328   2.900   1.591   1.781
 7234SOL     OW33329   2.510   1.253  24.365
 7234SOL    HW133330   2.531   1.309  24.440
 7234SOL    HW233331   2.500   1.313  24.292
 7235SOL     OW33332   2.542   4.167   9.990
 7235SOL    HW133333   2.527   4.238  10.053
 7235SOL    HW233334   2.482   4.098  10.017
 7236SOL     OW33335   0.035   2.422  23.119
 7236SOL    HW133336   4.740   2.442  23.064
 7236SOL    HW233337   0.102   2.395  23.056
 7237SOL     OW33338   0.366   3.472  21.772
 7237SOL    HW133339   0.413   3.467  21.690
 7237SOL    HW233340   0.359   3.566  21.790
 7238SOL     OW33341   2.606   3.530  10.536
 7238SOL    HW133342   2.611   3.511  10.630
 7238SOL    HW233343   2.530   3.481  10.506
 7239SOL     OW33344   0.558   0.272  20.201
 7239SOL    HW133345   0.640   0.316  20.225
 7239SOL    HW233346   0.584   0.205  20.138
 7240SOL     OW33347   4.540   0.122  28.123
 7240SOL    HW133348   4.552   0.197  28.182
 7240SOL    HW233349   4.556   0.046  28.179
 7241SOL     OW33350   4.459   2.292  22.301
 7241SOL    HW133351   4.444   2.377  22.344
 7241SOL    HW233352   4.554   2.283  22.298
 7242SOL     OW33353   3.918   4.213  24.239
 7242SOL    HW133354   3.991   4.177  24.189
 7242SOL    HW233355   3.892   4.142  24.298
 7243SOL     OW33356   2.611   3.730  10.308
 7243SOL    HW133357   2.585   3.673  10.236
 7243SOL    HW233358   2.533   3.782  10.327
 7244SOL     OW33359   0.163   3.340  26.198
 7244SOL    HW133360   0.189   3.431  26.210
 7244SOL    HW233361   0.225   3.305  26.134
 7245SOL     OW33362   4.437   0.591  24.284
 7245SOL    HW133363   4.471   0.596  24.195
 7245SOL    HW233364   4.345   0.566  24.273
 7246SOL     OW33365   0.252   0.723  18.913
 7246SOL    HW133366   0.227   0.694  18.825
 7246SOL    HW233367   0.348   0.719  18.912
 7247SOL     OW33368   3.741   3.224   9.867
 7247SOL    HW133369   3.814   3.272   9.829
 7247SOL    HW233370   3.706   3.283   9.934
 7248SOL     OW33371   3.497   2.244  21.723
 7248SOL    HW133372   3.476   2.284  21.807
 7248SOL    HW233373   3.592   2.254  21.715
 7249SOL     OW33374   3.341   0.126   2.085
 7249SOL    HW133375   3.329   0.126   1.990
 7249SOL    HW233376   3.255   0.106   2.120
 7250SOL     OW33377   3.120   3.791   4.325
 7250SOL    HW133378   3.045   3.776   4.383
 7250SOL    HW233379   3.192   3.810   4.385
 7251SOL     OW33380   4.696   2.772   3.620
 7251SOL    HW133381   4.632   2.842   3.634
 7251SOL    HW233382   4.717   2.777   3.527
 7252SOL     OW33383   0.551   3.443   0.299
 7252SOL    HW133384   0.587   3.355   0.290
 7252SOL    HW233385   0.542   3.455   0.394
 7253SOL     OW33386   4.165   4.635  19.836
 7253SOL    HW133387   4.242   4.613  19.887
 7253SOL    HW233388   4.199   4.655  19.748
 7254SOL     OW33389   0.404   4.748  21.097
 7254SOL    HW133390   0.346   4.770  21.169
 7254SOL    HW233391   0.442   0.051  21.069
 7255SOL     OW33392   2.192   3.072  19.820
 7255SOL    HW133393   2.244   3.140  19.862
 7255SOL    HW233394   2.148   3.116  19.747
 7256SOL     OW33395   3.816   2.024  27.572
 7256SOL    HW133396   3.789   2.074  27.649
 7256SOL    HW233397   3.897   1.980  27.599
 7257SOL     OW33398   0.178   3.430   1.660
 7257SOL    HW133399   0.173   3.335   1.656
 7257SOL    HW233400   0.232   3.455   1.585
 7258SOL     OW33401   1.252   4.454   9.084
 7258SOL    HW133402   1.230   4.367   9.115
 7258SOL    HW233403   1.266   4.443   8.990
 7259SOL     OW33404   4.532   2.762  19.853
 7259SOL    HW133405   4.482   2.685  19.827
 7259SOL    HW233406   4.494   2.833  19.801
 7260SOL     OW33407   3.322   0.603   9.096
 7260SOL    HW133408   3.325   0.522   9.146
 7260SOL    HW233409   3.345   0.577   9.007
 7261SOL     OW33410   4.141   2.846  26.179
 7261SOL    HW133411   4.085   2.768  26.185
 7261SOL    HW233412   4.191   2.834  26.098
 7262SOL     OW33413   1.322   1.422  20.132
 7262SOL    HW133414   1.296   1.393  20.045
 7262SOL    HW233415   1.408   1.380  20.146
 7263SOL     OW33416   0.944   0.369  20.750
 7263SOL    HW133417   1.022   0.353  20.804
 7263SOL    HW233418   0.876   0.315  20.790
 7264SOL     OW33419   3.672   2.983   5.726
 7264SOL    HW133420   3.685   2.915   5.660
 7264SOL    HW233421   3.578   2.984   5.742
 7265SOL     OW33422   1.412   0.848   8.755
 7265SOL    HW133423   1.390   0.941   8.766
 7265SOL    HW233424   1.343   0.801   8.802
 7266SOL     OW33425   3.508   1.656  27.151
 7266SOL    HW133426   3.477   1.590  27.088
 7266SOL    HW233427   3.512   1.609  27.234
 7267SOL     OW33428   4.523   1.414  23.505
 7267SOL    HW133429   4.578   1.389  23.579
 7267SOL    HW233430   4.485   1.332  23.474
 7268SOL     OW33431   1.685   0.165  10.818
 7268SOL    HW133432   1.714   0.216  10.894
 7268SOL    HW233433   1.609   0.116  10.850
 7269SOL     OW33434   0.683   2.055  21.482
 7269SOL    HW133435   0.601   2.014  21.511
 7269SOL    HW233436   0.656   2.138  21.444
 7270SOL     OW33437   0.576   2.935   3.516
 7270SOL    HW133438   0.486   2.958   3.490
 7270SOL    HW233439   0.587   2.976   3.602
 7271SOL     OW33440   0.824   0.000  24.560
 7271SOL    HW133441   0.744   4.761  24.512
 7271SOL    HW233442   0.878   0.049  24.497
 7272SOL     OW33443   3.276   4.418   1.066
 7272SOL    HW133444   3.184   4.394   1.080
 7272SOL    HW233445   3.273   4.510   1.040
 7273SOL     OW33446   2.815   2.200   6.654
 7273SOL    HW133447   2.862   2.280   6.680
 7273SOL    HW233448   2.740   2.232   6.603
 7274SOL     OW33449   3.434   1.406   5.623
 7274SOL    HW133450   3.422   1.453   5.706
 7274SOL    HW233451   3.359   1.432   5.570
 7275SOL     OW33452   1.284   4.175  25.358
 7275SOL    HW133453   1.308   4.265  25.334
 7275SOL    HW233454   1.192   4.167  25.331
 7276SOL     OW33455   1.293   2.620   1.099
 7276SOL    HW133456   1.242   2.680   1.153
 7276SOL    HW233457   1.280   2.651   1.009
 7277SOL     OW33458   0.987   0.653  25.975
 7277SOL    HW133459   1.026   0.740  25.980
 7277SOL    HW233460   1.060   0.592  25.983
 7278SOL     OW33461   0.687   2.773  21.023
 7278SOL    HW133462   0.603   2.816  21.037
 7278SOL    HW233463   0.699   2.774  20.928
 7279SOL     OW33464   2.928   0.438  27.499
 7279SOL    HW133465   2.976   0.423  27.580
 7279SOL    HW233466   2.987   0.492  27.446
 7280SOL     OW33467   0.496   1.854  28.128
 7280SOL    HW133468   0.403   1.849  28.104
 7280SOL    HW233469   0.496   1.875  28.221
 7281SOL     OW33470   3.840   3.880   3.424
 7281SOL    HW133471   3.906   3.935   3.381
 7281SOL    HW233472   3.796   3.939   3.485
 7282SOL     OW33473   4.459   4.712   4.147
 7282SOL    HW133474   4.506   4.640   4.105
 7282SOL    HW233475   4.385   4.730   4.090
 7283SOL     OW33476   1.986   1.098   4.815
 7283SOL    HW133477   2.011   1.017   4.771
 7283SOL    HW233478   2.069   1.143   4.833
 7284SOL     OW33479   1.565   3.357  21.117
 7284SOL    HW133480   1.581   3.407  21.037
 7284SOL    HW233481   1.475   3.379  21.141
 7285SOL     OW33482   0.716   3.526  11.308
 7285SOL    HW133483   0.716   3.510  11.213
 7285SOL    HW233484   0.806   3.552  11.328
 7286SOL     OW33485   1.618   3.671  19.440
 7286SOL    HW133486   1.597   3.703  19.352
 7286SOL    HW233487   1.694   3.723  19.467
 7287SOL     OW33488   2.112   0.703   7.863
 7287SOL    HW133489   2.188   0.711   7.807
 7287SOL    HW233490   2.130   0.762   7.937
 7288SOL     OW33491   2.886   2.742   6.616
 7288SOL    HW133492   2.836   2.804   6.563
 7288SOL    HW233493   2.962   2.791   6.646
 7289SOL     OW33494   3.714   1.845  22.865
 7289SOL    HW133495   3.705   1.940  22.852
 7289SOL    HW233496   3.756   1.814  22.785
 7290SOL     OW33497   0.263   1.049  22.916
 7290SOL    HW133498   0.195   1.021  22.977
 7290SOL    HW233499   0.263   1.145  22.922
 7291SOL     OW33500   3.331   3.213   0.356
 7291SOL    HW133501   3.329   3.119   0.373
 7291SOL    HW233502   3.262   3.227   0.291
 7292SOL     OW33503   1.191   0.597   3.173
 7292SOL    HW133504   1.177   0.681   3.129
 7292SOL    HW233505   1.109   0.579   3.219
 7293SOL     OW33506   3.474   2.712   6.266
 7293SOL    HW133507   3.449   2.633   6.314
 7293SOL    HW233508   3.544   2.751   6.317
 7294SOL     OW33509   4.330   2.324  25.213
 7294SOL    HW133510   4.379   2.368  25.281
 7294SOL    HW233511   4.333   2.383  25.138
 7295SOL     OW33512   4.019   1.224  23.432
 7295SOL    HW133513   3.970   1.193  23.509
 7295SOL    HW233514   4.111   1.218  23.459
 7296SOL     OW33515   1.663   0.259  22.444
 7296SOL    HW133516   1.634   0.349  22.426
 7296SOL    HW233517   1.581   0.211  22.458
 7297SOL     OW33518   2.090   4.714  19.293
 7297SOL    HW133519   2.014   4.696  19.349
 7297SOL    HW233520   2.052   4.738  19.208
 7298SOL     OW33521   0.049   1.908  19.722
 7298SOL    HW133522   0.122   1.968  19.736
 7298SOL    HW233523   4.767   1.958  19.670
 7299SOL     OW33524   4.689   3.224   3.628
 7299SOL    HW133525   4.765   3.283   3.619
 7299SOL    HW233526   4.677   3.216   3.723
 7300SOL     OW33527   1.251   4.522   2.307
 7300SOL    HW133528   1.297   4.551   2.229
 7300SOL    HW233529   1.320   4.493   2.367
 7301SOL     OW33530   1.103   0.280  27.278
 7301SOL    HW133531   1.168   0.212  27.296
 7301SOL    HW233532   1.019   0.237  27.292
 7302SOL     OW33533   4.647   2.335   5.697
 7302SOL    HW133534   4.593   2.414   5.699
 7302SOL    HW233535   4.666   2.317   5.789
 7303SOL     OW33536   4.037   0.645   5.905
 7303SOL    HW133537   4.005   0.682   5.823
 7303SOL    HW233538   4.010   0.709   5.972
 7304SOL     OW33539   3.748   0.606   4.790
 7304SOL    HW133540   3.694   0.627   4.866
 7304SOL    HW233541   3.744   0.685   4.735
 7305SOL     OW33542   1.331   3.705  20.909
 7305SOL    HW133543   1.326   3.782  20.852
 7305SOL    HW233544   1.408   3.658  20.877
 7306SOL     OW33545   1.424   4.174  28.039
 7306SOL    HW133546   1.434   4.094  27.987
 7306SOL    HW233547   1.334   4.170  28.072
 7307SOL     OW33548   0.913   4.320  23.850
 7307SOL    HW133549   0.845   4.268  23.807
 7307SOL    HW233550   0.921   4.398  23.795
 7308SOL     OW33551   1.186   1.807   4.128
 7308SOL    HW133552   1.132   1.794   4.206
 7308SOL    HW233553   1.269   1.841   4.161
 7309SOL     OW33554   2.696   2.635   8.903
 7309SOL    HW133555   2.713   2.653   8.996
 7309SOL    HW233556   2.763   2.685   8.856
 7310SOL     OW33557   2.210   0.691  21.442
 7310SOL    HW133558   2.284   0.749  21.423
 7310SOL    HW233559   2.136   0.733  21.397
 7311SOL     OW33560   2.333   2.603   4.429
 7311SOL    HW133561   2.383   2.681   4.403
 7311SOL    HW233562   2.298   2.626   4.515
 7312SOL     OW33563   1.696   4.225  10.860
 7312SOL    HW133564   1.704   4.170  10.782
 7312SOL    HW233565   1.641   4.175  10.919
 7313SOL     OW33566   0.630   3.603   8.152
 7313SOL    HW133567   0.637   3.521   8.201
 7313SOL    HW233568   0.546   3.640   8.179
 7314SOL     OW33569   2.511   1.739  28.518
 7314SOL    HW133570   2.533   1.751  28.426
 7314SOL    HW233571   2.559   1.808   0.041
 7315SOL     OW33572   4.685   3.671  22.199
 7315SOL    HW133573   4.630   3.608  22.245
 7315SOL    HW233574   4.624   3.739  22.169
 7316SOL     OW33575   2.687   1.430   0.903
 7316SOL    HW133576   2.723   1.489   0.969
 7316SOL    HW233577   2.662   1.487   0.831
 7317SOL     OW33578   2.540   3.610  20.499
 7317SOL    HW133579   2.500   3.570  20.422
 7317SOL    HW233580   2.580   3.691  20.466
 7318SOL     OW33581   0.066   3.911  26.273
 7318SOL    HW133582   4.762   3.956  26.277
 7318SOL    HW233583   0.070   3.861  26.355
 7319SOL     OW33584   3.974   0.838  24.876
 7319SOL    HW133585   4.013   0.867  24.794
 7319SOL    HW233586   3.893   0.793  24.850
 7320SOL     OW33587   1.562   3.018   1.704
 7320SOL    HW133588   1.618   2.942   1.715
 7320SOL    HW233589   1.534   3.014   1.612
 7321SOL     OW33590   1.123   0.729  10.781
 7321SOL    HW133591   1.138   0.801  10.719
 7321SOL    HW233592   1.110   0.772  10.865
 7322SOL     OW33593   1.831   4.244   6.336
 7322SOL    HW133594   1.853   4.151   6.341
 7322SOL    HW233595   1.886   4.277   6.264
 7323SOL     OW33596   2.653   1.176  22.743
 7323SOL    HW133597   2.720   1.113  22.769
 7323SOL    HW233598   2.700   1.240  22.690
 7324SOL     OW33599   4.548   1.946  24.473
 7324SOL    HW133600   4.455   1.939  24.495
 7324SOL    HW233601   4.585   1.862  24.498
 7325SOL     OW33602   2.899   2.123   0.484
 7325SOL    HW133603   2.812   2.163   0.479
 7325SOL    HW233604   2.958   2.190   0.451
 7326SOL     OW33605   2.375   3.945  11.103
 7326SOL    HW133606   2.420   3.951  11.187
 7326SOL    HW233607   2.354   4.036  11.080
 7327SOL     OW33608   3.783   1.561   6.928
 7327SOL    HW133609   3.694   1.595   6.922
 7327SOL    HW233610   3.817   1.597   7.010
 7328SOL     OW33611   0.105   2.146   5.097
 7328SOL    HW133612   0.123   2.220   5.156
 7328SOL    HW233613   0.185   2.137   5.045
 7329SOL     OW33614   2.563   0.746   3.450
 7329SOL    HW133615   2.576   0.802   3.527
 7329SOL    HW233616   2.571   0.657   3.484
 7330SOL     OW33617   3.083   0.870   9.750
 7330SOL    HW133618   3.096   0.823   9.667
 7330SOL    HW233619   3.077   0.962   9.724
 7331SOL     OW33620   3.048   4.285  10.560
 7331SOL    HW133621   3.139   4.254  10.561
 7331SOL    HW233622   3.016   4.271  10.649
 7332SOL     OW33623   2.837   4.764  10.899
 7332SOL    HW133624   2.913   4.733  10.949
 7332SOL    HW233625   2.793   0.045  10.958
 7333SOL     OW33626   0.718   4.326   0.284
 7333SOL    HW133627   0.717   4.323   0.380
 7333SOL    HW233628   0.627   4.316   0.258
 7334SOL     OW33629   4.704   4.293   4.605
 7334SOL    HW133630   4.770   4.271   4.540
 7334SOL    HW233631   4.678   4.383   4.583
 7335SOL     OW33632   3.137   1.314  24.130
 7335SOL    HW133633   3.063   1.333  24.073
 7335SOL    HW233634   3.145   1.218  24.127
 7336SOL     OW33635   4.200   4.215  11.220
 7336SOL    HW133636   4.247   4.220  11.303
 7336SOL    HW233637   4.113   4.183  11.243
 7337SOL     OW33638   1.834   4.710   4.100
 7337SOL    HW133639   1.831   4.736   4.008
 7337SOL    HW233640   1.745   4.726   4.132
 7338SOL     OW33641   4.337   2.571  25.912
 7338SOL    HW133642   4.362   2.479  25.904
 7338SOL    HW233643   4.397   2.607  25.977
 7339SOL     OW33644   3.521   3.953   6.338
 7339SOL    HW133645   3.540   3.861   6.352
 7339SOL    HW233646   3.600   3.987   6.295
 7340SOL     OW33647   3.962   0.649   0.654
 7340SOL    HW133648   3.947   0.572   0.598
 7340SOL    HW233649   4.044   0.686   0.622
 7341SOL     OW33650   0.031   2.270  18.531
 7341SOL    HW133651   0.055   2.326  18.457
 7341SOL    HW233652   0.094   2.198  18.527
 7342SOL     OW33653   4.431   4.087  23.857
 7342SOL    HW133654   4.397   4.123  23.775
 7342SOL    HW233655   4.441   4.163  23.914
 7343SOL     OW33656   4.289   4.135  22.955
 7343SOL    HW133657   4.291   4.048  22.914
 7343SOL    HW233658   4.218   4.130  23.019
 7344SOL     OW33659   0.578   3.902   0.541
 7344SOL    HW133660   0.500   3.867   0.585
 7344SOL    HW233661   0.543   3.959   0.473
 7345SOL     OW33662   0.487   2.775   2.977
 7345SOL    HW133663   0.428   2.701   2.988
 7345SOL    HW233664   0.573   2.735   2.964
 7346SOL     OW33665   0.255   0.857  23.701
 7346SOL    HW133666   0.191   0.787  23.688
 7346SOL    HW233667   0.230   0.924  23.638
 7347SOL     OW33668   0.581   0.094  19.170
 7347SOL    HW133669   0.605   0.141  19.089
 7347SOL    HW233670   0.583   0.162  19.238
 7348SOL     OW33671   2.450   3.139  21.005
 7348SOL    HW133672   2.444   3.092  20.922
 7348SOL    HW233673   2.452   3.231  20.980
 7349SOL     OW33674   1.062   0.863  10.999
 7349SOL    HW133675   0.986   0.875  11.057
 7349SOL    HW233676   1.130   0.918  11.036
 7350SOL     OW33677   2.464   0.985   7.907
 7350SOL    HW133678   2.451   1.014   7.816
 7350SOL    HW233679   2.530   1.045   7.942
 7351SOL     OW33680   2.313   2.560   7.515
 7351SOL    HW133681   2.357   2.479   7.491
 7351SOL    HW233682   2.373   2.629   7.486
 7352SOL     OW33683   3.015   2.469  26.418
 7352SOL    HW133684   3.036   2.411  26.491
 7352SOL    HW233685   2.991   2.552  26.458
 7353SOL     OW33686   0.055   3.907   5.426
 7353SOL    HW133687   0.030   3.830   5.475
 7353SOL    HW233688   0.131   3.879   5.374
 7354SOL     OW33689   2.358   1.407   9.672
 7354SOL    HW133690   2.403   1.377   9.751
 7354SOL    HW233691   2.280   1.452   9.704
 7355SOL     OW33692   4.684   2.365   3.132
 7355SOL    HW133693   4.710   2.380   3.223
 7355SOL    HW233694   4.681   2.270   3.123
 7356SOL     OW33695   4.094   2.727   7.946
 7356SOL    HW133696   4.109   2.762   7.858
 7356SOL    HW233697   4.121   2.636   7.941
 7357SOL     OW33698   1.537   2.180  19.838
 7357SOL    HW133699   1.590   2.213  19.766
 7357SOL    HW233700   1.549   2.244  19.908
 7358SOL     OW33701   4.477   1.609  27.616
 7358SOL    HW133702   4.507   1.674  27.552
 7358SOL    HW233703   4.558   1.577  27.657
 7359SOL     OW33704   0.223   3.444  26.786
 7359SOL    HW133705   0.216   3.403  26.700
 7359SOL    HW233706   0.285   3.388  26.834
 7360SOL     OW33707   0.381   0.298  17.504
 7360SOL    HW133708   0.454   0.354  17.529
 7360SOL    HW233709   0.398   0.215  17.547
 7361SOL     OW33710   3.568   1.824   7.156
 7361SOL    HW133711   3.495   1.885   7.170
 7361SOL    HW233712   3.639   1.878   7.121
 7362SOL     OW33713   1.386   0.220   1.298
 7362SOL    HW133714   1.405   0.229   1.205
 7362SOL    HW233715   1.292   0.236   1.306
 7363SOL     OW33716   1.288   0.000  25.281
 7363SOL    HW133717   1.372   0.017  25.325
 7363SOL    HW233718   1.223   0.033  25.343
 7364SOL     OW33719   0.769   0.214  20.883
 7364SOL    HW133720   0.769   0.129  20.927
 7364SOL    HW233721   0.722   0.272  20.942
 7365SOL     OW33722   3.462   3.497   1.357
 7365SOL    HW133723   3.456   3.461   1.445
 7365SOL    HW233724   3.474   3.421   1.300
 7366SOL     OW33725   4.311   1.725  26.530
 7366SOL    HW133726   4.257   1.646  26.533
 7366SOL    HW233727   4.265   1.788  26.586
 7367SOL     OW33728   2.250   3.451  23.028
 7367SOL    HW133729   2.334   3.427  22.987
 7367SOL    HW233730   2.215   3.521  22.973
 7368SOL     OW33731   1.538   4.241  27.223
 7368SOL    HW133732   1.461   4.219  27.274
 7368SOL    HW233733   1.530   4.189  27.143
 7369SOL     OW33734   3.151   4.298   4.729
 7369SOL    HW133735   3.163   4.211   4.693
 7369SOL    HW233736   3.185   4.293   4.818
 7370SOL     OW33737   3.651   2.320   5.149
 7370SOL    HW133738   3.619   2.405   5.117
 7370SOL    HW233739   3.671   2.336   5.242
 7371SOL     OW33740   2.475   4.436  24.951
 7371SOL    HW133741   2.535   4.362  24.946
 7371SOL    HW233742   2.413   4.412  25.020
 7372SOL     OW33743   0.689   3.415  20.532
 7372SOL    HW133744   0.626   3.403  20.461
 7372SOL    HW233745   0.645   3.471  20.595
 7373SOL     OW33746   4.130   1.584   0.845
 7373SOL    HW133747   4.218   1.587   0.882
 7373SOL    HW233748   4.143   1.596   0.751
 7374SOL     OW33749   4.062   1.108  18.450
 7374SOL    HW133750   4.149   1.142  18.428
 7374SOL    HW233751   4.059   1.107  18.545
 7375SOL     OW33752   0.270   1.835  23.940
 7375SOL    HW133753   0.232   1.868  23.859
 7375SOL    HW233754   0.198   1.835  24.003
 7376SOL     OW33755   2.631   1.022   3.694
 7376SOL    HW133756   2.680   1.091   3.650
 7376SOL    HW233757   2.545   1.061   3.710
 7377SOL     OW33758   0.311   1.324   2.650
 7377SOL    HW133759   0.275   1.400   2.605
 7377SOL    HW233760   0.295   1.250   2.591
 7378SOL     OW33761   3.106   3.800  17.788
 7378SOL    HW133762   3.091   3.873  17.728
 7378SOL    HW233763   3.164   3.741  17.740
 7379SOL     OW33764   3.113   3.484  23.330
 7379SOL    HW133765   3.040   3.444  23.378
 7379SOL    HW233766   3.133   3.563  23.378
 7380SOL     OW33767   4.555   2.175  10.690
 7380SOL    HW133768   4.617   2.221  10.633
 7380SOL    HW233769   4.600   2.170  10.775
 7381SOL     OW33770   4.160   2.277  22.818
 7381SOL    HW133771   4.092   2.328  22.773
 7381SOL    HW233772   4.118   2.195  22.840
 7382SOL     OW33773   1.330   0.643   6.426
 7382SOL    HW133774   1.391   0.592   6.480
 7382SOL    HW233775   1.385   0.687   6.363
 7383SOL     OW33776   3.371   0.743   1.796
 7383SOL    HW133777   3.315   0.667   1.817
 7383SOL    HW233778   3.345   0.766   1.706
 7384SOL     OW33779   2.106   3.939  23.726
 7384SOL    HW133780   2.178   3.996  23.752
 7384SOL    HW233781   2.049   3.935  23.803
 7385SOL     OW33782   2.340   1.438   1.485
 7385SOL    HW133783   2.398   1.382   1.537
 7385SOL    HW233784   2.336   1.520   1.535
 7386SOL     OW33785   0.330   2.119   5.619
 7386SOL    HW133786   0.378   2.187   5.666
 7386SOL    HW233787   0.284   2.071   5.688
 7387SOL     OW33788   1.700   4.118  25.099
 7387SOL    HW133789   1.607   4.095  25.096
 7387SOL    HW233790   1.721   4.144  25.009
 7388SOL     OW33791   4.628   3.684  21.884
 7388SOL    HW133792   4.717   3.663  21.858
 7388SOL    HW233793   4.615   3.639  21.967
 7389SOL     OW33794   3.400   1.027  24.255
 7389SOL    HW133795   3.413   1.121  24.267
 7389SOL    HW233796   3.306   1.017  24.241
 7390SOL     OW33797   3.061   1.951  22.405
 7390SOL    HW133798   3.029   1.989  22.487
 7390SOL    HW233799   3.115   2.020  22.367
 7391SOL     OW33800   4.504   3.956  20.689
 7391SOL    HW133801   4.562   3.904  20.745
 7391SOL    HW233802   4.514   4.046  20.721
 7392SOL     OW33803   1.208   3.910  27.652
 7392SOL    HW133804   1.298   3.933  27.630
 7392SOL    HW233805   1.176   3.860  27.577
 7393SOL     OW33806   3.828   3.605   1.322
 7393SOL    HW133807   3.828   3.630   1.230
 7393SOL    HW233808   3.771   3.528   1.326
 7394SOL     OW33809   3.183   2.564   7.383
 7394SOL    HW133810   3.123   2.502   7.424
 7394SOL    HW233811   3.216   2.518   7.306
 7395SOL     OW33812   0.239   1.235   9.205
 7395SOL    HW133813   0.274   1.146   9.196
 7395SOL    HW233814   0.261   1.278   9.122
 7396SOL     OW33815   1.508   4.358   1.073
 7396SOL    HW133816   1.483   4.450   1.081
 7396SOL    HW233817   1.443   4.311   1.125
 7397SOL     OW33818   2.307   3.419   0.696
 7397SOL    HW133819   2.260   3.430   0.613
 7397SOL    HW233820   2.394   3.386   0.671
 7398SOL     OW33821   3.120   0.973   8.396
 7398SOL    HW133822   3.200   1.025   8.386
 7398SOL    HW233823   3.124   0.908   8.326
 7399SOL     OW33824   2.857   3.698  23.563
 7399SOL    HW133825   2.874   3.624  23.506
 7399SOL    HW233826   2.927   3.695  23.629
 7400SOL     OW33827   2.731   2.385   7.149
 7400SOL    HW133828   2.718   2.355   7.059
 7400SOL    HW233829   2.697   2.313   7.203
 7401SOL     OW33830   1.676   4.478   7.471
 7401SOL    HW133831   1.655   4.389   7.442
 7401SOL    HW233832   1.728   4.515   7.400
 7402SOL     OW33833   4.459   1.564  22.637
 7402SOL    HW133834   4.523   1.599  22.575
 7402SOL    HW233835   4.436   1.639  22.693
 7403SOL     OW33836   1.477   3.470   9.353
 7403SOL    HW133837   1.514   3.425   9.276
 7403SOL    HW233838   1.406   3.523   9.317
 7404SOL     OW33839   0.824   2.867   3.730
 7404SOL    HW133840   0.743   2.816   3.722
 7404SOL    HW233841   0.838   2.905   3.643
 7405SOL     OW33842   2.039   3.982  18.727
 7405SOL    HW133843   2.107   3.968  18.661
 7405SOL    HW233844   2.008   4.071  18.712
 7406SOL     OW33845   1.959   4.562  27.678
 7406SOL    HW133846   2.003   4.481  27.704
 7406SOL    HW233847   1.878   4.533  27.636
 7407SOL     OW33848   1.064   1.640   5.131
 7407SOL    HW133849   1.043   1.567   5.072
 7407SOL    HW233850   1.007   1.626   5.206
 7408SOL     OW33851   3.134   2.455  25.258
 7408SOL    HW133852   3.208   2.434  25.202
 7408SOL    HW233853   3.153   2.542  25.293
 7409SOL     OW33854   3.831   3.284  26.074
 7409SOL    HW133855   3.883   3.204  26.075
 7409SOL    HW233856   3.876   3.341  26.012
 7410SOL     OW33857   2.006   2.423  22.309
 7410SOL    HW133858   2.046   2.438  22.394
 7410SOL    HW233859   1.956   2.341  22.319
 7411SOL     OW33860   3.325   2.513   5.512
 7411SOL    HW133861   3.395   2.533   5.574
 7411SOL    HW233862   3.256   2.575   5.533
 7412SOL     OW33863   1.340   1.597  18.832
 7412SOL    HW133864   1.337   1.573  18.739
 7412SOL    HW233865   1.424   1.642  18.843
 7413SOL     OW33866   2.509   3.334   9.943
 7413SOL    HW133867   2.499   3.393   9.868
 7413SOL    HW233868   2.564   3.263   9.910
 7414SOL     OW33869   2.180   2.444  27.368
 7414SOL    HW133870   2.163   2.525  27.417
 7414SOL    HW233871   2.273   2.427  27.380
 7415SOL     OW33872   0.080   4.702  19.879
 7415SOL    HW133873   0.095   4.716  19.973
 7415SOL    HW233874   0.009   4.637  19.876
 7416SOL     OW33875   4.531   4.314  22.149
 7416SOL    HW133876   4.520   4.409  22.153
 7416SOL    HW233877   4.590   4.300  22.076
 7417SOL     OW33878   0.255   4.735  26.165
 7417SOL    HW133879   0.165   4.730  26.133
 7417SOL    HW233880   0.301   4.664  26.120
 7418SOL     OW33881   4.446   2.714   0.126
 7418SOL    HW133882   4.479   2.741   0.212
 7418SOL    HW233883   4.416   2.624   0.140
 7419SOL     OW33884   3.764   3.692  22.501
 7419SOL    HW133885   3.739   3.784  22.491
 7419SOL    HW233886   3.794   3.666  22.414
 7420SOL     OW33887   0.098   2.918  20.473
 7420SOL    HW133888   0.127   3.008  20.488
 7420SOL    HW233889   0.022   2.907  20.531
 7421SOL     OW33890   4.295   4.641  27.709
 7421SOL    HW133891   4.236   4.566  27.696
 7421SOL    HW233892   4.245   4.702  27.762
 7422SOL     OW33893   2.032   1.273   6.790
 7422SOL    HW133894   2.074   1.200   6.835
 7422SOL    HW233895   1.939   1.260   6.805
 7423SOL     OW33896   2.830   0.263   0.117
 7423SOL    HW133897   2.880   0.241   0.038
 7423SOL    HW233898   2.740   0.272   0.086
 7424SOL     OW33899   2.533   0.569   9.370
 7424SOL    HW133900   2.470   0.637   9.395
 7424SOL    HW233901   2.609   0.617   9.338
 7425SOL     OW33902   1.710   3.402  19.366
 7425SOL    HW133903   1.687   3.490  19.394
 7425SOL    HW233904   1.652   3.384  19.293
 7426SOL     OW33905   2.845   0.157  19.050
 7426SOL    HW133906   2.764   0.153  19.101
 7426SOL    HW233907   2.838   0.238  19.001
 7427SOL     OW33908   0.599   1.109   5.519
 7427SOL    HW133909   0.523   1.052   5.532
 7427SOL    HW233910   0.562   1.198   5.516
 7428SOL     OW33911   4.349   4.045  26.129
 7428SOL    HW133912   4.321   4.044  26.220
 7428SOL    HW233913   4.277   4.086  26.082
 7429SOL     OW33914   2.811   1.407   6.651
 7429SOL    HW133915   2.803   1.463   6.728
 7429SOL    HW233916   2.741   1.342   6.661
 7430SOL     OW33917   4.441   3.815   3.649
 7430SOL    HW133918   4.380   3.779   3.713
 7430SOL    HW233919   4.405   3.790   3.564
 7431SOL     OW33920   0.894   3.988   2.878
 7431SOL    HW133921   0.973   3.992   2.933
 7431SOL    HW233922   0.883   3.895   2.859
 7432SOL     OW33923   0.528   1.000   8.537
 7432SOL    HW133924   0.486   1.048   8.466
 7432SOL    HW233925   0.531   0.909   8.507
 7433SOL     OW33926   1.310   3.837   3.604
 7433SOL    HW133927   1.247   3.886   3.657
 7433SOL    HW233928   1.259   3.806   3.529
 7434SOL     OW33929   0.461   1.492   7.808
 7434SOL    HW133930   0.518   1.537   7.870
 7434SOL    HW233931   0.377   1.484   7.854
 7435SOL     OW33932   0.201   4.566   8.486
 7435SOL    HW133933   0.234   4.490   8.534
 7435SOL    HW233934   0.130   4.600   8.541
 7436SOL     OW33935   2.214   3.055   8.102
 7436SOL    HW133936   2.253   3.104   8.030
 7436SOL    HW233937   2.220   3.113   8.178
 7437SOL     OW33938   1.565   4.168  24.487
 7437SOL    HW133939   1.587   4.260  24.502
 7437SOL    HW233940   1.478   4.170  24.446
 7438SOL     OW33941   1.701   4.641   2.823
 7438SOL    HW133942   1.660   4.561   2.790
 7438SOL    HW233943   1.660   4.711   2.773
 7439SOL     OW33944   1.334   3.796   8.084
 7439SOL    HW133945   1.245   3.783   8.050
 7439SOL    HW233946   1.330   3.880   8.130
 7440SOL     OW33947   2.610   4.235   3.507
 7440SOL    HW133948   2.601   4.290   3.430
 7440SOL    HW233949   2.648   4.153   3.474
 7441SOL     OW33950   1.706   2.478  23.537
 7441SOL    HW133951   1.684   2.488  23.629
 7441SOL    HW233952   1.797   2.507  23.530
 7442SOL     OW33953   2.686   1.846  23.008
 7442SOL    HW133954   2.764   1.811  22.966
 7442SOL    HW233955   2.668   1.927  22.962
 7443SOL     OW33956   1.179   2.262   2.845
 7443SOL    HW133957   1.115   2.222   2.904
 7443SOL    HW233958   1.255   2.279   2.900
 7444SOL     OW33959   2.027   2.136   8.036
 7444SOL    HW133960   2.024   2.179   7.951
 7444SOL    HW233961   1.937   2.140   8.069
 7445SOL     OW33962   1.115   4.567   6.815
 7445SOL    HW133963   1.105   4.561   6.720
 7445SOL    HW233964   1.188   4.508   6.835
 7446SOL     OW33965   1.917   1.863   4.472
 7446SOL    HW133966   1.932   1.802   4.544
 7446SOL    HW233967   1.834   1.906   4.495
 7447SOL     OW33968   4.236   4.306  24.088
 7447SOL    HW133969   4.200   4.365  24.021
 7447SOL    HW233970   4.328   4.297  24.065
 7448SOL     OW33971   0.471   4.608   6.562
 7448SOL    HW133972   0.490   4.588   6.470
 7448SOL    HW233973   0.540   4.563   6.611
 7449SOL     OW33974   3.502   3.920   8.060
 7449SOL    HW133975   3.467   3.889   7.976
 7449SOL    HW233976   3.580   3.970   8.036
 7450SOL     OW33977   0.856   1.527   1.380
 7450SOL    HW133978   0.884   1.607   1.334
 7450SOL    HW233979   0.937   1.484   1.405
 7451SOL     OW33980   2.106   4.606  23.188
 7451SOL    HW133981   2.041   4.675  23.174
 7451SOL    HW233982   2.119   4.604  23.283
 7452SOL     OW33983   0.414   4.396  23.262
 7452SOL    HW133984   0.486   4.438  23.309
 7452SOL    HW233985   0.399   4.314  23.310
 7453SOL     OW33986   2.245   3.246   8.314
 7453SOL    HW133987   2.263   3.337   8.291
 7453SOL    HW233988   2.286   3.234   8.399
 7454SOL     OW33989   0.400   2.257  23.161
 7454SOL    HW133990   0.364   2.168  23.161
 7454SOL    HW233991   0.395   2.285  23.253
 7455SOL     OW33992   1.845   1.120   2.873
 7455SOL    HW133993   1.855   1.200   2.925
 7455SOL    HW233994   1.919   1.065   2.899
 7456SOL     OW33995   3.098   3.204   4.895
 7456SOL    HW133996   3.113   3.197   4.989
 7456SOL    HW233997   3.126   3.292   4.872
 7457SOL     OW33998   0.054   0.201  21.449
 7457SOL    HW133999   0.107   0.279  21.461
 7457SOL    HW234000   4.749   0.224  21.484
 7458SOL     OW34001   0.095   0.190  20.422
 7458SOL    HW134002   0.144   0.108  20.421
 7458SOL    HW234003   0.089   0.215  20.330
 7459SOL     OW34004   1.099   4.508  25.870
 7459SOL    HW134005   1.141   4.497  25.784
 7459SOL    HW234006   1.014   4.465  25.860
 7460SOL     OW34007   4.229   4.285   0.930
 7460SOL    HW134008   4.269   4.212   0.977
 7460SOL    HW234009   4.184   4.336   0.997
 7461SOL     OW34010   1.131   0.245   1.395
 7461SOL    HW134011   1.075   0.168   1.405
 7461SOL    HW234012   1.082   0.302   1.335
 7462SOL     OW34013   2.244   1.536  21.662
 7462SOL    HW134014   2.220   1.559  21.752
 7462SOL    HW234015   2.280   1.616  21.625
 7463SOL     OW34016   0.644   2.061  23.033
 7463SOL    HW134017   0.619   2.141  22.987
 7463SOL    HW234018   0.724   2.085  23.081
 7464SOL     OW34019   1.424   4.552   6.850
 7464SOL    HW134020   1.504   4.564   6.902
 7464SOL    HW234021   1.445   4.482   6.788
 7465SOL     OW34022   3.252   1.025   1.127
 7465SOL    HW134023   3.160   1.031   1.102
 7465SOL    HW234024   3.259   0.943   1.176
 7466SOL     OW34025   0.109   0.339   9.605
 7466SOL    HW134026   0.147   0.352   9.518
 7466SOL    HW234027   0.181   0.358   9.665
 7467SOL     OW34028   2.257   0.676  25.032
 7467SOL    HW134029   2.273   0.734  25.107
 7467SOL    HW234030   2.162   0.665  25.030
 7468SOL     OW34031   1.658   2.218  24.123
 7468SOL    HW134032   1.661   2.310  24.098
 7468SOL    HW234033   1.737   2.204  24.175
 7469SOL     OW34034   1.073   1.914  26.519
 7469SOL    HW134035   0.986   1.945  26.493
 7469SOL    HW234036   1.125   1.994  26.527
 7470SOL     OW34037   3.507   4.493  21.018
 7470SOL    HW134038   3.466   4.579  21.023
 7470SOL    HW234039   3.462   4.440  21.084
 7471SOL     OW34040   0.553   2.688   3.737
 7471SOL    HW134041   0.562   2.597   3.710
 7471SOL    HW234042   0.459   2.706   3.733
 7472SOL     OW34043   3.159   0.524   1.139
 7472SOL    HW134044   3.147   0.430   1.128
 7472SOL    HW234045   3.073   0.557   1.164
 7473SOL     OW34046   2.779   1.831   9.550
 7473SOL    HW134047   2.749   1.756   9.602
 7473SOL    HW234048   2.873   1.817   9.540
 7474SOL     OW34049   4.751   3.839  24.500
 7474SOL    HW134050   0.065   3.827  24.493
 7474SOL    HW234051   4.739   3.934  24.494
 7475SOL     OW34052   2.603   1.248   6.735
 7475SOL    HW134053   2.564   1.297   6.807
 7475SOL    HW234054   2.543   1.263   6.661
 7476SOL     OW34055   1.170   2.099  24.462
 7476SOL    HW134056   1.125   2.154  24.398
 7476SOL    HW234057   1.100   2.051  24.506
 7477SOL     OW34058   3.553   0.846   5.801
 7477SOL    HW134059   3.581   0.926   5.846
 7477SOL    HW234060   3.593   0.852   5.714
 7478SOL     OW34061   3.152   3.449  16.234
 7478SOL    HW134062   3.077   3.508  16.239
 7478SOL    HW234063   3.121   3.367  16.271
 7479SOL     OW34064   3.300   1.425   4.643
 7479SOL    HW134065   3.281   1.333   4.661
 7479SOL    HW234066   3.306   1.430   4.548
 7480SOL     OW34067   0.250   1.513  24.100
 7480SOL    HW134068   0.221   1.522  24.010
 7480SOL    HW234069   0.261   1.603  24.131
 7481SOL     OW34070   4.219   4.759   2.052
 7481SOL    HW134071   4.203   4.759   1.958
 7481SOL    HW234072   4.314   4.763   2.061
 7482SOL     OW34073   3.072   4.628  22.327
 7482SOL    HW134074   3.093   4.722  22.326
 7482SOL    HW234075   3.079   4.604  22.420
 7483SOL     OW34076   3.408   3.088   4.145
 7483SOL    HW134077   3.333   3.114   4.199
 7483SOL    HW234078   3.433   3.002   4.179
 7484SOL     OW34079   1.418   4.110  25.878
 7484SOL    HW134080   1.338   4.074  25.839
 7484SOL    HW234081   1.484   4.099  25.809
 7485SOL     OW34082   4.178   1.630   4.155
 7485SOL    HW134083   4.249   1.683   4.191
 7485SOL    HW234084   4.202   1.540   4.176
 7486SOL     OW34085   1.084   0.551   5.063
 7486SOL    HW134086   1.108   0.643   5.068
 7486SOL    HW234087   0.992   0.549   5.090
 7487SOL     OW34088   3.094   0.013   9.603
 7487SOL    HW134089   3.052   4.718   9.563
 7487SOL    HW234090   3.135   4.760   9.683
 7488SOL     OW34091   0.699   2.815  21.535
 7488SOL    HW134092   0.750   2.896  21.542
 7488SOL    HW234093   0.622   2.839  21.484
 7489SOL     OW34094   4.183   2.945   5.733
 7489SOL    HW134095   4.194   2.953   5.638
 7489SOL    HW234096   4.210   3.030   5.768
 7490SOL     OW34097   2.521   2.233  18.786
 7490SOL    HW134098   2.486   2.144  18.786
 7490SOL    HW234099   2.571   2.239  18.867
 7491SOL     OW34100   0.249   0.360  20.915
 7491SOL    HW134101   0.263   0.320  20.830
 7491SOL    HW234102   0.297   0.305  20.976
 7492SOL     OW34103   3.782   2.940   4.025
 7492SOL    HW134104   3.749   2.854   4.049
 7492SOL    HW234105   3.740   3.000   4.086
 7493SOL     OW34106   0.738   2.595   0.160
 7493SOL    HW134107   0.757   2.638   0.076
 7493SOL    HW234108   0.760   2.661   0.226
 7494SOL     OW34109   1.579   1.511  19.995
 7494SOL    HW134110   1.643   1.475  20.057
 7494SOL    HW234111   1.557   1.597  20.031
 7495SOL     OW34112   0.780   1.043  26.606
 7495SOL    HW134113   0.784   1.049  26.701
 7495SOL    HW234114   0.734   0.960  26.589
 7496SOL     OW34115   0.529   4.182  18.820
 7496SOL    HW134116   0.526   4.216  18.730
 7496SOL    HW234117   0.489   4.250  18.873
 7497SOL     OW34118   1.671   0.264  20.458
 7497SOL    HW134119   1.659   0.303  20.371
 7497SOL    HW234120   1.762   0.234  20.458
 7498SOL     OW34121   3.223   3.949   6.040
 7498SOL    HW134122   3.222   3.855   6.052
 7498SOL    HW234123   3.234   3.985   6.129
 7499SOL     OW34124   3.054   4.071  25.004
 7499SOL    HW134125   2.973   4.023  24.985
 7499SOL    HW234126   3.074   4.048  25.095
 7500SOL     OW34127   1.214   0.563   5.770
 7500SOL    HW134128   1.205   0.489   5.710
 7500SOL    HW234129   1.149   0.547   5.838
 7501SOL     OW34130   0.376   4.780  23.935
 7501SOL    HW134131   0.344   4.743  23.852
 7501SOL    HW234132   0.471   0.007  23.922
 7502SOL     OW34133   4.297   2.392  17.200
 7502SOL    HW134134   4.342   2.349  17.273
 7502SOL    HW234135   4.248   2.322  17.157
 7503SOL     OW34136   1.818   0.611  20.252
 7503SOL    HW134137   1.748   0.546  20.243
 7503SOL    HW234138   1.886   0.565  20.301
 7504SOL     OW34139   3.740   4.090  26.878
 7504SOL    HW134140   3.702   4.011  26.838
 7504SOL    HW234141   3.791   4.057  26.952
 7505SOL     OW34142   1.689   1.251  23.610
 7505SOL    HW134143   1.731   1.320  23.661
 7505SOL    HW234144   1.711   1.170  23.656
 7506SOL     OW34145   2.681   4.333   1.570
 7506SOL    HW134146   2.624   4.367   1.640
 7506SOL    HW234147   2.633   4.351   1.489
 7507SOL     OW34148   1.926   2.677  10.845
 7507SOL    HW134149   1.946   2.661  10.753
 7507SOL    HW234150   1.965   2.762  10.864
 7508SOL     OW34151   0.874   2.289  24.868
 7508SOL    HW134152   0.782   2.316  24.867
 7508SOL    HW234153   0.921   2.363  24.906
 7509SOL     OW34154   1.738   2.070   5.267
 7509SOL    HW134155   1.763   2.095   5.356
 7509SOL    HW234156   1.819   2.039   5.227
 7510SOL     OW34157   3.640   1.123   1.046
 7510SOL    HW134158   3.684   1.041   1.027
 7510SOL    HW234159   3.686   1.188   0.993
 7511SOL     OW34160   1.289   0.723   0.607
 7511SOL    HW134161   1.193   0.723   0.611
 7511SOL    HW234162   1.310   0.793   0.544
 7512SOL     OW34163   3.639   1.341  24.096
 7512SOL    HW134164   3.694   1.392  24.155
 7512SOL    HW234165   3.689   1.336  24.015
 7513SOL     OW34166   3.621   1.649   1.619
 7513SOL    HW134167   3.534   1.683   1.598
 7513SOL    HW234168   3.649   1.700   1.694
 7514SOL     OW34169   2.556   0.388   0.237
 7514SOL    HW134170   2.526   0.322   0.174
 7514SOL    HW234171   2.533   0.472   0.197
 7515SOL     OW34172   1.537   2.449  20.279
 7515SOL    HW134173   1.583   2.492  20.352
 7515SOL    HW234174   1.462   2.407  20.320
 7516SOL     OW34175   0.697   1.432  24.606
 7516SOL    HW134176   0.691   1.386  24.690
 7516SOL    HW234177   0.629   1.392  24.552
 7517SOL     OW34178   2.983   1.517  22.139
 7517SOL    HW134179   3.012   1.463  22.212
 7517SOL    HW234180   2.974   1.605  22.176
 7518SOL     OW34181   1.850   3.168   7.364
 7518SOL    HW134182   1.816   3.198   7.280
 7518SOL    HW234183   1.850   3.073   7.358
 7519SOL     OW34184   2.294   4.146  21.726
 7519SOL    HW134185   2.240   4.224  21.710
 7519SOL    HW234186   2.320   4.116  21.640
 7520SOL     OW34187   0.767   1.527  25.868
 7520SOL    HW134188   0.859   1.546  25.885
 7520SOL    HW234189   0.761   1.520  25.773
 7521SOL     OW34190   1.242   1.046  23.597
 7521SOL    HW134191   1.196   1.121  23.634
 7521SOL    HW234192   1.193   1.025  23.517
 7522SOL     OW34193   3.480   4.484   6.932
 7522SOL    HW134194   3.469   4.533   7.014
 7522SOL    HW234195   3.560   4.433   6.945
 7523SOL     OW34196   2.031   3.825  27.975
 7523SOL    HW134197   1.941   3.850  27.955
 7523SOL    HW234198   2.023   3.738  28.013
 7524SOL     OW34199   0.020   2.831  19.779
 7524SOL    HW134200   0.063   2.747  19.797
 7524SOL    HW234201   4.710   2.817  19.807
 7525SOL     OW34202   1.599   0.235   6.290
 7525SOL    HW134203   1.529   0.221   6.353
 7525SOL    HW234204   1.679   0.215   6.338
 7526SOL     OW34205   3.455   1.661   7.815
 7526SOL    HW134206   3.365   1.644   7.843
 7526SOL    HW234207   3.467   1.603   7.739
 7527SOL     OW34208   0.684   1.693  27.258
 7527SOL    HW134209   0.752   1.669  27.322
 7527SOL    HW234210   0.733   1.719  27.180
 7528SOL     OW34211   2.750   4.558   3.176
 7528SOL    HW134212   2.822   4.584   3.233
 7528SOL    HW234213   2.789   4.497   3.114
 7529SOL     OW34214   2.605   2.025  20.302
 7529SOL    HW134215   2.534   2.032  20.239
 7529SOL    HW234216   2.627   1.932  20.303
 7530SOL     OW34217   2.828   3.155   4.668
 7530SOL    HW134218   2.813   3.242   4.705
 7530SOL    HW234219   2.742   3.127   4.637
 7531SOL     OW34220   2.687   0.619   5.211
 7531SOL    HW134221   2.706   0.541   5.263
 7531SOL    HW234222   2.616   0.593   5.153
 7532SOL     OW34223   3.406   2.488  20.211
 7532SOL    HW134224   3.443   2.512  20.126
 7532SOL    HW234225   3.419   2.566  20.266
 7533SOL     OW34226   0.877   2.051  26.052
 7533SOL    HW134227   0.784   2.052  26.075
 7533SOL    HW234228   0.920   2.013  26.128
 7534SOL     OW34229   3.677   2.269   7.258
 7534SOL    HW134230   3.638   2.356   7.253
 7534SOL    HW234231   3.715   2.265   7.346
 7535SOL     OW34232   3.305   1.820   5.401
 7535SOL    HW134233   3.248   1.777   5.338
 7535SOL    HW234234   3.246   1.870   5.457
 7536SOL     OW34235   4.724   0.421  23.184
 7536SOL    HW134236   4.636   0.391  23.208
 7536SOL    HW234237   4.754   0.472  23.259
 7537SOL     OW34238   2.123   0.616  20.610
 7537SOL    HW134239   2.148   0.556  20.680
 7537SOL    HW234240   2.050   0.666  20.646
 7538SOL     OW34241   4.613   1.173   5.883
 7538SOL    HW134242   4.528   1.184   5.925
 7538SOL    HW234243   4.596   1.189   5.790
 7539SOL     OW34244   1.872   3.766  10.219
 7539SOL    HW134245   1.877   3.675  10.188
 7539SOL    HW234246   1.902   3.818  10.145
 7540SOL     OW34247   2.500   1.777   5.654
 7540SOL    HW134248   2.405   1.761   5.653
 7540SOL    HW234249   2.512   1.845   5.720
 7541SOL     OW34250   3.046   0.749   3.611
 7541SOL    HW134251   3.129   0.742   3.656
 7541SOL    HW234252   3.065   0.804   3.534
 7542SOL     OW34253   3.402   0.159   4.951
 7542SOL    HW134254   3.359   0.216   4.887
 7542SOL    HW234255   3.469   0.113   4.900
 7543SOL     OW34256   2.890   4.642  28.392
 7543SOL    HW134257   2.934   4.676  28.470
 7543SOL    HW234258   2.797   4.642  28.415
 7544SOL     OW34259   2.665   4.440  24.553
 7544SOL    HW134260   2.576   4.457  24.585
 7544SOL    HW234261   2.702   4.378  24.616
 7545SOL     OW34262   0.442   4.615   3.264
 7545SOL    HW134263   0.415   4.693   3.216
 7545SOL    HW234264   0.487   4.562   3.199
 7546SOL     OW34265   3.911   3.098   5.604
 7546SOL    HW134266   3.852   3.078   5.676
 7546SOL    HW234267   3.948   3.184   5.625
 7547SOL     OW34268   1.195   3.627  11.278
 7547SOL    HW134269   1.239   3.640  11.361
 7547SOL    HW234270   1.139   3.550  11.292
 7548SOL     OW34271   1.103   3.285  27.542
 7548SOL    HW134272   1.092   3.304  27.448
 7548SOL    HW234273   1.064   3.199  27.554
 7549SOL     OW34274   3.063   3.591   5.287
 7549SOL    HW134275   2.991   3.650   5.306
 7549SOL    HW234276   3.121   3.641   5.229
 7550SOL     OW34277   1.183   3.312   8.768
 7550SOL    HW134278   1.213   3.278   8.684
 7550SOL    HW234279   1.091   3.332   8.754
 7551SOL     OW34280   4.350   3.657   3.446
 7551SOL    HW134281   4.411   3.616   3.384
 7551SOL    HW234282   4.265   3.620   3.424
 7552SOL     OW34283   2.123   0.070  24.153
 7552SOL    HW134284   2.168   0.056  24.070
 7552SOL    HW234285   2.048   0.125  24.130
 7553SOL     OW34286   4.463   3.922  10.714
 7553SOL    HW134287   4.369   3.912  10.721
 7553SOL    HW234288   4.498   3.881  10.793
 7554SOL     OW34289   2.925   4.242   2.416
 7554SOL    HW134290   2.907   4.182   2.344
 7554SOL    HW234291   2.988   4.196   2.472
 7555SOL     OW34292   4.274   2.116   7.758
 7555SOL    HW134293   4.333   2.069   7.817
 7555SOL    HW234294   4.317   2.201   7.744
 7556SOL     OW34295   4.620   2.157  18.972
 7556SOL    HW134296   4.549   2.220  18.985
 7556SOL    HW234297   4.644   2.167  18.880
 7557SOL     OW34298   2.208   2.076  10.284
 7557SOL    HW134299   2.168   2.082  10.197
 7557SOL    HW234300   2.187   1.988  10.315
 7558SOL     OW34301   2.380   4.521   9.838
 7558SOL    HW134302   2.307   4.474   9.878
 7558SOL    HW234303   2.341   4.602   9.805
 7559SOL     OW34304   0.262   3.796   6.527
 7559SOL    HW134305   0.199   3.810   6.456
 7559SOL    HW234306   0.301   3.882   6.542
 7560SOL     OW34307   0.405   2.831   4.444
 7560SOL    HW134308   0.406   2.853   4.537
 7560SOL    HW234309   0.488   2.785   4.429
 7561SOL     OW34310   3.249   4.449   4.515
 7561SOL    HW134311   3.168   4.489   4.484
 7561SOL    HW234312   3.225   4.401   4.593
 7562SOL     OW34313   4.243   3.267   3.404
 7562SOL    HW134314   4.219   3.268   3.497
 7562SOL    HW234315   4.163   3.239   3.359
 7563SOL     OW34316   2.930   2.450   5.253
 7563SOL    HW134317   2.877   2.490   5.184
 7563SOL    HW234318   2.900   2.359   5.256
 7564SOL     OW34319   0.817   0.410  20.324
 7564SOL    HW134320   0.867   0.373  20.397
 7564SOL    HW234321   0.741   0.450  20.364
 7565SOL     OW34322   1.908   0.038  11.994
 7565SOL    HW134323   1.908   0.077  12.082
 7565SOL    HW234324   1.853   0.097  11.942
 7566SOL     OW34325   4.427   1.069   1.060
 7566SOL    HW134326   4.342   1.024   1.061
 7566SOL    HW234327   4.472   1.037   1.138
 7567SOL     OW34328   4.160   3.703   2.540
 7567SOL    HW134329   4.174   3.661   2.626
 7567SOL    HW234330   4.248   3.726   2.511
 7568SOL     OW34331   0.951   1.621  23.706
 7568SOL    HW134332   0.986   1.581  23.786
 7568SOL    HW234333   1.007   1.588  23.636
 7569SOL     OW34334   3.775   4.594  19.939
 7569SOL    HW134335   3.836   4.659  19.974
 7569SOL    HW234336   3.688   4.625  19.965
 7570SOL     OW34337   0.267   3.626  24.057
 7570SOL    HW134338   0.271   3.552  24.117
 7570SOL    HW234339   0.180   3.619  24.016
 7571SOL     OW34340   2.933   2.203   2.527
 7571SOL    HW134341   3.017   2.171   2.493
 7571SOL    HW234342   2.953   2.230   2.617
 7572SOL     OW34343   1.481   1.682  17.478
 7572SOL    HW134344   1.497   1.597  17.519
 7572SOL    HW234345   1.553   1.737  17.507
 7573SOL     OW34346   1.936   1.194  11.457
 7573SOL    HW134347   1.962   1.124  11.516
 7573SOL    HW234348   2.017   1.224  11.418
 7574SOL     OW34349   4.093   1.923   8.547
 7574SOL    HW134350   4.151   1.998   8.564
 7574SOL    HW234351   4.152   1.850   8.531
 7575SOL     OW34352   2.641   3.531   5.267
 7575SOL    HW134353   2.706   3.597   5.289
 7575SOL    HW234354   2.563   3.555   5.316
 7576SOL     OW34355   4.206   1.632   4.681
 7576SOL    HW134356   4.254   1.551   4.694
 7576SOL    HW234357   4.208   1.675   4.767
 7577SOL     OW34358   3.944   0.461  20.819
 7577SOL    HW134359   4.002   0.537  20.814
 7577SOL    HW234360   4.000   0.390  20.848
 7578SOL     OW34361   3.404   4.611  20.240
 7578SOL    HW134362   3.432   4.700  20.218
 7578SOL    HW234363   3.465   4.583  20.309
 7579SOL     OW34364   2.294   1.245  20.868
 7579SOL    HW134365   2.238   1.228  20.944
 7579SOL    HW234366   2.325   1.334  20.880
 7580SOL     OW34367   1.685   2.977  10.500
 7580SOL    HW134368   1.780   2.966  10.514
 7580SOL    HW234369   1.654   2.889  10.478
 7581SOL     OW34370   0.806   4.167   7.524
 7581SOL    HW134371   0.716   4.140   7.503
 7581SOL    HW234372   0.860   4.123   7.459
 7582SOL     OW34373   1.478   4.658   5.269
 7582SOL    HW134374   1.551   4.715   5.243
 7582SOL    HW234375   1.488   4.581   5.214
 7583SOL     OW34376   4.232   1.065  27.656
 7583SOL    HW134377   4.300   1.109  27.706
 7583SOL    HW234378   4.207   0.990  27.710
 7584SOL     OW34379   2.731   3.951   6.454
 7584SOL    HW134380   2.732   4.041   6.487
 7584SOL    HW234381   2.776   3.955   6.370
 7585SOL     OW34382   4.093   4.653  23.122
 7585SOL    HW134383   4.103   4.559  23.106
 7585SOL    HW234384   4.072   4.660  23.215
 7586SOL     OW34385   4.111   4.390  23.467
 7586SOL    HW134386   4.061   4.463  23.433
 7586SOL    HW234387   4.200   4.403  23.433
 7587SOL     OW34388   0.623   2.782  24.001
 7587SOL    HW134389   0.624   2.761  23.908
 7587SOL    HW234390   0.675   2.713  24.042
 7588SOL     OW34391   1.003   2.888  20.857
 7588SOL    HW134392   1.034   2.890  20.767
 7588SOL    HW234393   1.027   2.800  20.889
 7589SOL     OW34394   1.479   1.462  26.280
 7589SOL    HW134395   1.574   1.467  26.281
 7589SOL    HW234396   1.457   1.440  26.189
 7590SOL     OW34397   1.791   1.544   2.376
 7590SOL    HW134398   1.863   1.603   2.353
 7590SOL    HW234399   1.771   1.498   2.295
 7591SOL     OW34400   4.564   4.187   1.684
 7591SOL    HW134401   4.612   4.104   1.691
 7591SOL    HW234402   4.554   4.202   1.590
 7592SOL     OW34403   2.653   3.718  17.110
 7592SOL    HW134404   2.676   3.753  17.024
 7592SOL    HW234405   2.657   3.794  17.169
 7593SOL     OW34406   0.991   3.704   3.903
 7593SOL    HW134407   0.912   3.651   3.905
 7593SOL    HW234408   0.983   3.763   3.977
 7594SOL     OW34409   3.134   4.037  26.365
 7594SOL    HW134410   3.153   4.129  26.380
 7594SOL    HW234411   3.102   4.005  26.450
 7595SOL     OW34412   2.501   1.808   0.299
 7595SOL    HW134413   2.455   1.750   0.238
 7595SOL    HW234414   2.591   1.775   0.299
 7596SOL     OW34415   0.414   1.279  22.265
 7596SOL    HW134416   0.502   1.273  22.302
 7596SOL    HW234417   0.427   1.319  22.179
 7597SOL     OW34418   2.897   3.028  19.300
 7597SOL    HW134419   2.966   2.983  19.349
 7597SOL    HW234420   2.831   3.049  19.366
 7598SOL     OW34421   0.433   0.485  22.451
 7598SOL    HW134422   0.519   0.455  22.420
 7598SOL    HW234423   0.452   0.529  22.534
 7599SOL     OW34424   4.493   0.559   3.499
 7599SOL    HW134425   4.531   0.493   3.440
 7599SOL    HW234426   4.565   0.619   3.516
 7600SOL     OW34427   0.704   3.348   7.066
 7600SOL    HW134428   0.775   3.383   7.013
 7600SOL    HW234429   0.706   3.400   7.147
 7601SOL     OW34430   1.998   1.628  26.870
 7601SOL    HW134431   1.920   1.616  26.925
 7601SOL    HW234432   2.047   1.698  26.914
 7602SOL     OW34433   2.321   2.904  27.677
 7602SOL    HW134434   2.333   2.988  27.722
 7602SOL    HW234435   2.354   2.918  27.589
 7603SOL     OW34436   4.697   0.846   5.307
 7603SOL    HW134437   4.606   0.820   5.319
 7603SOL    HW234438   4.693   0.925   5.253
 7604SOL     OW34439   1.288   3.591   6.139
 7604SOL    HW134440   1.205   3.545   6.127
 7604SOL    HW234441   1.342   3.531   6.190
 7605SOL     OW34442   4.723   1.979  21.581
 7605SOL    HW134443   4.650   1.929  21.618
 7605SOL    HW234444   4.689   2.068  21.570
 7606SOL     OW34445   0.536   4.126  27.068
 7606SOL    HW134446   0.624   4.126  27.028
 7606SOL    HW234447   0.485   4.185  27.012
 7607SOL     OW34448   2.414   4.221   6.134
 7607SOL    HW134449   2.354   4.169   6.187
 7607SOL    HW234450   2.358   4.255   6.063
 7608SOL     OW34451   3.459   3.658   0.228
 7608SOL    HW134452   3.411   3.655   0.145
 7608SOL    HW234453   3.436   3.576   0.271
 7609SOL     OW34454   1.586   0.424   5.848
 7609SOL    HW134455   1.562   0.446   5.937
 7609SOL    HW234456   1.559   0.332   5.838
 7610SOL     OW34457   3.338   3.654   2.014
 7610SOL    HW134458   3.256   3.625   2.055
 7610SOL    HW234459   3.374   3.718   2.076
 7611SOL     OW34460   1.289   4.226   6.910
 7611SOL    HW134461   1.308   4.277   6.989
 7611SOL    HW234462   1.330   4.276   6.839
 7612SOL     OW34463   3.057   1.289   7.787
 7612SOL    HW134464   3.052   1.341   7.707
 7612SOL    HW234465   3.147   1.301   7.817
 7613SOL     OW34466   1.034   1.719   7.340
 7613SOL    HW134467   1.011   1.720   7.432
 7613SOL    HW234468   0.980   1.788   7.301
 7614SOL     OW34469   0.040   2.449  22.074
 7614SOL    HW134470   0.026   2.539  22.103
 7614SOL    HW234471   0.005   2.445  21.986
 7615SOL     OW34472   3.457   0.339   0.160
 7615SOL    HW134473   3.521   0.268   0.162
 7615SOL    HW234474   3.383   0.303   0.111
 7616SOL     OW34475   3.207   4.322  25.396
 7616SOL    HW134476   3.113   4.303  25.391
 7616SOL    HW234477   3.241   4.298  25.310
 7617SOL     OW34478   1.926   2.399  28.047
 7617SOL    HW134479   1.996   2.429  28.105
 7617SOL    HW234480   1.967   2.331  27.993
 7618SOL     OW34481   0.971   0.522  22.002
 7618SOL    HW134482   0.972   0.604  22.052
 7618SOL    HW234483   0.972   0.453  22.069
 7619SOL     OW34484   1.191   3.767  10.559
 7619SOL    HW134485   1.159   3.736  10.644
 7619SOL    HW234486   1.122   3.745  10.497
 7620SOL     OW34487   1.166   2.942  21.979
 7620SOL    HW134488   1.125   2.888  22.047
 7620SOL    HW234489   1.249   2.970  22.017
 7621SOL     OW34490   2.815   0.633  23.836
 7621SOL    HW134491   2.847   0.665  23.920
 7621SOL    HW234492   2.767   0.553  23.857
 7622SOL     OW34493   4.632   1.123   8.649
 7622SOL    HW134494   4.539   1.133   8.667
 7622SOL    HW234495   4.656   1.204   8.604
 7623SOL     OW34496   1.317   4.122   4.131
 7623SOL    HW134497   1.239   4.098   4.081
 7623SOL    HW234498   1.382   4.146   4.065
 7624SOL     OW34499   1.572   3.686   4.204
 7624SOL    HW134500   1.509   3.674   4.132
 7624SOL    HW234501   1.531   3.644   4.279
 7625SOL     OW34502   1.565   2.354  22.441
 7625SOL    HW134503   1.564   2.449  22.440
 7625SOL    HW234504   1.472   2.329  22.437
 7626SOL     OW34505   0.680   1.884   7.632
 7626SOL    HW134506   0.767   1.921   7.621
 7626SOL    HW234507   0.628   1.955   7.670
 7627SOL     OW34508   3.049   0.207   6.412
 7627SOL    HW134509   3.000   0.247   6.340
 7627SOL    HW234510   3.096   0.280   6.453
 7628SOL     OW34511   2.856   3.317   6.543
 7628SOL    HW134512   2.843   3.282   6.454
 7628SOL    HW234513   2.905   3.249   6.588
 7629SOL     OW34514   0.039   2.492   3.366
 7629SOL    HW134515   0.067   2.583   3.363
 7629SOL    HW234516   4.769   2.485   3.447
 7630SOL     OW34517   2.974   0.731  16.351
 7630SOL    HW134518   3.022   0.777  16.283
 7630SOL    HW234519   2.886   0.720  16.316
 7631SOL     OW34520   0.807   1.562  26.552
 7631SOL    HW134521   0.897   1.581  26.525
 7631SOL    HW234522   0.800   1.467  26.545
 7632SOL     OW34523   0.115   2.927   0.276
 7632SOL    HW134524   0.184   2.948   0.339
 7632SOL    HW234525   0.155   2.944   0.191
 7633SOL     OW34526   3.417   0.670   6.414
 7633SOL    HW134527   3.327   0.701   6.426
 7633SOL    HW234528   3.456   0.732   6.353
 7634SOL     OW34529   1.580   2.271   2.788
 7634SOL    HW134530   1.649   2.336   2.802
 7634SOL    HW234531   1.501   2.312   2.823
 7635SOL     OW34532   3.976   3.591  23.764
 7635SOL    HW134533   3.912   3.635  23.707
 7635SOL    HW234534   4.061   3.620  23.732
 7636SOL     OW34535   0.625   1.337   3.319
 7636SOL    HW134536   0.635   1.326   3.413
 7636SOL    HW234537   0.678   1.268   3.281
 7637SOL     OW34538   2.102   1.433  28.422
 7637SOL    HW134539   2.082   1.342  28.446
 7637SOL    HW234540   2.196   1.441  28.437
 7638SOL     OW34541   1.137   4.512  19.604
 7638SOL    HW134542   1.047   4.485  19.587
 7638SOL    HW234543   1.172   4.444  19.662
 7639SOL     OW34544   3.444   4.701   8.240
 7639SOL    HW134545   3.406   4.736   8.160
 7639SOL    HW234546   3.528   4.745   8.249
 7640SOL     OW34547   3.392   2.736   9.971
 7640SOL    HW134548   3.394   2.740  10.067
 7640SOL    HW234549   3.387   2.827   9.943
 7641SOL     OW34550   0.336   3.727   5.010
 7641SOL    HW134551   0.390   3.805   5.000
 7641SOL    HW234552   0.398   3.654   5.014
 7642SOL     OW34553   0.731   0.995   9.808
 7642SOL    HW134554   0.817   0.952   9.807
 7642SOL    HW234555   0.751   1.087   9.820
 7643SOL     OW34556   4.385   4.510   2.960
 7643SOL    HW134557   4.356   4.580   3.018
 7643SOL    HW234558   4.325   4.513   2.886
 7644SOL     OW34559   1.414   3.127   7.203
 7644SOL    HW134560   1.440   3.218   7.214
 7644SOL    HW234561   1.331   3.121   7.250
 7645SOL     OW34562   1.931   3.027  11.759
 7645SOL    HW134563   1.970   3.077  11.831
 7645SOL    HW234564   1.838   3.021  11.781
 7646SOL     OW34565   0.679   3.394  22.208
 7646SOL    HW134566   0.624   3.416  22.284
 7646SOL    HW234567   0.715   3.478  22.180
 7647SOL     OW34568   0.855   1.858   2.672
 7647SOL    HW134569   0.779   1.810   2.706
 7647SOL    HW234570   0.852   1.842   2.577
 7648SOL     OW34571   3.138   3.153  18.143
 7648SOL    HW134572   3.130   3.236  18.190
 7648SOL    HW234573   3.055   3.145  18.095
 7649SOL     OW34574   1.047   3.715  21.213
 7649SOL    HW134575   1.053   3.675  21.127
 7649SOL    HW234576   0.999   3.796  21.199
 7650SOL     OW34577   3.253   1.366  25.677
 7650SOL    HW134578   3.242   1.284  25.725
 7650SOL    HW234579   3.163   1.395  25.659
 7651SOL     OW34580   3.516   1.574   0.134
 7651SOL    HW134581   3.559   1.606   0.055
 7651SOL    HW234582   3.484   1.653   0.177
 7652SOL     OW34583   2.187   3.573  20.792
 7652SOL    HW134584   2.169   3.630  20.718
 7652SOL    HW234585   2.282   3.580  20.805
 7653SOL     OW34586   4.411   2.537  24.010
 7653SOL    HW134587   4.317   2.548  24.021
 7653SOL    HW234588   4.434   2.596  23.939
 7654SOL     OW34589   0.328   2.910   8.205
 7654SOL    HW134590   0.339   2.965   8.127
 7654SOL    HW234591   0.363   2.962   8.277
 7655SOL     OW34592   3.648   3.671   5.029
 7655SOL    HW134593   3.725   3.662   5.085
 7655SOL    HW234594   3.604   3.750   5.060
 7656SOL     OW34595   2.101   1.932   5.537
 7656SOL    HW134596   2.090   2.019   5.497
 7656SOL    HW234597   2.032   1.927   5.603
 7657SOL     OW34598   0.110   4.701  22.078
 7657SOL    HW134599   0.060   0.001  22.076
 7657SOL    HW234600   0.163   4.707  22.157
 7658SOL     OW34601   2.548   4.235  24.351
 7658SOL    HW134602   2.473   4.268  24.401
 7658SOL    HW234603   2.541   4.140  24.358
 7659SOL     OW34604   2.076   0.233   7.070
 7659SOL    HW134605   2.124   0.309   7.037
 7659SOL    HW234606   2.006   0.271   7.124
 7660SOL     OW34607   0.080   3.617  11.747
 7660SOL    HW134608   0.093   3.643  11.838
 7660SOL    HW234609   0.162   3.639  11.702
 7661SOL     OW34610   4.628   4.156  25.392
 7661SOL    HW134611   4.581   4.072  25.393
 7661SOL    HW234612   4.712   4.136  25.351
 7662SOL     OW34613   3.371   3.433   8.098
 7662SOL    HW134614   3.318   3.456   8.022
 7662SOL    HW234615   3.307   3.410   8.165
 7663SOL     OW34616   2.100   2.725   4.629
 7663SOL    HW134617   2.075   2.689   4.544
 7663SOL    HW234618   2.154   2.801   4.609
 7664SOL     OW34619   4.286   1.203   3.988
 7664SOL    HW134620   4.333   1.121   3.996
 7664SOL    HW234621   4.304   1.233   3.899
 7665SOL     OW34622   1.546   2.992   3.422
 7665SOL    HW134623   1.543   3.088   3.424
 7665SOL    HW234624   1.463   2.966   3.382
 7666SOL     OW34625   2.529   3.489  27.339
 7666SOL    HW134626   2.533   3.420  27.405
 7666SOL    HW234627   2.479   3.559  27.380
 7667SOL     OW34628   0.896   0.720  25.458
 7667SOL    HW134629   0.966   0.778  25.431
 7667SOL    HW234630   0.820   0.777  25.469
 7668SOL     OW34631   0.608   3.406  26.273
 7668SOL    HW134632   0.684   3.356  26.242
 7668SOL    HW234633   0.545   3.401  26.202
 7669SOL     OW34634   0.237   0.464   9.134
 7669SOL    HW134635   0.201   0.417   9.059
 7669SOL    HW234636   0.165   0.518   9.165
 7670SOL     OW34637   4.665   4.220  23.691
 7670SOL    HW134638   4.594   4.281  23.709
 7670SOL    HW234639   4.621   4.143  23.652
 7671SOL     OW34640   0.140   1.748   1.981
 7671SOL    HW134641   0.195   1.820   2.015
 7671SOL    HW234642   0.099   1.785   1.902
 7672SOL     OW34643   4.043   4.581   6.834
 7672SOL    HW134644   4.138   4.574   6.848
 7672SOL    HW234645   4.011   4.492   6.851
 7673SOL     OW34646   1.082   2.719   8.243
 7673SOL    HW134647   0.997   2.691   8.277
 7673SOL    HW234648   1.139   2.721   8.319
 7674SOL     OW34649   2.561   3.359  20.612
 7674SOL    HW134650   2.482   3.333  20.659
 7674SOL    HW234651   2.540   3.445  20.575
 7675SOL     OW34652   4.618   1.185   6.942
 7675SOL    HW134653   4.657   1.269   6.921
 7675SOL    HW234654   4.597   1.146   6.857
 7676SOL     OW34655   2.385   3.624   0.301
 7676SOL    HW134656   2.344   3.652   0.383
 7676SOL    HW234657   2.370   3.530   0.297
 7677SOL     OW34658   1.437   2.433   5.463
 7677SOL    HW134659   1.370   2.382   5.509
 7677SOL    HW234660   1.424   2.412   5.370
 7678SOL     OW34661   4.731   4.333   6.138
 7678SOL    HW134662   4.773   4.312   6.222
 7678SOL    HW234663   4.686   4.252   6.114
 7679SOL     OW34664   4.480   3.261  22.754
 7679SOL    HW134665   4.482   3.189  22.690
 7679SOL    HW234666   4.566   3.303  22.746
 7680SOL     OW34667   0.992   2.336  26.938
 7680SOL    HW134668   0.994   2.285  26.857
 7680SOL    HW234669   1.051   2.289  26.997
 7681SOL     OW34670   4.185   3.014  27.294
 7681SOL    HW134671   4.228   3.099  27.300
 7681SOL    HW234672   4.246   2.953  27.337
 7682SOL     OW34673   0.360   1.269  23.504
 7682SOL    HW134674   0.292   1.239  23.444
 7682SOL    HW234675   0.440   1.269  23.451
 7683SOL     OW34676   1.131   3.380  26.150
 7683SOL    HW134677   1.148   3.451  26.211
 7683SOL    HW234678   1.217   3.343  26.131
 7684SOL     OW34679   1.105   1.811  20.087
 7684SOL    HW134680   1.025   1.848  20.126
 7684SOL    HW234681   1.073   1.755  20.017
 7685SOL     OW34682   1.219   0.532   9.878
 7685SOL    HW134683   1.239   0.479   9.801
 7685SOL    HW234684   1.286   0.509   9.943
 7686SOL     OW34685   3.098   3.365   2.058
 7686SOL    HW134686   3.009   3.398   2.069
 7686SOL    HW234687   3.152   3.423   2.112
 7687SOL     OW34688   0.859   0.329  23.328
 7687SOL    HW134689   0.909   0.259  23.371
 7687SOL    HW234690   0.893   0.330  23.238
 7688SOL     OW34691   3.285   1.827   9.931
 7688SOL    HW134692   3.365   1.822   9.983
 7688SOL    HW234693   3.298   1.762   9.862
 7689SOL     OW34694   1.605   3.327   4.087
 7689SOL    HW134695   1.660   3.371   4.022
 7689SOL    HW234696   1.647   3.242   4.100
 7690SOL     OW34697   1.080   0.775  24.476
 7690SOL    HW134698   1.123   0.715  24.536
 7690SOL    HW234699   0.999   0.800  24.520
 7691SOL     OW34700   0.723   1.557   3.192
 7691SOL    HW134701   0.659   1.626   3.181
 7691SOL    HW234702   0.673   1.481   3.222
 7692SOL     OW34703   2.802   0.798   3.769
 7692SOL    HW134704   2.748   0.870   3.736
 7692SOL    HW234705   2.867   0.784   3.701
 7693SOL     OW34706   0.589   0.679   5.132
 7693SOL    HW134707   0.605   0.729   5.212
 7693SOL    HW234708   0.526   0.612   5.158
 7694SOL     OW34709   0.874   4.561   6.951
 7694SOL    HW134710   0.827   4.526   6.875
 7694SOL    HW234711   0.966   4.561   6.924
 7695SOL     OW34712   4.223   3.387  25.428
 7695SOL    HW134713   4.207   3.478  25.404
 7695SOL    HW234714   4.285   3.355  25.363
 7696SOL     OW34715   0.927   4.401   8.449
 7696SOL    HW134716   1.015   4.414   8.414
 7696SOL    HW234717   0.869   4.423   8.377
 7697SOL     OW34718   3.990   1.451  22.551
 7697SOL    HW134719   3.992   1.406  22.466
 7697SOL    HW234720   3.961   1.540  22.531
 7698SOL     OW34721   3.984   2.103  11.470
 7698SOL    HW134722   4.074   2.102  11.503
 7698SOL    HW234723   3.930   2.086  11.548
 7699SOL     OW34724   2.140   0.530   9.202
 7699SOL    HW134725   2.199   0.482   9.144
 7699SOL    HW234726   2.184   0.530   9.287
 7700SOL     OW34727   4.548   1.832  27.460
 7700SOL    HW134728   4.630   1.837  27.412
 7700SOL    HW234729   4.527   1.923  27.481
 7701SOL     OW34730   2.006   2.503   7.734
 7701SOL    HW134731   1.969   2.526   7.649
 7701SOL    HW234732   2.043   2.416   7.721
 7702SOL     OW34733   0.236   4.677   7.753
 7702SOL    HW134734   0.271   4.755   7.710
 7702SOL    HW234735   0.230   4.701   7.845
 7703SOL     OW34736   1.643   0.981   2.107
 7703SOL    HW134737   1.566   0.929   2.128
 7703SOL    HW234738   1.717   0.931   2.142
 7704SOL     OW34739   4.642   0.394  26.247
 7704SOL    HW134740   4.737   0.389  26.237
 7704SOL    HW234741   4.611   0.428  26.164
 7705SOL     OW34742   2.956   2.987   1.407
 7705SOL    HW134743   2.912   3.055   1.458
 7705SOL    HW234744   3.049   3.010   1.412
 7706SOL     OW34745   0.442   0.271   3.765
 7706SOL    HW134746   0.415   0.248   3.854
 7706SOL    HW234747   0.537   0.256   3.764
 7707SOL     OW34748   1.817   4.137  27.500
 7707SOL    HW134749   1.881   4.107  27.564
 7707SOL    HW234750   1.868   4.157  27.421
 7708SOL     OW34751   3.507   3.568  25.365
 7708SOL    HW134752   3.445   3.641  25.372
 7708SOL    HW234753   3.588   3.608  25.335
 7709SOL     OW34754   4.538   1.482  26.151
 7709SOL    HW134755   4.529   1.551  26.216
 7709SOL    HW234756   4.453   1.480  26.107
 7710SOL     OW34757   0.774   0.964  20.415
 7710SOL    HW134758   0.808   1.026  20.479
 7710SOL    HW234759   0.706   1.013  20.368
 7711SOL     OW34760   4.459   0.094   8.029
 7711SOL    HW134761   4.505   0.135   8.102
 7711SOL    HW234762   4.376   0.142   8.023
 7712SOL     OW34763   3.246   1.457  22.023
 7712SOL    HW134764   3.186   1.473  22.096
 7712SOL    HW234765   3.299   1.382  22.051
 7713SOL     OW34766   1.692   1.718  26.557
 7713SOL    HW134767   1.753   1.787  26.532
 7713SOL    HW234768   1.734   1.637  26.527
 7714SOL     OW34769   0.165   3.335  23.453
 7714SOL    HW134770   0.172   3.315  23.359
 7714SOL    HW234771   0.079   3.300  23.478
 7715SOL     OW34772   1.618   0.538   5.187
 7715SOL    HW134773   1.661   0.524   5.271
 7715SOL    HW234774   1.657   0.619   5.153
 7716SOL     OW34775   2.805   3.666  23.846
 7716SOL    HW134776   2.835   3.738  23.900
 7716SOL    HW234777   2.882   3.637  23.798
 7717SOL     OW34778   0.122   0.526   7.434
 7717SOL    HW134779   0.053   0.474   7.476
 7717SOL    HW234780   0.105   0.518   7.340
 7718SOL     OW34781   4.691   2.064  22.897
 7718SOL    HW134782   4.704   2.134  22.833
 7718SOL    HW234783   4.634   2.103  22.963
 7719SOL     OW34784   2.969   0.919   2.616
 7719SOL    HW134785   2.880   0.885   2.626
 7719SOL    HW234786   3.026   0.842   2.622
 7720SOL     OW34787   3.826   4.756  21.182
 7720SOL    HW134788   3.833   4.751  21.278
 7720SOL    HW234789   3.768   0.050  21.167
 7721SOL     OW34790   1.126   0.311   0.618
 7721SOL    HW134791   1.137   0.217   0.600
 7721SOL    HW234792   1.215   0.346   0.614
 7722SOL     OW34793   1.128   4.528  23.486
 7722SOL    HW134794   1.108   4.496  23.398
 7722SOL    HW234795   1.202   4.475  23.515
 7723SOL     OW34796   4.623   0.908  16.164
 7723SOL    HW134797   4.577   0.968  16.106
 7723SOL    HW234798   4.686   0.963  16.210
 7724SOL     OW34799   1.638   3.102   0.121
 7724SOL    HW134800   1.615   3.159   0.194
 7724SOL    HW234801   1.673   3.161   0.055
 7725SOL     OW34802   1.604   1.141  27.528
 7725SOL    HW134803   1.680   1.162  27.474
 7725SOL    HW234804   1.606   1.205  27.599
 7726SOL     OW34805   3.637   2.436   7.627
 7726SOL    HW134806   3.720   2.391   7.607
 7726SOL    HW234807   3.643   2.519   7.580
 7727SOL     OW34808   4.186   2.936   6.350
 7727SOL    HW134809   4.198   2.899   6.262
 7727SOL    HW234810   4.133   2.871   6.396
 7728SOL     OW34811   0.642   3.809   6.056
 7728SOL    HW134812   0.552   3.839   6.044
 7728SOL    HW234813   0.677   3.803   5.968
 7729SOL     OW34814   2.061   0.033  28.291
 7729SOL    HW134815   2.121   0.048  28.218
 7729SOL    HW234816   2.073   4.722  28.313
 7730SOL     OW34817   1.887   0.890   8.193
 7730SOL    HW134818   1.805   0.848   8.169
 7730SOL    HW234819   1.918   0.930   8.111
 7731SOL     OW34820   4.540   2.861  25.849
 7731SOL    HW134821   4.613   2.830  25.903
 7731SOL    HW234822   4.569   2.846  25.759
 7732SOL     OW34823   4.493   1.527   5.938
 7732SOL    HW134824   4.419   1.586   5.922
 7732SOL    HW234825   4.458   1.440   5.921
 7733SOL     OW34826   2.923   3.264  20.308
 7733SOL    HW134827   2.927   3.218  20.224
 7733SOL    HW234828   2.851   3.326  20.298
 7734SOL     OW34829   2.553   2.910  28.203
 7734SOL    HW134830   2.532   2.842  28.267
 7734SOL    HW234831   2.644   2.934  28.222
 7735SOL     OW34832   4.254   0.820   8.852
 7735SOL    HW134833   4.321   0.758   8.823
 7735SOL    HW234834   4.303   0.886   8.901
 7736SOL     OW34835   1.730   3.686   0.831
 7736SOL    HW134836   1.729   3.764   0.886
 7736SOL    HW234837   1.728   3.613   0.893
 7737SOL     OW34838   2.301   2.602  19.860
 7737SOL    HW134839   2.320   2.664  19.789
 7737SOL    HW234840   2.210   2.576  19.846
 7738SOL     OW34841   0.086   0.229  25.394
 7738SOL    HW134842   0.126   0.302  25.442
 7738SOL    HW234843   0.157   0.193  25.341
 7739SOL     OW34844   0.584   0.356  24.085
 7739SOL    HW134845   0.590   0.451  24.072
 7739SOL    HW234846   0.533   0.346  24.165
 7740SOL     OW34847   3.075   0.771  25.968
 7740SOL    HW134848   3.046   0.700  26.025
 7740SOL    HW234849   3.052   0.742  25.880
 7741SOL     OW34850   2.903   2.074   7.123
 7741SOL    HW134851   2.919   2.128   7.046
 7741SOL    HW234852   2.931   2.127   7.197
 7742SOL     OW34853   3.172   0.623   3.888
 7742SOL    HW134854   3.251   0.643   3.938
 7742SOL    HW234855   3.114   0.697   3.903
 7743SOL     OW34856   0.446   1.514   6.209
 7743SOL    HW134857   0.355   1.543   6.205
 7743SOL    HW234858   0.441   1.427   6.248
 7744SOL     OW34859   1.302   0.521   6.893
 7744SOL    HW134860   1.348   0.457   6.948
 7744SOL    HW234861   1.370   0.579   6.860
 7745SOL     OW34862   2.808   2.950  18.131
 7745SOL    HW134863   2.868   2.988  18.067
 7745SOL    HW234864   2.834   2.989  18.214
 7746SOL     OW34865   2.578   3.760  22.457
 7746SOL    HW134866   2.603   3.802  22.375
 7746SOL    HW234867   2.609   3.669  22.448
 7747SOL     OW34868   3.514   2.294  27.602
 7747SOL    HW134869   3.516   2.371  27.545
 7747SOL    HW234870   3.484   2.223  27.546
 7748SOL     OW34871   3.383   2.098  18.355
 7748SOL    HW134872   3.394   2.119  18.448
 7748SOL    HW234873   3.331   2.018  18.355
 7749SOL     OW34874   1.873   2.541   5.624
 7749SOL    HW134875   1.779   2.558   5.620
 7749SOL    HW234876   1.900   2.530   5.533
 7750SOL     OW34877   3.218   2.577   7.916
 7750SOL    HW134878   3.168   2.591   7.836
 7750SOL    HW234879   3.193   2.649   7.973
 7751SOL     OW34880   3.599   4.217  20.282
 7751SOL    HW134881   3.676   4.234  20.229
 7751SOL    HW234882   3.526   4.254  20.232
 7752SOL     OW34883   1.051   1.940  22.277
 7752SOL    HW134884   1.075   2.032  22.268
 7752SOL    HW234885   1.118   1.892  22.228
 7753SOL     OW34886   3.822   1.775  24.678
 7753SOL    HW134887   3.771   1.787  24.598
 7753SOL    HW234888   3.769   1.813  24.747
 7754SOL     OW34889   1.831   0.358   8.019
 7754SOL    HW134890   1.836   0.448   8.051
 7754SOL    HW234891   1.739   0.347   7.995
 7755SOL     OW34892   2.536   4.240  10.623
 7755SOL    HW134893   2.601   4.199  10.680
 7755SOL    HW234894   2.452   4.224  10.667
 7756SOL     OW34895   1.100   3.295  26.590
 7756SOL    HW134896   1.084   3.204  26.565
 7756SOL    HW234897   1.162   3.328  26.526
 7757SOL     OW34898   2.853   1.672  19.048
 7757SOL    HW134899   2.785   1.700  18.986
 7757SOL    HW234900   2.818   1.696  19.134
 7758SOL     OW34901   0.802   3.015   7.815
 7758SOL    HW134902   0.730   3.078   7.809
 7758SOL    HW234903   0.874   3.058   7.770
 7759SOL     OW34904   2.452   0.544   0.897
 7759SOL    HW134905   2.514   0.558   0.969
 7759SOL    HW234906   2.467   0.454   0.869
 7760SOL     OW34907   1.968   0.182  11.463
 7760SOL    HW134908   1.886   0.153  11.503
 7760SOL    HW234909   1.945   0.261  11.414
 7761SOL     OW34910   1.615   3.876   1.934
 7761SOL    HW134911   1.648   3.842   2.017
 7761SOL    HW234912   1.617   3.971   1.945
 7762SOL     OW34913   1.494   1.266   6.706
 7762SOL    HW134914   1.494   1.304   6.794
 7762SOL    HW234915   1.470   1.174   6.719
 7763SOL     OW34916   0.995   0.013   2.934
 7763SOL    HW134917   0.945   0.072   2.991
 7763SOL    HW234918   1.087   0.032   2.955
 7764SOL     OW34919   4.390   3.017   5.144
 7764SOL    HW134920   4.344   2.937   5.168
 7764SOL    HW234921   4.349   3.044   5.061
 7765SOL     OW34922   2.866   2.348  11.839
 7765SOL    HW134923   2.867   2.260  11.802
 7765SOL    HW234924   2.849   2.405  11.764
 7766SOL     OW34925   3.629   2.582   1.095
 7766SOL    HW134926   3.615   2.545   1.182
 7766SOL    HW234927   3.695   2.525   1.055
 7767SOL     OW34928   2.457   3.796   9.940
 7767SOL    HW134929   2.389   3.818   9.876
 7767SOL    HW234930   2.437   3.851  10.016
 7768SOL     OW34931   1.861   0.535   9.847
 7768SOL    HW134932   1.876   0.514   9.938
 7768SOL    HW234933   1.772   0.572   9.845
 7769SOL     OW34934   0.748   3.777   7.389
 7769SOL    HW134935   0.819   3.834   7.360
 7769SOL    HW234936   0.685   3.779   7.316
 7770SOL     OW34937   3.510   0.964   5.004
 7770SOL    HW134938   3.565   1.005   4.938
 7770SOL    HW234939   3.445   1.031   5.026
 7771SOL     OW34940   3.006   0.104   5.238
 7771SOL    HW134941   2.979   0.123   5.148
 7771SOL    HW234942   3.102   0.100   5.234
 7772SOL     OW34943   4.270   0.943   7.363
 7772SOL    HW134944   4.306   0.960   7.276
 7772SOL    HW234945   4.347   0.942   7.420
 7773SOL     OW34946   2.244   1.286   5.987
 7773SOL    HW134947   2.186   1.260   6.058
 7773SOL    HW234948   2.236   1.215   5.923
 7774SOL     OW34949   2.553   0.391   5.376
 7774SOL    HW134950   2.505   0.473   5.387
 7774SOL    HW234951   2.487   0.328   5.349
 7775SOL     OW34952   3.895   4.378  26.088
 7775SOL    HW134953   3.916   4.296  26.044
 7775SOL    HW234954   3.800   4.379  26.095
 7776SOL     OW34955   4.392   4.243   7.682
 7776SOL    HW134956   4.366   4.165   7.633
 7776SOL    HW234957   4.468   4.276   7.634
 7777SOL     OW34958   3.243   3.092  19.642
 7777SOL    HW134959   3.298   3.166  19.666
 7777SOL    HW234960   3.241   3.094  19.546
 7778SOL     OW34961   0.815   3.123  27.852
 7778SOL    HW134962   0.885   3.177  27.814
 7778SOL    HW234963   0.858   3.073  27.921
 7779SOL     OW34964   3.848   0.027   3.002
 7779SOL    HW134965   3.858   0.087   2.928
 7779SOL    HW234966   3.892   4.728   2.975
 7780SOL     OW34967   3.852   1.235   9.061
 7780SOL    HW134968   3.937   1.202   9.030
 7780SOL    HW234969   3.788   1.179   9.017
 7781SOL     OW34970   3.840   4.157  25.926
 7781SOL    HW134971   3.822   4.153  25.832
 7781SOL    HW234972   3.798   4.080  25.963
 7782SOL     OW34973   0.565   0.996  24.755
 7782SOL    HW134974   0.469   1.004  24.752
 7782SOL    HW234975   0.593   1.019  24.667
 7783SOL     OW34976   0.776   2.489   8.087
 7783SOL    HW134977   0.868   2.499   8.064
 7783SOL    HW234978   0.756   2.565   8.141
 7784SOL     OW34979   0.893   1.238   9.754
 7784SOL    HW134980   0.883   1.329   9.727
 7784SOL    HW234981   0.871   1.238   9.847
 7785SOL     OW34982   4.548   0.732  10.320
 7785SOL    HW134983   4.606   0.659  10.342
 7785SOL    HW234984   4.469   0.691  10.285
 7786SOL     OW34985   4.093   4.642  25.129
 7786SOL    HW134986   4.182   4.675  25.116
 7786SOL    HW234987   4.051   4.709  25.183
 7787SOL     OW34988   0.854   1.038  28.382
 7787SOL    HW134989   0.783   1.010  28.440
 7787SOL    HW234990   0.893   1.113  28.427
 7788SOL     OW34991   0.378   3.622  22.427
 7788SOL    HW134992   0.455   3.655  22.381
 7788SOL    HW234993   0.304   3.660  22.380
 7789SOL     OW34994   3.872   1.334  11.647
 7789SOL    HW134995   3.893   1.307  11.736
 7789SOL    HW234996   3.778   1.316  11.638
 7790SOL     OW34997   3.268   4.395   1.582
 7790SOL    HW134998   3.240   4.441   1.503
 7790SOL    HW234999   3.306   4.313   1.549
 7791SOL     OW35000   2.401   4.010  26.116
 7791SOL    HW135001   2.479   4.064  26.105
 7791SOL    HW235002   2.399   3.989  26.210
 7792SOL     OW35003   2.498   0.034   0.643
 7792SOL    HW135004   2.580   4.776   0.672
 7792SOL    HW235005   2.499   0.122   0.681
 7793SOL     OW35006   0.564   4.673  25.422
 7793SOL    HW135007   0.541   4.667  25.329
 7793SOL    HW235008   0.563   4.767  25.440
 7794SOL     OW35009   3.919   1.726  22.050
 7794SOL    HW135010   3.945   1.699  21.962
 7794SOL    HW235011   3.993   1.778  22.081
 7795SOL     OW35012   2.094   3.921  21.249
 7795SOL    HW135013   2.105   3.964  21.334
 7795SOL    HW235014   2.002   3.934  21.227
 7796SOL     OW35015   0.145   4.579   7.341
 7796SOL    HW135016   0.054   4.609   7.344
 7796SOL    HW235017   0.139   4.484   7.351
 7797SOL     OW35018   1.913   4.444  21.487
 7797SOL    HW135019   1.857   4.498  21.431
 7797SOL    HW235020   1.860   4.430  21.566
 7798SOL     OW35021   2.258   2.520  26.232
 7798SOL    HW135022   2.349   2.529  26.203
 7798SOL    HW235023   2.226   2.443  26.185
 7799SOL     OW35024   0.127   1.082   2.111
 7799SOL    HW135025   0.208   1.066   2.063
 7799SOL    HW235026   0.137   1.171   2.146
 7800SOL     OW35027   2.233   1.654   5.917
 7800SOL    HW135028   2.320   1.621   5.940
 7800SOL    HW235029   2.216   1.617   5.830
 7801SOL     OW35030   4.328   3.624  10.673
 7801SOL    HW135031   4.290   3.696  10.723
 7801SOL    HW235032   4.309   3.546  10.725
 7802SOL     OW35033   4.715   1.913   4.987
 7802SOL    HW135034   4.652   1.869   5.044
 7802SOL    HW235035   4.742   1.991   5.036
 7803SOL     OW35036   0.471   3.984   6.334
 7803SOL    HW135037   0.451   3.998   6.427
 7803SOL    HW235038   0.388   3.957   6.295
 7804SOL     OW35039   0.328   1.675  20.953
 7804SOL    HW135040   0.346   1.585  20.926
 7804SOL    HW235041   0.304   1.668  21.046
 7805SOL     OW35042   2.306   0.050  22.155
 7805SOL    HW135043   2.331   4.765  22.219
 7805SOL    HW235044   2.381   0.110  22.153
 7806SOL     OW35045   4.340   1.939  10.641
 7806SOL    HW135046   4.335   1.944  10.736
 7806SOL    HW235047   4.290   1.861  10.618
 7807SOL     OW35048   1.278   4.126   9.808
 7807SOL    HW135049   1.197   4.168   9.781
 7807SOL    HW235050   1.319   4.189   9.867
 7808SOL     OW35051   3.772   4.238   7.942
 7808SOL    HW135052   3.706   4.272   7.881
 7808SOL    HW235053   3.742   4.268   8.028
 7809SOL     OW35054   3.359   4.114  22.348
 7809SOL    HW135055   3.381   4.021  22.338
 7809SOL    HW235056   3.419   4.146  22.415
 7810SOL     OW35057   4.585   1.860  24.801
 7810SOL    HW135058   4.645   1.915  24.751
 7810SOL    HW235059   4.581   1.778  24.752
 7811SOL     OW35060   3.393   3.830   5.605
 7811SOL    HW135061   3.418   3.868   5.689
 7811SOL    HW235062   3.297   3.829   5.608
 7812SOL     OW35063   0.799   1.305   0.078
 7812SOL    HW135064   0.757   1.220   0.089
 7812SOL    HW235065   0.745   1.350   0.013
 7813SOL     OW35066   2.451   3.608   7.102
 7813SOL    HW135067   2.544   3.618   7.082
 7813SOL    HW235068   2.445   3.613   7.197
 7814SOL     OW35069   2.881   1.272   4.499
 7814SOL    HW135070   2.955   1.248   4.443
 7814SOL    HW235071   2.838   1.190   4.519
 7815SOL     OW35072   2.974   4.422  11.282
 7815SOL    HW135073   2.888   4.463  11.290
 7815SOL    HW235074   3.008   4.420  11.371
 7816SOL     OW35075   2.070   2.839  25.348
 7816SOL    HW135076   2.027   2.765  25.306
 7816SOL    HW235077   2.006   2.870  25.413
 7817SOL     OW35078   3.134   0.987  20.750
 7817SOL    HW135079   3.127   0.977  20.655
 7817SOL    HW235080   3.043   1.000  20.779
 7818SOL     OW35081   1.482   3.801  24.524
 7818SOL    HW135082   1.436   3.753  24.593
 7818SOL    HW235083   1.452   3.892  24.534
 7819SOL     OW35084   0.597   4.534   1.814
 7819SOL    HW135085   0.654   4.603   1.848
 7819SOL    HW235086   0.592   4.553   1.720
 7820SOL     OW35087   1.515   1.389  18.954
 7820SOL    HW135088   1.457   1.461  18.979
 7820SOL    HW235089   1.480   1.357  18.871
 7821SOL     OW35090   1.534   3.870   3.807
 7821SOL    HW135091   1.454   3.895   3.762
 7821SOL    HW235092   1.513   3.788   3.851
 7822SOL     OW35093   3.097   4.109   7.395
 7822SOL    HW135094   3.131   4.153   7.473
 7822SOL    HW235095   3.005   4.093   7.415
 7823SOL     OW35096   2.020   4.298  28.481
 7823SOL    HW135097   2.047   4.285   0.049
 7823SOL    HW235098   2.011   4.209  28.446
 7824SOL     OW35099   2.738   4.668   0.644
 7824SOL    HW135100   2.715   4.627   0.560
 7824SOL    HW235101   2.799   4.738   0.620
 7825SOL     OW35102   3.106   0.984  10.114
 7825SOL    HW135103   3.050   1.054  10.079
 7825SOL    HW235104   3.141   1.021  10.195
 7826SOL     OW35105   3.490   4.601  25.106
 7826SOL    HW135106   3.396   4.614  25.098
 7826SOL    HW235107   3.528   4.687  25.086
 7827SOL     OW35108   4.466   1.325  22.800
 7827SOL    HW135109   4.456   1.391  22.732
 7827SOL    HW235110   4.558   1.333  22.828
 7828SOL     OW35111   0.266   3.263  27.129
 7828SOL    HW135112   0.304   3.234  27.212
 7828SOL    HW235113   0.340   3.296  27.079
 7829SOL     OW35114   2.850   3.883  28.470
 7829SOL    HW135115   2.881   3.793  28.455
 7829SOL    HW235116   2.843   3.921  28.382
 7830SOL     OW35117   0.297   2.247   3.594
 7830SOL    HW135118   0.354   2.222   3.667
 7830SOL    HW235119   0.330   2.333   3.567
 7831SOL     OW35120   1.061   2.516  19.782
 7831SOL    HW135121   1.087   2.544  19.870
 7831SOL    HW235122   1.136   2.539  19.726
 7832SOL     OW35123   0.136   1.729   4.983
 7832SOL    HW135124   0.143   1.705   5.075
 7832SOL    HW235125   0.052   1.774   4.975
 7833SOL     OW35126   3.155   2.328  17.752
 7833SOL    HW135127   3.085   2.314  17.688
 7833SOL    HW235128   3.118   2.388  17.817
 7834SOL     OW35129   3.102   1.287  23.557
 7834SOL    HW135130   3.174   1.245  23.604
 7834SOL    HW235131   3.050   1.330  23.625
 7835SOL     OW35132   1.199   0.641   2.685
 7835SOL    HW135133   1.227   0.693   2.609
 7835SOL    HW235134   1.258   0.565   2.684
 7836SOL     OW35135   1.954   4.581  20.601
 7836SOL    HW135136   1.880   4.569  20.661
 7836SOL    HW235137   2.029   4.547  20.650
 7837SOL     OW35138   4.734   2.897  26.338
 7837SOL    HW135139   4.691   2.970  26.293
 7837SOL    HW235140   0.027   2.937  26.383
 7838SOL     OW35141   3.286   1.841   6.240
 7838SOL    HW135142   3.364   1.809   6.196
 7838SOL    HW235143   3.319   1.896   6.311
 7839SOL     OW35144   2.967   2.102  20.259
 7839SOL    HW135145   3.005   2.055  20.184
 7839SOL    HW235146   3.009   2.062  20.335
 7840SOL     OW35147   4.719   1.905  28.086
 7840SOL    HW135148   4.653   1.858  28.035
 7840SOL    HW235149   4.737   1.984  28.036
 7841SOL     OW35150   3.720   2.724  28.511
 7841SOL    HW135151   3.772   2.762  28.441
 7841SOL    HW235152   3.728   2.629  28.498
 7842SOL     OW35153   3.535   3.789   3.237
 7842SOL    HW135154   3.465   3.803   3.300
 7842SOL    HW235155   3.593   3.726   3.279
 7843SOL     OW35156   0.499   1.608  22.229
 7843SOL    HW135157   0.519   1.545  22.160
 7843SOL    HW235158   0.580   1.657  22.241
 7844SOL     OW35159   4.327   0.843  24.843
 7844SOL    HW135160   4.389   0.876  24.908
 7844SOL    HW235161   4.335   0.748  24.846
 7845SOL     OW35162   2.383   1.037   8.248
 7845SOL    HW135163   2.468   1.036   8.291
 7845SOL    HW235164   2.380   0.956   8.197
 7846SOL     OW35165   2.853   0.983   9.882
 7846SOL    HW135166   2.846   0.982   9.978
 7846SOL    HW235167   2.947   0.970   9.866
 7847SOL     OW35168   2.380   2.005  22.195
 7847SOL    HW135169   2.436   2.066  22.244
 7847SOL    HW235170   2.309   1.984  22.256
 7848SOL     OW35171   0.060   4.710   1.322
 7848SOL    HW135172   0.047   0.004   1.381
 7848SOL    HW235173   4.767   4.715   1.262
 7849SOL     OW35174   1.707   1.812   5.995
 7849SOL    HW135175   1.697   1.726   6.034
 7849SOL    HW235176   1.773   1.856   6.049
 7850SOL     OW35177   2.343   0.654   2.052
 7850SOL    HW135178   2.335   0.735   2.002
 7850SOL    HW235179   2.353   0.586   1.985
 7851SOL     OW35180   4.637   3.399   4.454
 7851SOL    HW135181   4.722   3.403   4.498
 7851SOL    HW235182   4.612   3.307   4.459
 7852SOL     OW35183   1.177   1.956   6.965
 7852SOL    HW135184   1.142   2.045   6.956
 7852SOL    HW235185   1.272   1.968   6.970
 7853SOL     OW35186   3.778   2.150  26.188
 7853SOL    HW135187   3.683   2.153  26.175
 7853SOL    HW235188   3.797   2.058  26.206
 7854SOL     OW35189   3.146   0.840   4.831
 7854SOL    HW135190   3.129   0.822   4.923
 7854SOL    HW235191   3.132   0.757   4.787
 7855SOL     OW35192   1.104   1.176  20.767
 7855SOL    HW135193   1.012   1.176  20.793
 7855SOL    HW235194   1.134   1.265  20.787
 7856SOL     OW35195   4.590   0.262   1.899
 7856SOL    HW135196   4.551   0.199   1.961
 7856SOL    HW235197   4.519   0.322   1.878
 7857SOL     OW35198   1.361   4.730  10.355
 7857SOL    HW135199   1.307   0.018  10.316
 7857SOL    HW235200   1.396   4.769  10.435
 7858SOL     OW35201   1.916   4.521  17.210
 7858SOL    HW135202   1.949   4.608  17.233
 7858SOL    HW235203   1.988   4.461  17.228
 7859SOL     OW35204   1.278   1.552  23.751
 7859SOL    HW135205   1.244   1.471  23.715
 7859SOL    HW235206   1.220   1.572  23.825
 7860SOL     OW35207   0.479   3.626   9.110
 7860SOL    HW135208   0.513   3.707   9.147
 7860SOL    HW235209   0.395   3.613   9.154
 7861SOL     OW35210   2.710   3.599  21.038
 7861SOL    HW135211   2.757   3.620  20.958
 7861SOL    HW235212   2.648   3.671  21.049
 7862SOL     OW35213   0.630   2.333   2.791
 7862SOL    HW135214   0.706   2.281   2.816
 7862SOL    HW235215   0.662   2.390   2.721
 7863SOL     OW35216   2.496   0.151  19.588
 7863SOL    HW135217   2.433   0.131  19.519
 7863SOL    HW235218   2.540   0.068  19.605
 7864SOL     OW35219   4.723   3.536  21.500
 7864SOL    HW135220   4.655   3.603  21.492
 7864SOL    HW235221   4.701   3.471  21.432
 7865SOL     OW35222   0.840   1.064  25.334
 7865SOL    HW135223   0.751   1.041  25.307
 7865SOL    HW235224   0.829   1.107  25.419
 7866SOL     OW35225   0.759   4.482  20.587
 7866SOL    HW135226   0.731   4.569  20.559
 7866SOL    HW235227   0.761   4.431  20.506
 7867SOL     OW35228   2.260   3.328   2.666
 7867SOL    HW135229   2.272   3.357   2.575
 7867SOL    HW235230   2.290   3.237   2.666
 7868SOL     OW35231   3.720   3.743   1.774
 7868SOL    HW135232   3.809   3.751   1.808
 7868SOL    HW235233   3.731   3.732   1.680
 7869SOL     OW35234   0.588   3.475   0.564
 7869SOL    HW135235   0.549   3.557   0.594
 7869SOL    HW235236   0.567   3.412   0.633
 7870SOL     OW35237   2.023   0.537  21.765
 7870SOL    HW135238   2.022   0.507  21.674
 7870SOL    HW235239   2.112   0.517  21.796
 7871SOL     OW35240   2.714   3.008  28.468
 7871SOL    HW135241   2.682   2.920  28.487
 7871SOL    HW235242   2.801   2.995  28.432
 7872SOL     OW35243   2.510   2.702   4.229
 7872SOL    HW135244   2.512   2.794   4.256
 7872SOL    HW235245   2.588   2.663   4.269
 7873SOL     OW35246   1.948   0.044   3.824
 7873SOL    HW135247   2.031   0.033   3.871
 7873SOL    HW235248   1.938   4.744   3.774
 7874SOL     OW35249   0.153   3.642  20.861
 7874SOL    HW135250   0.229   3.699  20.867
 7874SOL    HW235251   0.171   3.584  20.787
 7875SOL     OW35252   4.653   3.251   6.576
 7875SOL    HW135253   4.649   3.169   6.624
 7875SOL    HW235254   4.569   3.294   6.594
 7876SOL     OW35255   1.242   2.001   1.734
 7876SOL    HW135256   1.193   2.067   1.685
 7876SOL    HW235257   1.261   1.933   1.670
 7877SOL     OW35258   3.886   4.654   2.346
 7877SOL    HW135259   3.844   4.632   2.263
 7877SOL    HW235260   3.826   4.620   2.413
 7878SOL     OW35261   2.676   1.708   4.824
 7878SOL    HW135262   2.675   1.623   4.869
 7878SOL    HW235263   2.590   1.715   4.784
 7879SOL     OW35264   4.355   3.306   1.332
 7879SOL    HW135265   4.446   3.306   1.300
 7879SOL    HW235266   4.302   3.293   1.254
 7880SOL     OW35267   1.479   1.044  26.213
 7880SOL    HW135268   1.547   1.109  26.231
 7880SOL    HW235269   1.482   1.032  26.118
 7881SOL     OW35270   3.863   2.146  18.803
 7881SOL    HW135271   3.806   2.129  18.728
 7881SOL    HW235272   3.895   2.059  18.829
 7882SOL     OW35273   2.435   4.610   4.406
 7882SOL    HW135274   2.368   4.643   4.346
 7882SOL    HW235275   2.501   4.679   4.408
 7883SOL     OW35276   0.411   4.026   5.235
 7883SOL    HW135277   0.397   4.038   5.329
 7883SOL    HW235278   0.468   4.098   5.209
 7884SOL     OW35279   1.808   0.673  20.647
 7884SOL    HW135280   1.788   0.739  20.582
 7884SOL    HW235281   1.758   0.596  20.619
 7885SOL     OW35282   1.235   4.024  28.402
 7885SOL    HW135283   1.180   4.075  28.461
 7885SOL    HW235284   1.321   4.066  28.407
 7886SOL     OW35285   0.144   1.880  17.000
 7886SOL    HW135286   0.168   1.930  17.078
 7886SOL    HW235287   0.174   1.933  16.927
 7887SOL     OW35288   2.156   1.308  26.283
 7887SOL    HW135289   2.143   1.315  26.188
 7887SOL    HW235290   2.191   1.393  26.309
 7888SOL     OW35291   4.320   0.515  27.824
 7888SOL    HW135292   4.392   0.521  27.887
 7888SOL    HW235293   4.350   0.564  27.748
 7889SOL     OW35294   4.712   4.690   8.267
 7889SOL    HW135295   0.018   4.651   8.255
 7889SOL    HW235296   4.658   4.617   8.298
 7890SOL     OW35297   2.319   2.905  26.497
 7890SOL    HW135298   2.412   2.883  26.490
 7890SOL    HW235299   2.276   2.850  26.431
 7891SOL     OW35300   3.392   4.625   6.293
 7891SOL    HW135301   3.468   4.661   6.249
 7891SOL    HW235302   3.321   4.686   6.274
 7892SOL     OW35303   3.240   4.652  25.099
 7892SOL    HW135304   3.196   4.718  25.044
 7892SOL    HW235305   3.172   4.587  25.118
 7893SOL     OW35306   1.843   1.686  21.892
 7893SOL    HW135307   1.937   1.674  21.909
 7893SOL    HW235308   1.836   1.677  21.797
 7894SOL     OW35309   4.280   0.305  26.075
 7894SOL    HW135310   4.260   0.397  26.092
 7894SOL    HW235311   4.261   0.294  25.982
 7895SOL     OW35312   2.156   1.465   2.749
 7895SOL    HW135313   2.191   1.517   2.676
 7895SOL    HW235314   2.066   1.444   2.723
 7896SOL     OW35315   3.492   3.335   8.436
 7896SOL    HW135316   3.531   3.423   8.441
 7896SOL    HW235317   3.398   3.351   8.425
 7897SOL     OW35318   3.636   1.771  27.567
 7897SOL    HW135319   3.608   1.805  27.652
 7897SOL    HW235320   3.730   1.787  27.564
 7898SOL     OW35321   3.302   0.842   6.155
 7898SOL    HW135322   3.210   0.858   6.173
 7898SOL    HW235323   3.314   0.867   6.064
 7899SOL     OW35324   1.427   1.452  21.143
 7899SOL    HW135325   1.477   1.498  21.075
 7899SOL    HW235326   1.470   1.367  21.150
 7900SOL     OW35327   4.104   1.766  11.934
 7900SOL    HW135328   4.190   1.780  11.895
 7900SOL    HW235329   4.113   1.798  12.024
 7901SOL     OW35330   1.698   1.614   5.565
 7901SOL    HW135331   1.735   1.546   5.509
 7901SOL    HW235332   1.685   1.688   5.506
 7902SOL     OW35333   0.105   3.637  21.904
 7902SOL    HW135334   0.140   3.603  21.986
 7902SOL    HW235335   0.182   3.664  21.854
 7903SOL     OW35336   1.293   3.438   8.953
 7903SOL    HW135337   1.275   3.388   8.873
 7903SOL    HW235338   1.386   3.424   8.970
 7904SOL     OW35339   2.886   2.866   8.330
 7904SOL    HW135340   2.931   2.948   8.349
 7904SOL    HW235341   2.834   2.885   8.251
 7905SOL     OW35342   2.662   4.084  22.052
 7905SOL    HW135343   2.655   4.177  22.073
 7905SOL    HW235344   2.577   4.061  22.015
 7906SOL     OW35345   3.852   3.810  19.457
 7906SOL    HW135346   3.814   3.819  19.369
 7906SOL    HW235347   3.943   3.788  19.441
 7907SOL     OW35348   0.883   4.643  23.261
 7907SOL    HW135349   0.932   4.698  23.322
 7907SOL    HW235350   0.869   4.561  23.308
 7908SOL     OW35351   1.055   0.397  17.051
 7908SOL    HW135352   1.118   0.356  16.992
 7908SOL    HW235353   0.971   0.355  17.029
 7909SOL     OW35354   3.898   1.552  12.009
 7909SOL    HW135355   3.962   1.485  12.031
 7909SOL    HW235356   3.823   1.533  12.065
 7910SOL     OW35357   4.399   0.384   1.369
 7910SOL    HW135358   4.322   0.438   1.389
 7910SOL    HW235359   4.470   0.446   1.356
 7911SOL     OW35360   2.294   3.289  20.721
 7911SOL    HW135361   2.236   3.359  20.749
 7911SOL    HW235362   2.261   3.211  20.767
 7912SOL     OW35363   2.185   0.921  23.803
 7912SOL    HW135364   2.185   0.893  23.711
 7912SOL    HW235365   2.224   1.009  23.800
 7913SOL     OW35366   3.811   0.933  25.406
 7913SOL    HW135367   3.794   0.936  25.500
 7913SOL    HW235368   3.786   1.020  25.375
 7914SOL     OW35369   2.866   2.563  10.305
 7914SOL    HW135370   2.860   2.612  10.386
 7914SOL    HW235371   2.784   2.581  10.259
 7915SOL     OW35372   3.749   2.935  27.726
 7915SOL    HW135373   3.801   2.928  27.646
 7915SOL    HW235374   3.661   2.954  27.695
 7916SOL     OW35375   0.598   3.900  22.018
 7916SOL    HW135376   0.601   3.809  21.987
 7916SOL    HW235377   0.536   3.898  22.091
 7917SOL     OW35378   2.944   0.832  27.474
 7917SOL    HW135379   3.039   0.838  27.460
 7917SOL    HW235380   2.929   0.882  27.554
 7918SOL     OW35381   2.387   1.464  26.899
 7918SOL    HW135382   2.451   1.447  26.968
 7918SOL    HW235383   2.302   1.453  26.942
 7919SOL     OW35384   1.316   3.656   7.411
 7919SOL    HW135385   1.319   3.618   7.323
 7919SOL    HW235386   1.400   3.701   7.421
 7920SOL     OW35387   3.283   0.762  22.978
 7920SOL    HW135388   3.240   0.679  22.956
 7920SOL    HW235389   3.331   0.785  22.899
 7921SOL     OW35390   3.635   1.037  24.089
 7921SOL    HW135391   3.633   1.132  24.096
 7921SOL    HW235392   3.552   1.008  24.128
 7922SOL     OW35393   2.335   4.255  11.035
 7922SOL    HW135394   2.256   4.306  11.047
 7922SOL    HW235395   2.402   4.301  11.086
 7923SOL     OW35396   3.952   0.298  25.653
 7923SOL    HW135397   3.992   0.221  25.613
 7923SOL    HW235398   4.024   0.340  25.700
 7924SOL     OW35399   2.986   0.034   0.565
 7924SOL    HW135400   2.952   4.769   0.488
 7924SOL    HW235401   3.075   0.001   0.576
 7925SOL     OW35402   1.520   0.854  17.643
 7925SOL    HW135403   1.468   0.801  17.582
 7925SOL    HW235404   1.530   0.798  17.720
 7926SOL     OW35405   4.245   3.863   0.052
 7926SOL    HW135406   4.235   3.788   0.110
 7926SOL    HW235407   4.160   3.907   0.056
 7927SOL     OW35408   1.791   0.507   6.527
 7927SOL    HW135409   1.844   0.582   6.554
 7927SOL    HW235410   1.801   0.445   6.599
 7928SOL     OW35411   3.313   2.995  19.004
 7928SOL    HW135412   3.229   2.966  19.041
 7928SOL    HW235413   3.343   2.921  18.952
 7929SOL     OW35414   1.277   4.051  26.916
 7929SOL    HW135415   1.271   4.140  26.881
 7929SOL    HW235416   1.192   4.012  26.896
 7930SOL     OW35417   2.559   3.361  23.136
 7930SOL    HW135418   2.567   3.282  23.189
 7930SOL    HW235419   2.633   3.415  23.162
 7931SOL     OW35420   2.852   0.612   1.783
 7931SOL    HW135421   2.927   0.553   1.794
 7931SOL    HW235422   2.782   0.556   1.751
 7932SOL     OW35423   4.385   0.702  27.624
 7932SOL    HW135424   4.393   0.797  27.612
 7932SOL    HW235425   4.352   0.670  27.540
 7933SOL     OW35426   2.285   0.268  26.789
 7933SOL    HW135427   2.256   0.294  26.876
 7933SOL    HW235428   2.381   0.269  26.794
 7934SOL     OW35429   1.586   3.833   9.896
 7934SOL    HW135430   1.599   3.924   9.869
 7934SOL    HW235431   1.492   3.820   9.890
 7935SOL     OW35432   2.854   3.828   6.693
 7935SOL    HW135433   2.762   3.832   6.719
 7935SOL    HW235434   2.855   3.866   6.605
 7936SOL     OW35435   2.852   0.248  27.158
 7936SOL    HW135436   2.920   0.313  27.173
 7936SOL    HW235437   2.875   0.174  27.214
 7937SOL     OW35438   2.441   3.371  10.396
 7937SOL    HW135439   2.401   3.405  10.317
 7937SOL    HW235440   2.387   3.297  10.421
 7938SOL     OW35441   1.610   4.004   1.327
 7938SOL    HW135442   1.613   4.098   1.343
 7938SOL    HW235443   1.553   3.970   1.396
 7939SOL     OW35444   3.344   4.179  20.094
 7939SOL    HW135445   3.346   4.129  20.013
 7939SOL    HW235446   3.335   4.112  20.163
 7940SOL     OW35447   0.486   3.498   8.879
 7940SOL    HW135448   0.579   3.472   8.874
 7940SOL    HW235449   0.478   3.538   8.965
 7941SOL     OW35450   4.117   1.270   7.626
 7941SOL    HW135451   4.093   1.332   7.557
 7941SOL    HW235452   4.098   1.317   7.708
 7942SOL     OW35453   4.616   2.191  23.480
 7942SOL    HW135454   4.581   2.265  23.431
 7942SOL    HW235455   4.711   2.206  23.481
 7943SOL     OW35456   2.176   4.577  26.666
 7943SOL    HW135457   2.240   4.585  26.596
 7943SOL    HW235458   2.212   4.510  26.725
 7944SOL     OW35459   4.558   4.377   6.438
 7944SOL    HW135460   4.635   4.434   6.432
 7944SOL    HW235461   4.586   4.306   6.495
 7945SOL     OW35462   3.061   3.535   6.196
 7945SOL    HW135463   2.983   3.566   6.242
 7945SOL    HW235464   3.052   3.440   6.196
 7946SOL     OW35465   4.059   3.549  21.274
 7946SOL    HW135466   4.048   3.535  21.180
 7946SOL    HW235467   3.970   3.553  21.308
 7947SOL     OW35468   2.585   1.815   2.714
 7947SOL    HW135469   2.664   1.856   2.751
 7947SOL    HW235470   2.605   1.722   2.712
 7948SOL     OW35471   4.008   2.163  20.051
 7948SOL    HW135472   3.916   2.154  20.025
 7948SOL    HW235473   4.016   2.109  20.129
 7949SOL     OW35474   3.180   1.813  20.334
 7949SOL    HW135475   3.263   1.773  20.359
 7949SOL    HW235476   3.194   1.844  20.244
 7950SOL     OW35477   0.467   0.661   7.841
 7950SOL    HW135478   0.562   0.661   7.843
 7950SOL    HW235479   0.444   0.621   7.757
 7951SOL     OW35480   0.031   3.154   6.099
 7951SOL    HW135481   4.722   3.164   6.129
 7951SOL    HW235482   0.032   3.071   6.052
 7952SOL     OW35483   2.320   1.385   6.370
 7952SOL    HW135484   2.278   1.349   6.449
 7952SOL    HW235485   2.252   1.437   6.328
 7953SOL     OW35486   3.928   0.191   4.048
 7953SOL    HW135487   3.945   0.202   3.954
 7953SOL    HW235488   4.006   0.147   4.082
 7954SOL     OW35489   3.571   1.625  28.385
 7954SOL    HW135490   3.656   1.585  28.398
 7954SOL    HW235491   3.585   1.690  28.316
 7955SOL     OW35492   4.491   2.611   5.130
 7955SOL    HW135493   4.400   2.610   5.103
 7955SOL    HW235494   4.531   2.681   5.078
 7956SOL     OW35495   0.696   3.144  18.701
 7956SOL    HW135496   0.713   3.160  18.608
 7956SOL    HW235497   0.689   3.048  18.707
 7957SOL     OW35498   3.543   3.242   6.935
 7957SOL    HW135499   3.566   3.184   7.008
 7957SOL    HW235500   3.565   3.192   6.857
 7958SOL     OW35501   3.501   2.387  19.339
 7958SOL    HW135502   3.411   2.414  19.320
 7958SOL    HW235503   3.497   2.292  19.349
 7959SOL     OW35504   0.250   4.552   3.840
 7959SOL    HW135505   0.177   4.560   3.778
 7959SOL    HW235506   0.218   4.594   3.920
 7960SOL     OW35507   4.694   3.239  24.962
 7960SOL    HW135508   4.764   3.260  24.900
 7960SOL    HW235509   4.723   3.158  25.004
 7961SOL     OW35510   3.213   0.571  24.637
 7961SOL    HW135511   3.300   0.538  24.617
 7961SOL    HW235512   3.154   0.510  24.592
 7962SOL     OW35513   1.726   1.991  19.921
 7962SOL    HW135514   1.647   2.032  19.888
 7962SOL    HW235515   1.695   1.926  19.985
 7963SOL     OW35516   3.719   3.229  22.716
 7963SOL    HW135517   3.648   3.290  22.701
 7963SOL    HW235518   3.781   3.276  22.771
 7964SOL     OW35519   4.267   0.239   3.747
 7964SOL    HW135520   4.358   0.259   3.727
 7964SOL    HW235521   4.223   0.237   3.662
 7965SOL     OW35522   0.435   2.532   4.209
 7965SOL    HW135523   0.439   2.439   4.185
 7965SOL    HW235524   0.526   2.556   4.226
 7966SOL     OW35525   3.456   0.528   2.380
 7966SOL    HW135526   3.486   0.503   2.467
 7966SOL    HW235527   3.537   0.539   2.329
 7967SOL     OW35528   3.353   3.993  23.695
 7967SOL    HW135529   3.435   3.951  23.723
 7967SOL    HW235530   3.376   4.085  23.686
 7968SOL     OW35531   0.694   3.756   6.340
 7968SOL    HW135532   0.735   3.776   6.256
 7968SOL    HW235533   0.626   3.823   6.350
 7969SOL     OW35534   0.092   0.187  21.815
 7969SOL    HW135535   4.778   0.170  21.819
 7969SOL    HW235536   0.104   0.269  21.863
 7970SOL     OW35537   1.010   3.262   1.225
 7970SOL    HW135538   1.025   3.168   1.237
 7970SOL    HW235539   1.044   3.281   1.138
 7971SOL     OW35540   3.848   1.847  11.988
 7971SOL    HW135541   3.753   1.857  11.983
 7971SOL    HW235542   3.869   1.862  12.081
 7972SOL     OW35543   2.203   2.840   2.058
 7972SOL    HW135544   2.116   2.865   2.027
 7972SOL    HW235545   2.238   2.920   2.098
 7973SOL     OW35546   3.889   4.122  23.356
 7973SOL    HW135547   3.826   4.182  23.317
 7973SOL    HW235548   3.842   4.080  23.428
 7974SOL     OW35549   0.902   3.600   9.698
 7974SOL    HW135550   0.872   3.687   9.673
 7974SOL    HW235551   0.822   3.551   9.716
 7975SOL     OW35552   0.611   1.264   4.881
 7975SOL    HW135553   0.555   1.332   4.919
 7975SOL    HW235554   0.563   1.183   4.896
 7976SOL     OW35555   1.574   2.744  26.954
 7976SOL    HW135556   1.598   2.774  26.866
 7976SOL    HW235557   1.609   2.812  27.012
 7977SOL     OW35558   4.511   3.439   6.091
 7977SOL    HW135559   4.592   3.465   6.047
 7977SOL    HW235560   4.442   3.466   6.031
 7978SOL     OW35561   3.571   1.168  27.245
 7978SOL    HW135562   3.587   1.124  27.162
 7978SOL    HW235563   3.656   1.168  27.289
 7979SOL     OW35564   1.965   1.072  22.109
 7979SOL    HW135565   2.039   1.055  22.051
 7979SOL    HW235566   1.899   1.114  22.053
 7980SOL     OW35567   3.513   1.477  25.624
 7980SOL    HW135568   3.559   1.490  25.707
 7980SOL    HW235569   3.426   1.447  25.650
 7981SOL     OW35570   3.683   4.489   0.026
 7981SOL    HW135571   3.726   4.497   0.111
 7981SOL    HW235572   3.606   4.435   0.043
 7982SOL     OW35573   4.226   0.118   9.294
 7982SOL    HW135574   4.224   0.124   9.390
 7982SOL    HW235575   4.255   0.205   9.265
 7983SOL     OW35576   2.638   2.350   6.017
 7983SOL    HW135577   2.609   2.289   6.084
 7983SOL    HW235578   2.715   2.308   5.979
 7984SOL     OW35579   2.077   0.831   8.433
 7984SOL    HW135580   1.989   0.868   8.419
 7984SOL    HW235581   2.096   0.783   8.353
 7985SOL     OW35582   4.445   2.613   7.318
 7985SOL    HW135583   4.425   2.613   7.411
 7985SOL    HW235584   4.466   2.704   7.298
 7986SOL     OW35585   3.454   3.757   1.399
 7986SOL    HW135586   3.398   3.784   1.326
 7986SOL    HW235587   3.455   3.662   1.394
 7987SOL     OW35588   1.067   2.688   2.710
 7987SOL    HW135589   1.112   2.666   2.628
 7987SOL    HW235590   1.044   2.780   2.701
 7988SOL     OW35591   2.819   4.637  23.889
 7988SOL    HW135592   2.726   4.650  23.908
 7988SOL    HW235593   2.836   4.694  23.814
 7989SOL     OW35594   2.854   4.378  22.132
 7989SOL    HW135595   2.833   4.325  22.055
 7989SOL    HW235596   2.947   4.400  22.122
 7990SOL     OW35597   0.712   0.135   4.512
 7990SOL    HW135598   0.634   0.080   4.520
 7990SOL    HW235599   0.752   0.106   4.430
 7991SOL     OW35600   1.582   4.198   8.029
 7991SOL    HW135601   1.586   4.140   7.952
 7991SOL    HW235602   1.569   4.139   8.103
 7992SOL     OW35603   0.851   2.978   5.680
 7992SOL    HW135604   0.848   3.030   5.760
 7992SOL    HW235605   0.874   3.040   5.611
 7993SOL     OW35606   0.476   2.964  23.148
 7993SOL    HW135607   0.489   2.870  23.140
 7993SOL    HW235608   0.461   2.979  23.242
 7994SOL     OW35609   1.501   3.334   6.199
 7994SOL    HW135610   1.510   3.418   6.244
 7994SOL    HW235611   1.489   3.270   6.270
 7995SOL     OW35612   3.962   2.041  21.963
 7995SOL    HW135613   3.882   2.012  21.921
 7995SOL    HW235614   3.997   2.108  21.904
 7996SOL     OW35615   3.706   3.555  20.889
 7996SOL    HW135616   3.623   3.601  20.900
 7996SOL    HW235617   3.690   3.495  20.817
 7997SOL     OW35618   3.991   1.792  26.958
 7997SOL    HW135619   3.968   1.825  27.044
 7997SOL    HW235620   4.033   1.708  26.975
 7998SOL     OW35621   1.699   4.676  24.432
 7998SOL    HW135622   1.747   4.756  24.409
 7998SOL    HW235623   1.658   4.696  24.516
 7999SOL     OW35624   2.397   2.095  25.530
 7999SOL    HW135625   2.303   2.079  25.538
 7999SOL    HW235626   2.433   2.070  25.615
 8000SOL     OW35627   1.464   1.500   1.222
 8000SOL    HW135628   1.381   1.543   1.199
 8000SOL    HW235629   1.440   1.431   1.283
 8001SOL     OW35630   1.156   4.352  11.585
 8001SOL    HW135631   1.155   4.300  11.665
 8001SOL    HW235632   1.197   4.435  11.610
 8002SOL     OW35633   1.062   3.833   9.709
 8002SOL    HW135634   1.120   3.843   9.633
 8002SOL    HW235635   1.054   3.739   9.722
 8003SOL     OW35636   1.097   2.399   4.302
 8003SOL    HW135637   1.095   2.411   4.208
 8003SOL    HW235638   1.100   2.304   4.314
 8004SOL     OW35639   1.939   3.979  25.250
 8004SOL    HW135640   1.863   4.021  25.209
 8004SOL    HW235641   1.910   3.957  25.338
 8005SOL     OW35642   0.030   2.636  25.214
 8005SOL    HW135643   4.751   2.711  25.217
 8005SOL    HW235644   0.103   2.666  25.161
 8006SOL     OW35645   3.111   4.635   8.704
 8006SOL    HW135646   3.158   4.657   8.623
 8006SOL    HW235647   3.156   4.558   8.738
 8007SOL     OW35648   2.082   0.443  25.689
 8007SOL    HW135649   2.177   0.435  25.680
 8007SOL    HW235650   2.050   0.450  25.599
 8008SOL     OW35651   3.913   2.193  20.780
 8008SOL    HW135652   3.968   2.251  20.833
 8008SOL    HW235653   3.825   2.230  20.788
 8009SOL     OW35654   1.972   2.086   4.678
 8009SOL    HW135655   1.992   2.172   4.715
 8009SOL    HW235656   1.896   2.101   4.622
 8010SOL     OW35657   2.628   2.904  11.889
 8010SOL    HW135658   2.545   2.859  11.872
 8010SOL    HW235659   2.654   2.939  11.804
 8011SOL     OW35660   2.088   1.040  24.163
 8011SOL    HW135661   2.038   0.962  24.141
 8011SOL    HW235662   2.098   1.086  24.079
 8012SOL     OW35663   4.547   4.550  21.880
 8012SOL    HW135664   4.455   4.576  21.868
 8012SOL    HW235665   4.597   4.626  21.848
 8013SOL     OW35666   4.523   0.899  27.026
 8013SOL    HW135667   4.526   0.844  26.947
 8013SOL    HW235668   4.439   0.878  27.066
 8014SOL     OW35669   1.529   0.013  23.105
 8014SOL    HW135670   1.447   4.760  23.067
 8014SOL    HW235671   1.596   4.773  23.039
 8015SOL     OW35672   0.948   0.593  27.090
 8015SOL    HW135673   0.989   0.656  27.150
 8015SOL    HW235674   1.020   0.538  27.061
 8016SOL     OW35675   0.544   0.732   1.014
 8016SOL    HW135676   0.558   0.655   0.960
 8016SOL    HW235677   0.462   0.714   1.061
 8017SOL     OW35678   0.838   0.707  20.367
 8017SOL    HW135679   0.821   0.647  20.439
 8017SOL    HW235680   0.807   0.792  20.398
 8018SOL     OW35681   2.758   4.455   4.693
 8018SOL    HW135682   2.665   4.448   4.674
 8018SOL    HW235683   2.762   4.505   4.774
 8019SOL     OW35684   1.323   3.899   4.657
 8019SOL    HW135685   1.260   3.831   4.636
 8019SOL    HW235686   1.332   3.949   4.576
 8020SOL     OW35687   3.602   4.265   0.691
 8020SOL    HW135688   3.574   4.202   0.625
 8020SOL    HW235689   3.535   4.334   0.689
 8021SOL     OW35690   0.096   3.584   0.258
 8021SOL    HW135691   0.058   3.570   0.171
 8021SOL    HW235692   0.085   3.678   0.274
 8022SOL     OW35693   0.192   0.282  24.117
 8022SOL    HW135694   0.212   0.215  24.052
 8022SOL    HW235695   0.097   0.278  24.126
 8023SOL     OW35696   3.619   1.462  20.412
 8023SOL    HW135697   3.708   1.498  20.410
 8023SOL    HW235698   3.590   1.474  20.502
 8024SOL     OW35699   3.587   1.889   5.358
 8024SOL    HW135700   3.498   1.863   5.381
 8024SOL    HW235701   3.576   1.942   5.279
 8025SOL     OW35702   2.846   4.330   6.640
 8025SOL    HW135703   2.805   4.407   6.599
 8025SOL    HW235704   2.896   4.290   6.569
 8026SOL     OW35705   2.187   4.285   2.633
 8026SOL    HW135706   2.110   4.298   2.688
 8026SOL    HW235707   2.209   4.372   2.601
 8027SOL     OW35708   0.845   1.858  25.847
 8027SOL    HW135709   0.766   1.894  25.807
 8027SOL    HW235710   0.861   1.915  25.922
 8028SOL     OW35711   4.155   0.909   3.269
 8028SOL    HW135712   4.078   0.894   3.213
 8028SOL    HW235713   4.144   0.998   3.301
 8029SOL     OW35714   1.457   1.364  23.509
 8029SOL    HW135715   1.541   1.329  23.539
 8029SOL    HW235716   1.400   1.357  23.585
 8030SOL     OW35717   1.488   0.061   7.697
 8030SOL    HW135718   1.404   0.022   7.719
 8030SOL    HW235719   1.521   0.006   7.626
 8031SOL     OW35720   1.586   2.025  27.874
 8031SOL    HW135721   1.622   2.091  27.934
 8031SOL    HW235722   1.654   1.958  27.870
 8032SOL     OW35723   4.019   1.555  11.758
 8032SOL    HW135724   4.113   1.535  11.756
 8032SOL    HW235725   3.978   1.482  11.713
 8033SOL     OW35726   1.480   3.770  21.161
 8033SOL    HW135727   1.429   3.764  21.081
 8033SOL    HW235728   1.571   3.762  21.133
 8034SOL     OW35729   3.530   1.127  28.191
 8034SOL    HW135730   3.517   1.153  28.282
 8034SOL    HW235731   3.589   1.194  28.155
 8035SOL     OW35732   2.641   2.597  21.041
 8035SOL    HW135733   2.723   2.612  20.993
 8035SOL    HW235734   2.625   2.503  21.032
 8036SOL     OW35735   1.750   4.663   1.111
 8036SOL    HW135736   1.828   4.630   1.157
 8036SOL    HW235737   1.782   4.689   1.025
 8037SOL     OW35738   4.387   0.362  17.565
 8037SOL    HW135739   4.470   0.320  17.585
 8037SOL    HW235740   4.396   0.391  17.474
 8038SOL     OW35741   0.778   3.700   4.830
 8038SOL    HW135742   0.822   3.700   4.915
 8038SOL    HW235743   0.817   3.625   4.783
 8039SOL     OW35744   2.872   2.175   8.500
 8039SOL    HW135745   2.860   2.114   8.572
 8039SOL    HW235746   2.925   2.128   8.436
 8040SOL     OW35747   4.516   0.132   8.511
 8040SOL    HW135748   4.457   0.168   8.576
 8040SOL    HW235749   4.601   0.127   8.556
 8041SOL     OW35750   0.739   1.251  21.486
 8041SOL    HW135751   0.690   1.169  21.486
 8041SOL    HW235752   0.805   1.239  21.555
 8042SOL     OW35753   4.725   4.168   7.080
 8042SOL    HW135754   0.028   4.140   7.045
 8042SOL    HW235755   4.664   4.098   7.056
 8043SOL     OW35756   1.171   3.146  27.214
 8043SOL    HW135757   1.101   3.126  27.278
 8043SOL    HW235758   1.193   3.061  27.175
 8044SOL     OW35759   2.566   1.734   7.764
 8044SOL    HW135760   2.616   1.766   7.689
 8044SOL    HW235761   2.480   1.777   7.756
 8045SOL     OW35762   0.953   0.759  23.405
 8045SOL    HW135763   0.890   0.699  23.446
 8045SOL    HW235764   1.038   0.733  23.441
 8046SOL     OW35765   2.704   0.383  28.337
 8046SOL    HW135766   2.720   0.475  28.357
 8046SOL    HW235767   2.633   0.357  28.396
 8047SOL     OW35768   1.147   0.708  25.172
 8047SOL    HW135769   1.077   0.694  25.108
 8047SOL    HW235770   1.113   0.776  25.230
 8048SOL     OW35771   2.093   3.974  27.021
 8048SOL    HW135772   2.036   3.995  27.095
 8048SOL    HW235773   2.136   3.892  27.046
 8049SOL     OW35774   4.174   3.296   2.316
 8049SOL    HW135775   4.192   3.251   2.398
 8049SOL    HW235776   4.084   3.270   2.294
 8050SOL     OW35777   2.459   4.778   2.104
 8050SOL    HW135778   2.531   0.029   2.048
 8050SOL    HW235779   2.476   0.036   2.189
 8051SOL     OW35780   0.374   0.770   4.671
 8051SOL    HW135781   0.414   0.683   4.672
 8051SOL    HW235782   0.354   0.789   4.763
 8052SOL     OW35783   4.222   2.746   8.464
 8052SOL    HW135784   4.182   2.672   8.509
 8052SOL    HW235785   4.171   2.756   8.384
 8053SOL     OW35786   1.083   0.021   8.553
 8053SOL    HW135787   1.028   0.097   8.535
 8053SOL    HW235788   1.172   0.055   8.549
 8054SOL     OW35789   2.562   3.710   6.420
 8054SOL    HW135790   2.612   3.787   6.448
 8054SOL    HW235791   2.561   3.717   6.324
 8055SOL     OW35792   2.755   2.990  26.777
 8055SOL    HW135793   2.688   2.993  26.845
 8055SOL    HW235794   2.825   2.935  26.814
 8056SOL     OW35795   1.350   0.993   9.775
 8056SOL    HW135796   1.388   1.077   9.799
 8056SOL    HW235797   1.256   1.004   9.790
 8057SOL     OW35798   3.700   1.365   5.596
 8057SOL    HW135799   3.608   1.391   5.600
 8057SOL    HW235800   3.740   1.404   5.673
 8058SOL     OW35801   3.339   1.043  26.532
 8058SOL    HW135802   3.269   1.082  26.585
 8058SOL    HW235803   3.306   1.046  26.443
 8059SOL     OW35804   3.248   1.836   5.722
 8059SOL    HW135805   3.211   1.889   5.652
 8059SOL    HW235806   3.333   1.808   5.689
 8060SOL     OW35807   1.176   1.223  26.402
 8060SOL    HW135808   1.168   1.212  26.497
 8060SOL    HW235809   1.264   1.258  26.390
 8061SOL     OW35810   1.006   2.646  22.379
 8061SOL    HW135811   0.978   2.688  22.461
 8061SOL    HW235812   1.095   2.617  22.396
 8062SOL     OW35813   0.854   0.624  20.657
 8062SOL    HW135814   0.893   0.538  20.639
 8062SOL    HW235815   0.787   0.606  20.723
 8063SOL     OW35816   0.735   4.601   8.051
 8063SOL    HW135817   0.676   4.627   7.981
 8063SOL    HW235818   0.745   4.679   8.105
 8064SOL     OW35819   4.164   0.967   4.720
 8064SOL    HW135820   4.207   0.888   4.751
 8064SOL    HW235821   4.155   1.022   4.797
 8065SOL     OW35822   3.967   2.636  21.667
 8065SOL    HW135823   3.920   2.647  21.585
 8065SOL    HW235824   3.976   2.725  21.702
 8066SOL     OW35825   2.466   4.642  10.316
 8066SOL    HW135826   2.495   4.625  10.405
 8066SOL    HW235827   2.533   4.700  10.279
 8067SOL     OW35828   4.035   2.061   3.098
 8067SOL    HW135829   4.005   2.095   3.183
 8067SOL    HW235830   4.127   2.089   3.093
 8068SOL     OW35831   0.287   0.025   5.379
 8068SOL    HW135832   0.269   0.078   5.456
 8068SOL    HW235833   0.204   4.765   5.357
 8069SOL     OW35834   3.294   0.986  25.290
 8069SOL    HW135835   3.330   1.005  25.204
 8069SOL    HW235836   3.275   1.071  25.328
 8070SOL     OW35837   2.002   1.224   5.765
 8070SOL    HW135838   1.951   1.262   5.836
 8070SOL    HW235839   1.936   1.195   5.701
 8071SOL     OW35840   1.337   4.036   9.548
 8071SOL    HW135841   1.358   4.056   9.639
 8071SOL    HW235842   1.244   4.013   9.549
 8072SOL     OW35843   3.425   0.006   6.889
 8072SOL    HW135844   3.448   4.698   6.914
 8072SOL    HW235845   3.498   0.036   6.835
 8073SOL     OW35846   1.653   2.811  21.588
 8073SOL    HW135847   1.571   2.815  21.539
 8073SOL    HW235848   1.627   2.819  21.679
 8074SOL     OW35849   0.688   1.852  25.443
 8074SOL    HW135850   0.616   1.803  25.481
 8074SOL    HW235851   0.648   1.934  25.412
 8075SOL     OW35852   4.112   2.336   4.445
 8075SOL    HW135853   4.092   2.393   4.519
 8075SOL    HW235854   4.142   2.254   4.485
 8076SOL     OW35855   1.930   3.423  23.966
 8076SOL    HW135856   1.862   3.362  23.940
 8076SOL    HW235857   1.896   3.509  23.942
 8077SOL     OW35858   1.117   0.643  27.743
 8077SOL    HW135859   1.052   0.641  27.813
 8077SOL    HW235860   1.105   0.560  27.697
 8078SOL     OW35861   2.987   3.784  10.054
 8078SOL    HW135862   2.909   3.819  10.011
 8078SOL    HW235863   3.017   3.715   9.995
 8079SOL     OW35864   2.901   0.774   4.453
 8079SOL    HW135865   2.892   0.801   4.362
 8079SOL    HW235866   2.988   0.803   4.478
 8080SOL     OW35867   1.325   2.565  20.888
 8080SOL    HW135868   1.299   2.575  20.980
 8080SOL    HW235869   1.419   2.581  20.888
 8081SOL     OW35870   1.311   3.874   9.895
 8081SOL    HW135871   1.247   3.842   9.832
 8081SOL    HW235872   1.331   3.963   9.866
 8082SOL     OW35873   0.281   0.862  20.024
 8082SOL    HW135874   0.312   0.790  20.079
 8082SOL    HW235875   0.297   0.941  20.075
 8083SOL     OW35876   1.023   1.256   1.796
 8083SOL    HW135877   1.017   1.344   1.832
 8083SOL    HW235878   0.933   1.225   1.793
 8084SOL     OW35879   1.327   2.910   7.397
 8084SOL    HW135880   1.397   2.855   7.435
 8084SOL    HW235881   1.326   2.989   7.451
 8085SOL     OW35882   2.390   3.584   7.378
 8085SOL    HW135883   2.409   3.530   7.455
 8085SOL    HW235884   2.417   3.672   7.403
 8086SOL     OW35885   3.300   0.930  17.236
 8086SOL    HW135886   3.217   0.958  17.275
 8086SOL    HW235887   3.307   0.837  17.257
 8087SOL     OW35888   0.689   0.635  25.919
 8087SOL    HW135889   0.633   0.558  25.930
 8087SOL    HW235890   0.752   0.629  25.992
 8088SOL     OW35891   0.706   2.610  26.357
 8088SOL    HW135892   0.739   2.520  26.350
 8088SOL    HW235893   0.677   2.632  26.269
 8089SOL     OW35894   1.192   1.671   9.451
 8089SOL    HW135895   1.177   1.609   9.522
 8089SOL    HW235896   1.107   1.711   9.436
 8090SOL     OW35897   0.753   2.538   4.706
 8090SOL    HW135898   0.840   2.500   4.692
 8090SOL    HW235899   0.692   2.467   4.687
 8091SOL     OW35900   3.956   1.842  11.710
 8091SOL    HW135901   3.935   1.934  11.722
 8091SOL    HW235902   3.995   1.837  11.622
 8092SOL     OW35903   0.164   0.341   5.744
 8092SOL    HW135904   0.199   0.430   5.743
 8092SOL    HW235905   0.178   0.310   5.833
 8093SOL     OW35906   3.825   3.235  27.601
 8093SOL    HW135907   3.811   3.321  27.642
 8093SOL    HW235908   3.824   3.173  27.674
 8094SOL     OW35909   1.688   2.565   5.047
 8094SOL    HW135910   1.636   2.485   5.049
 8094SOL    HW235911   1.773   2.540   5.083
 8095SOL     OW35912   2.788   4.617  25.179
 8095SOL    HW135913   2.870   4.575  25.154
 8095SOL    HW235914   2.775   4.594  25.271
 8096SOL     OW35915   4.652   3.939   1.808
 8096SOL    HW135916   4.639   3.856   1.854
 8096SOL    HW235917   4.747   3.949   1.803
 8097SOL     OW35918   0.460   1.759  25.649
 8097SOL    HW135919   0.461   1.698  25.723
 8097SOL    HW235920   0.373   1.748  25.610
 8098SOL     OW35921   2.533   4.270   5.711
 8098SOL    HW135922   2.544   4.256   5.805
 8098SOL    HW235923   2.610   4.229   5.671
 8099SOL     OW35924   3.357   0.203   6.621
 8099SOL    HW135925   3.378   0.250   6.540
 8099SOL    HW235926   3.325   0.270   6.681
 8100SOL     OW35927   2.922   1.236  19.678
 8100SOL    HW135928   3.001   1.204  19.634
 8100SOL    HW235929   2.851   1.219  19.616
 8101SOL     OW35930   1.168   2.941  12.850
 8101SOL    HW135931   1.191   3.016  12.905
 8101SOL    HW235932   1.219   2.869  12.886
 8102SOL     OW35933   1.592   4.118   3.514
 8102SOL    HW135934   1.660   4.065   3.555
 8102SOL    HW235935   1.639   4.186   3.467
 8103SOL     OW35936   4.429   0.097   7.562
 8103SOL    HW135937   4.393   0.177   7.600
 8103SOL    HW235938   4.385   0.026   7.608
 8104SOL     OW35939   1.416   3.769  23.674
 8104SOL    HW135940   1.326   3.740  23.686
 8104SOL    HW235941   1.413   3.863  23.693
 8105SOL     OW35942   3.427   1.142  18.630
 8105SOL    HW135943   3.493   1.077  18.651
 8105SOL    HW235944   3.445   1.215  18.690
 8106SOL     OW35945   3.159   4.513  25.640
 8106SOL    HW135946   3.213   4.435  25.656
 8106SOL    HW235947   3.128   4.502  25.551
 8107SOL     OW35948   2.106   3.808   6.545
 8107SOL    HW135949   2.069   3.825   6.632
 8107SOL    HW235950   2.181   3.751   6.561
 8108SOL     OW35951   2.296   0.537   1.214
 8108SOL    HW135952   2.278   0.449   1.181
 8108SOL    HW235953   2.323   0.586   1.136
 8109SOL     OW35954   4.349   0.941   0.733
 8109SOL    HW135955   4.385   0.947   0.645
 8109SOL    HW235956   4.408   0.993   0.787
 8110SOL     OW35957   2.886   0.734   6.393
 8110SOL    HW135958   2.796   0.705   6.379
 8110SOL    HW235959   2.886   0.771   6.481
 8111SOL     OW35960   2.801   3.373  20.047
 8111SOL    HW135961   2.851   3.291  20.044
 8111SOL    HW235962   2.723   3.355  19.996
 8112SOL     OW35963   1.626   1.179  25.473
 8112SOL    HW135964   1.575   1.219  25.402
 8112SOL    HW235965   1.616   1.085  25.460
 8113SOL     OW35966   1.630   1.827  26.224
 8113SOL    HW135967   1.571   1.826  26.300
 8113SOL    HW235968   1.705   1.880  26.253
 8114SOL     OW35969   2.045   4.402   8.419
 8114SOL    HW135970   2.035   4.497   8.416
 8114SOL    HW235971   2.133   4.388   8.452
 8115SOL     OW35972   4.181   0.066  22.168
 8115SOL    HW135973   4.241   0.135  22.197
 8115SOL    HW235974   4.177   0.005  22.241
 8116SOL     OW35975   0.932   3.353   8.435
 8116SOL    HW135976   0.986   3.428   8.410
 8116SOL    HW235977   0.933   3.296   8.358
 8117SOL     OW35978   3.571   3.195  27.874
 8117SOL    HW135979   3.560   3.140  27.951
 8117SOL    HW235980   3.663   3.222  27.877
 8118SOL     OW35981   0.055   3.458  25.288
 8118SOL    HW135982   0.127   3.395  25.293
 8118SOL    HW235983   0.076   3.524  25.354
 8119SOL     OW35984   0.445   4.487  24.727
 8119SOL    HW135985   0.515   4.465  24.665
 8119SOL    HW235986   0.391   4.551  24.680
 8120SOL     OW35987   2.410   1.315   8.215
 8120SOL    HW135988   2.411   1.220   8.221
 8120SOL    HW235989   2.318   1.339   8.224
 8121SOL     OW35990   4.519   0.304  20.861
 8121SOL    HW135991   4.497   0.394  20.835
 8121SOL    HW235992   4.572   0.271  20.788
 8122SOL     OW35993   0.511   1.240   4.051
 8122SOL    HW135994   0.542   1.198   4.132
 8122SOL    HW235995   0.591   1.260   4.002
 8123SOL     OW35996   3.969   0.379   5.386
 8123SOL    HW135997   4.050   0.347   5.424
 8123SOL    HW235998   3.900   0.336   5.436
 8124SOL     OW35999   4.294   4.287  20.361
 8124SOL    HW136000   4.296   4.381  20.382
 8124SOL    HW236001   4.203   4.268  20.343
 8125SOL     OW36002   4.078   4.493  26.488
 8125SOL    HW136003   4.098   4.404  26.460
 8125SOL    HW236004   4.006   4.521  26.432
 8126SOL     OW36005   2.248   1.502  25.365
 8126SOL    HW136006   2.282   1.568  25.426
 8126SOL    HW236007   2.209   1.552  25.294
 8127SOL     OW36008   4.717   4.661  19.206
 8127SOL    HW136009   4.686   4.727  19.145
 8127SOL    HW236010   4.651   4.591  19.203
 8128SOL     OW36011   3.743   1.662  11.774
 8128SOL    HW136012   3.728   1.647  11.681
 8128SOL    HW236013   3.656   1.678  11.811
 8129SOL     OW36014   0.231   2.586   1.796
 8129SOL    HW136015   0.218   2.553   1.707
 8129SOL    HW236016   0.231   2.507   1.851
 8130SOL     OW36017   4.216   3.183   5.851
 8130SOL    HW136018   4.248   3.270   5.877
 8130SOL    HW236019   4.283   3.123   5.883
 8131SOL     OW36020   4.542   4.441  11.359
 8131SOL    HW136021   4.468   4.393  11.395
 8131SOL    HW236022   4.533   4.530  11.393
 8132SOL     OW36023   3.896   3.672  24.195
 8132SOL    HW136024   3.878   3.609  24.265
 8132SOL    HW236025   3.983   3.705  24.214
 8133SOL     OW36026   4.779   0.479  27.164
 8133SOL    HW136027   0.023   0.407  27.106
 8133SOL    HW236028   4.755   0.551  27.105
 8134SOL     OW36029   0.950   2.285  20.128
 8134SOL    HW136030   0.899   2.217  20.086
 8134SOL    HW236031   0.985   2.337  20.055
 8135SOL     OW36032   1.370   0.649  25.340
 8135SOL    HW136033   1.286   0.665  25.296
 8135SOL    HW236034   1.383   0.727  25.395
 8136SOL     OW36035   2.170   2.707  27.475
 8136SOL    HW136036   2.215   2.682  27.555
 8136SOL    HW236037   2.109   2.776  27.501
 8137SOL     OW36038   3.646   2.917  11.739
 8137SOL    HW136039   3.668   2.996  11.788
 8137SOL    HW236040   3.712   2.853  11.766
 8138SOL     OW36041   3.787   1.112   6.155
 8138SOL    HW136042   3.734   1.133   6.232
 8138SOL    HW236043   3.870   1.079   6.191
 8139SOL     OW36044   1.717   1.186   9.347
 8139SOL    HW136045   1.728   1.233   9.429
 8139SOL    HW236046   1.626   1.156   9.349
 8140SOL     OW36047   0.676   3.147   4.605
 8140SOL    HW136048   0.656   3.172   4.515
 8140SOL    HW236049   0.735   3.073   4.597
 8141SOL     OW36050   1.382   0.347  20.264
 8141SOL    HW136051   1.289   0.330  20.248
 8141SOL    HW236052   1.427   0.277  20.217
 8142SOL     OW36053   2.548   4.391   9.181
 8142SOL    HW136054   2.563   4.298   9.163
 8142SOL    HW236055   2.541   4.395   9.277
 8143SOL     OW36056   3.814   4.567   8.098
 8143SOL    HW136057   3.834   4.475   8.112
 8143SOL    HW236058   3.781   4.571   8.008
 8144SOL     OW36059   1.195   2.943   3.164
 8144SOL    HW136060   1.172   2.994   3.086
 8144SOL    HW236061   1.187   3.004   3.237
 8145SOL     OW36062   2.447   2.945   4.759
 8145SOL    HW136063   2.433   3.021   4.816
 8145SOL    HW236064   2.464   2.872   4.819
 8146SOL     OW36065   1.880   0.794   0.990
 8146SOL    HW136066   1.936   0.758   0.921
 8146SOL    HW236067   1.929   0.778   1.071
 8147SOL     OW36068   0.607   4.338   0.558
 8147SOL    HW136069   0.553   4.292   0.622
 8147SOL    HW236070   0.695   4.336   0.594
 8148SOL     OW36071   4.069   0.701   8.036
 8148SOL    HW136072   4.038   0.771   7.979
 8148SOL    HW236073   4.140   0.740   8.087
 8149SOL     OW36074   3.119   3.949  25.238
 8149SOL    HW136075   3.172   3.871  25.220
 8149SOL    HW236076   3.148   3.978  25.325
 8150SOL     OW36077   4.637   1.365   1.152
 8150SOL    HW136078   4.696   1.438   1.173
 8150SOL    HW236079   4.575   1.362   1.225
 8151SOL     OW36080   2.503   0.683  26.607
 8151SOL    HW136081   2.487   0.620  26.538
 8151SOL    HW236082   2.419   0.689  26.654
 8152SOL     OW36083   2.423   3.449  23.894
 8152SOL    HW136084   2.456   3.379  23.951
 8152SOL    HW236085   2.346   3.483  23.939
 8153SOL     OW36086   1.939   2.540  12.648
 8153SOL    HW136087   1.901   2.608  12.703
 8153SOL    HW236088   1.916   2.458  12.691
 8154SOL     OW36089   3.581   2.580   0.250
 8154SOL    HW136090   3.542   2.501   0.287
 8154SOL    HW236091   3.665   2.551   0.214
 8155SOL     OW36092   1.987   4.450  25.223
 8155SOL    HW136093   1.978   4.409  25.137
 8155SOL    HW236094   2.030   4.533  25.205
 8156SOL     OW36095   4.213   4.200   6.643
 8156SOL    HW136096   4.252   4.286   6.659
 8156SOL    HW236097   4.269   4.138   6.689
 8157SOL     OW36098   4.575   4.504  24.213
 8157SOL    HW136099   4.580   4.463  24.299
 8157SOL    HW236100   4.626   4.585  24.222
 8158SOL     OW36101   3.116   1.853   6.498
 8158SOL    HW136102   3.196   1.892   6.533
 8158SOL    HW236103   3.068   1.928   6.461
 8159SOL     OW36104   1.520   1.238  18.154
 8159SOL    HW136105   1.444   1.246  18.096
 8159SOL    HW236106   1.502   1.160  18.206
 8160SOL     OW36107   0.155   3.541   8.087
 8160SOL    HW136108   0.071   3.577   8.060
 8160SOL    HW236109   0.149   3.533   8.183
 8161SOL     OW36110   1.762   2.461  23.021
 8161SOL    HW136111   1.692   2.420  22.970
 8161SOL    HW236112   1.717   2.526  23.075
 8162SOL     OW36113   1.284   1.076  28.135
 8162SOL    HW136114   1.283   1.061  28.040
 8162SOL    HW236115   1.210   1.135  28.150
 8163SOL     OW36116   4.152   4.016  24.120
 8163SOL    HW136117   4.243   4.020  24.149
 8163SOL    HW236118   4.150   4.070  24.041
 8164SOL     OW36119   4.654   4.426   8.711
 8164SOL    HW136120   4.680   4.339   8.683
 8164SOL    HW236121   4.568   4.413   8.752
 8165SOL     OW36122   3.440   0.457  27.523
 8165SOL    HW136123   3.489   0.499  27.594
 8165SOL    HW236124   3.494   0.469  27.446
 8166SOL     OW36125   2.465   1.059  21.509
 8166SOL    HW136126   2.460   1.093  21.599
 8166SOL    HW236127   2.377   1.073  21.474
 8167SOL     OW36128   4.387   3.352   6.598
 8167SOL    HW136129   4.308   3.298   6.602
 8167SOL    HW236130   4.367   3.430   6.649
 8168SOL     OW36131   4.682   2.335   5.969
 8168SOL    HW136132   4.708   2.422   5.998
 8168SOL    HW236133   4.755   2.278   5.992
 8169SOL     OW36134   0.058   4.762  10.403
 8169SOL    HW136135   0.033   4.685  10.453
 8169SOL    HW236136   0.123   4.730  10.341
 8170SOL     OW36137   2.287   2.514  10.430
 8170SOL    HW136138   2.272   2.521  10.336
 8170SOL    HW236139   2.280   2.420  10.449
 8171SOL     OW36140   0.391   0.946   4.127
 8171SOL    HW136141   0.435   0.870   4.165
 8171SOL    HW236142   0.431   0.956   4.040
 8172SOL     OW36143   3.792   3.672  26.121
 8172SOL    HW136144   3.845   3.623  26.057
 8172SOL    HW236145   3.853   3.736  26.158
 8173SOL     OW36146   2.834   3.769  26.394
 8173SOL    HW136147   2.893   3.760  26.318
 8173SOL    HW236148   2.776   3.841  26.371
 8174SOL     OW36149   2.221   1.825  21.177
 8174SOL    HW136150   2.151   1.850  21.116
 8174SOL    HW236151   2.298   1.872  21.145
 8175SOL     OW36152   2.923   2.845  23.532
 8175SOL    HW136153   2.910   2.752  23.550
 8175SOL    HW236154   2.999   2.869  23.586
 8176SOL     OW36155   0.120   2.871  16.995
 8176SOL    HW136156   0.149   2.832  16.913
 8176SOL    HW236157   0.170   2.952  17.003
 8177SOL     OW36158   1.420   2.152  24.478
 8177SOL    HW136159   1.327   2.133  24.486
 8177SOL    HW236160   1.446   2.111  24.395
 8178SOL     OW36161   0.289   2.193   8.106
 8178SOL    HW136162   0.285   2.109   8.151
 8178SOL    HW236163   0.377   2.195   8.067
 8179SOL     OW36164   1.264   3.658   5.145
 8179SOL    HW136165   1.263   3.702   5.230
 8179SOL    HW236166   1.288   3.727   5.083
 8180SOL     OW36167   2.053   0.724  21.125
 8180SOL    HW136168   1.978   0.682  21.082
 8180SOL    HW236169   2.107   0.756  21.053
 8181SOL     OW36170   1.875   4.276   0.688
 8181SOL    HW136171   1.836   4.350   0.734
 8181SOL    HW236172   1.940   4.315   0.630
 8182SOL     OW36173   4.715   0.849  20.325
 8182SOL    HW136174   4.773   0.824  20.252
 8182SOL    HW236175   4.627   0.835  20.291
 8183SOL     OW36176   1.893   0.407   7.294
 8183SOL    HW136177   1.956   0.368   7.354
 8183SOL    HW236178   1.826   0.446   7.351
 8184SOL     OW36179   1.557   3.922  25.328
 8184SOL    HW136180   1.558   3.828  25.308
 8184SOL    HW236181   1.465   3.946  25.320
 8185SOL     OW36182   0.315   2.489   1.270
 8185SOL    HW136183   0.351   2.561   1.218
 8185SOL    HW236184   0.222   2.485   1.244
 8186SOL     OW36185   1.663   0.568   2.097
 8186SOL    HW136186   1.648   0.618   2.017
 8186SOL    HW236187   1.583   0.579   2.147
 8187SOL     OW36188   1.971   4.707   0.931
 8187SOL    HW136189   1.975   4.615   0.907
 8187SOL    HW236190   2.060   4.739   0.919
 8188SOL     OW36191   4.294   4.119  26.397
 8188SOL    HW136192   4.207   4.153  26.416
 8188SOL    HW236193   4.341   4.125  26.481
 8189SOL     OW36194   3.932   0.819   3.106
 8189SOL    HW136195   3.915   0.817   3.011
 8189SOL    HW236196   3.875   0.751   3.142
 8190SOL     OW36197   0.065   2.703   1.567
 8190SOL    HW136198   0.049   2.722   1.659
 8190SOL    HW236199   4.773   2.647   1.541
 8191SOL     OW36200   1.268   4.484  20.748
 8191SOL    HW136201   1.295   4.528  20.668
 8191SOL    HW236202   1.211   4.413  20.719
 8192SOL     OW36203   0.415   2.783   1.829
 8192SOL    HW136204   0.403   2.808   1.738
 8192SOL    HW236205   0.357   2.708   1.841
 8193SOL     OW36206   1.962   4.278  26.910
 8193SOL    HW136207   2.020   4.283  26.987
 8193SOL    HW236208   2.019   4.246  26.840
 8194SOL     OW36209   2.195   2.342   8.081
 8194SOL    HW136210   2.132   2.271   8.075
 8194SOL    HW236211   2.280   2.300   8.069
 8195SOL     OW36212   1.748   3.419  25.001
 8195SOL    HW136213   1.727   3.512  25.000
 8195SOL    HW236214   1.843   3.416  25.012
 8196SOL     OW36215   4.567   2.832   5.765
 8196SOL    HW136216   4.497   2.878   5.812
 8196SOL    HW236217   4.550   2.851   5.672
 8197SOL     OW36218   1.218   3.209   9.449
 8197SOL    HW136219   1.136   3.183   9.491
 8197SOL    HW236220   1.281   3.214   9.521
 8198SOL     OW36221   3.148   1.367  24.993
 8198SOL    HW136222   3.231   1.342  24.954
 8198SOL    HW236223   3.161   1.457  25.022
 8199SOL     OW36224   2.195   0.571   3.411
 8199SOL    HW136225   2.280   0.549   3.374
 8199SOL    HW236226   2.133   0.516   3.364
 8200SOL     OW36227   2.280   4.378  26.836
 8200SOL    HW136228   2.288   4.359  26.929
 8200SOL    HW236229   2.308   4.298  26.792
 8201SOL     OW36230   1.972   2.145   2.011
 8201SOL    HW136231   2.027   2.128   2.088
 8201SOL    HW236232   1.921   2.065   1.999
 8202SOL     OW36233   4.342   3.947   5.934
 8202SOL    HW136234   4.328   3.877   5.870
 8202SOL    HW236235   4.254   3.968   5.966
 8203SOL     OW36236   2.547   1.098  27.088
 8203SOL    HW136237   2.551   1.012  27.046
 8203SOL    HW236238   2.464   1.096  27.137
 8204SOL     OW36239   2.421   3.960  21.528
 8204SOL    HW136240   2.332   3.955  21.494
 8204SOL    HW236241   2.425   3.889  21.593
 8205SOL     OW36242   0.008   4.572  10.599
 8205SOL    HW136243   4.775   4.478  10.586
 8205SOL    HW236244   0.077   4.577  10.666
 8206SOL     OW36245   0.635   4.692   2.646
 8206SOL    HW136246   0.642   4.721   2.737
 8206SOL    HW236247   0.725   4.691   2.615
 8207SOL     OW36248   4.445   1.583  19.987
 8207SOL    HW136249   4.446   1.626  20.073
 8207SOL    HW236250   4.366   1.618  19.944
 8208SOL     OW36251   4.165   0.056   0.624
 8208SOL    HW136252   4.256   0.055   0.653
 8208SOL    HW236253   4.116   0.021   0.699
 8209SOL     OW36254   2.915   4.245   9.129
 8209SOL    HW136255   2.825   4.212   9.137
 8209SOL    HW236256   2.940   4.268   9.219
 8210SOL     OW36257   1.032   2.799  24.745
 8210SOL    HW136258   1.019   2.747  24.665
 8210SOL    HW236259   0.948   2.842  24.760
 8211SOL     OW36260   0.219   3.884  21.112
 8211SOL    HW136261   0.161   3.807  21.109
 8211SOL    HW236262   0.297   3.856  21.063
 8212SOL     OW36263   3.025   0.310  26.284
 8212SOL    HW136264   3.045   0.272  26.198
 8212SOL    HW236265   3.003   0.234  26.339
 8213SOL     OW36266   1.024   1.178  26.083
 8213SOL    HW136267   1.028   1.198  26.177
 8213SOL    HW236268   0.930   1.177  26.063
 8214SOL     OW36269   0.213   4.450   5.528
 8214SOL    HW136270   0.224   4.439   5.434
 8214SOL    HW236271   0.137   4.395   5.550
 8215SOL     OW36272   0.754   2.644   2.946
 8215SOL    HW136273   0.740   2.616   2.855
 8215SOL    HW236274   0.796   2.570   2.988
 8216SOL     OW36275   0.445   4.758   9.793
 8216SOL    HW136276   0.387   4.735   9.721
 8216SOL    HW236277   0.429   4.692   9.860
 8217SOL     OW36278   4.525   3.342  27.232
 8217SOL    HW136279   4.464   3.333  27.159
 8217SOL    HW236280   4.574   3.422  27.213
 8218SOL     OW36281   4.065   3.671   5.517
 8218SOL    HW136282   4.017   3.608   5.569
 8218SOL    HW236283   4.031   3.661   5.428
 8219SOL     OW36284   3.437   3.053  19.962
 8219SOL    HW136285   3.380   2.984  19.996
 8219SOL    HW236286   3.404   3.133  20.003
 8220SOL     OW36287   2.899   2.724  12.145
 8220SOL    HW136288   2.969   2.660  12.139
 8220SOL    HW236289   2.883   2.733  12.239
 8221SOL     OW36290   1.766   3.172   7.059
 8221SOL    HW136291   1.693   3.115   7.034
 8221SOL    HW236292   1.723   3.253   7.088
 8222SOL     OW36293   3.774   2.775  26.018
 8222SOL    HW136294   3.706   2.807  26.076
 8222SOL    HW236295   3.809   2.698  26.062
 8223SOL     OW36296   0.548   3.448  23.674
 8223SOL    HW136297   0.629   3.494  23.654
 8223SOL    HW236298   0.501   3.443  23.591
 8224SOL     OW36299   3.378   3.601  26.078
 8224SOL    HW136300   3.393   3.609  26.172
 8224SOL    HW236301   3.292   3.640  26.064
 8225SOL     OW36302   1.433   2.529  24.187
 8225SOL    HW136303   1.445   2.543  24.281
 8225SOL    HW236304   1.382   2.605  24.158
 8226SOL     OW36305   3.492   0.683  21.260
 8226SOL    HW136306   3.518   0.608  21.314
 8226SOL    HW236307   3.569   0.740  21.259
 8227SOL     OW36308   1.262   2.291   6.535
 8227SOL    HW136309   1.334   2.305   6.473
 8227SOL    HW236310   1.250   2.196   6.536
 8228SOL     OW36311   1.162   4.460  21.984
 8228SOL    HW136312   1.090   4.445  21.923
 8228SOL    HW236313   1.178   4.555  21.979
 8229SOL     OW36314   2.578   3.111   9.356
 8229SOL    HW136315   2.494   3.070   9.374
 8229SOL    HW236316   2.609   3.068   9.276
 8230SOL     OW36317   3.445   2.552  25.210
 8230SOL    HW136318   3.492   2.469  25.216
 8230SOL    HW236319   3.451   2.576  25.118
 8231SOL     OW36320   4.346   4.131   6.256
 8231SOL    HW136321   4.373   4.173   6.338
 8231SOL    HW236322   4.426   4.090   6.223
 8232SOL     OW36323   1.427   1.001   6.644
 8232SOL    HW136324   1.374   1.038   6.573
 8232SOL    HW236325   1.500   0.959   6.600
 8233SOL     OW36326   2.555   3.057  21.968
 8233SOL    HW136327   2.581   3.017  22.051
 8233SOL    HW236328   2.532   3.147  21.991
 8234SOL     OW36329   0.482   2.586   6.323
 8234SOL    HW136330   0.425   2.518   6.286
 8234SOL    HW236331   0.477   2.658   6.261
 8235SOL     OW36332   4.394   4.351  11.047
 8235SOL    HW136333   4.313   4.316  11.084
 8235SOL    HW236334   4.424   4.283  10.987
 8236SOL     OW36335   0.592   2.333  22.955
 8236SOL    HW136336   0.529   2.394  22.917
 8236SOL    HW236337   0.550   2.303  23.036
 8237SOL     OW36338   3.286   1.224  19.107
 8237SOL    HW136339   3.196   1.244  19.134
 8237SOL    HW236340   3.306   1.290  19.041
 8238SOL     OW36341   0.077   0.450   1.500
 8238SOL    HW136342   4.776   0.412   1.532
 8238SOL    HW236343   0.107   0.505   1.572
 8239SOL     OW36344   4.768   1.556   5.592
 8239SOL    HW136345   4.763   1.583   5.684
 8239SOL    HW236346   4.705   1.612   5.547
 8240SOL     OW36347   0.242   1.718  25.497
 8240SOL    HW136348   0.226   1.627  25.473
 8240SOL    HW236349   0.172   1.740  25.559
 8241SOL     OW36350   1.487   3.068   1.952
 8241SOL    HW136351   1.501   3.163   1.951
 8241SOL    HW236352   1.499   3.041   1.861
 8242SOL     OW36353   1.972   4.009   7.057
 8242SOL    HW136354   1.968   4.104   7.041
 8242SOL    HW236355   1.881   3.984   7.071
 8243SOL     OW36356   2.213   4.241  17.754
 8243SOL    HW136357   2.193   4.153  17.724
 8243SOL    HW236358   2.264   4.280  17.683
 8244SOL     OW36359   2.114   3.689  15.424
 8244SOL    HW136360   2.145   3.663  15.337
 8244SOL    HW236361   2.193   3.718  15.470
 8245SOL     OW36362   3.551   2.629  10.967
 8245SOL    HW136363   3.571   2.536  10.982
 8245SOL    HW236364   3.555   2.668  11.054
 8246SOL     OW36365   2.620   2.718  12.110
 8246SOL    HW136366   2.651   2.631  12.136
 8246SOL    HW236367   2.538   2.729  12.159
 8247SOL     OW36368   1.855   0.816   0.421
 8247SOL    HW136369   1.785   0.877   0.444
 8247SOL    HW236370   1.843   0.800   0.327
 8248SOL     OW36371   4.163   2.007   4.258
 8248SOL    HW136372   4.156   2.098   4.230
 8248SOL    HW236373   4.102   1.959   4.202
 8249SOL     OW36374   0.538   0.851   9.947
 8249SOL    HW136375   0.593   0.907   9.892
 8249SOL    HW236376   0.504   0.785   9.887
 8250SOL     OW36377   4.440   3.999   3.858
 8250SOL    HW136378   4.415   4.090   3.840
 8250SOL    HW236379   4.436   3.955   3.773
 8251SOL     OW36380   0.681   0.951  10.175
 8251SOL    HW136381   0.765   0.905  10.182
 8251SOL    HW236382   0.698   1.037  10.214
 8252SOL     OW36383   4.692   3.944  21.766
 8252SOL    HW136384   4.681   3.864  21.818
 8252SOL    HW236385   4.754   3.920  21.698
 8253SOL     OW36386   0.643   1.411  22.574
 8253SOL    HW136387   0.694   1.456  22.641
 8253SOL    HW236388   0.643   1.320  22.602
 8254SOL     OW36389   2.265   3.315   5.640
 8254SOL    HW136390   2.307   3.229   5.649
 8254SOL    HW236391   2.202   3.319   5.711
 8255SOL     OW36392   3.681   1.656   7.365
 8255SOL    HW136393   3.638   1.698   7.291
 8255SOL    HW236394   3.621   1.671   7.439
 8256SOL     OW36395   0.233   1.271   9.479
 8256SOL    HW136396   0.249   1.275   9.385
 8256SOL    HW236397   0.320   1.274   9.518
 8257SOL     OW36398   0.939   3.527   5.735
 8257SOL    HW136399   0.949   3.544   5.641
 8257SOL    HW236400   1.003   3.459   5.754
 8258SOL     OW36401   1.606   2.835   4.434
 8258SOL    HW136402   1.632   2.776   4.363
 8258SOL    HW236403   1.680   2.895   4.443
 8259SOL     OW36404   1.287   2.075   9.038
 8259SOL    HW136405   1.303   1.998   9.093
 8259SOL    HW236406   1.289   2.149   9.098
 8260SOL     OW36407   0.410   0.548   5.253
 8260SOL    HW136408   0.405   0.584   5.342
 8260SOL    HW236409   0.384   0.456   5.264
 8261SOL     OW36410   3.061   4.467   6.413
 8261SOL    HW136411   3.041   4.541   6.472
 8261SOL    HW236412   3.156   4.464   6.410
 8262SOL     OW36413   2.633   3.903  21.799
 8262SOL    HW136414   2.656   3.957  21.723
 8262SOL    HW236415   2.565   3.952  21.844
 8263SOL     OW36416   2.237   3.606   5.628
 8263SOL    HW136417   2.289   3.526   5.636
 8263SOL    HW236418   2.269   3.648   5.548
 8264SOL     OW36419   0.573   2.981  25.341
 8264SOL    HW136420   0.503   2.988  25.405
 8264SOL    HW236421   0.535   2.931  25.269
 8265SOL     OW36422   1.292   1.449   8.274
 8265SOL    HW136423   1.269   1.452   8.367
 8265SOL    HW236424   1.325   1.360   8.261
 8266SOL     OW36425   4.751   3.598   0.592
 8266SOL    HW136426   4.731   3.516   0.547
 8266SOL    HW236427   0.047   3.632   0.547
 8267SOL     OW36428   1.277   4.265  20.168
 8267SOL    HW136429   1.246   4.213  20.243
 8267SOL    HW236430   1.371   4.275  20.183
 8268SOL     OW36431   0.864   2.721   5.992
 8268SOL    HW136432   0.860   2.691   6.082
 8268SOL    HW236433   0.886   2.814   5.998
 8269SOL     OW36434   0.521   1.104   9.383
 8269SOL    HW136435   0.504   1.088   9.290
 8269SOL    HW236436   0.510   1.198   9.393
 8270SOL     OW36437   1.193   2.623   9.181
 8270SOL    HW136438   1.197   2.591   9.091
 8270SOL    HW236439   1.130   2.565   9.224
 8271SOL     OW36440   0.256   1.253   4.363
 8271SOL    HW136441   0.327   1.289   4.310
 8271SOL    HW236442   0.265   1.158   4.354
 8272SOL     OW36443   1.228   4.239   2.656
 8272SOL    HW136444   1.155   4.185   2.626
 8272SOL    HW236445   1.212   4.249   2.750
 8273SOL     OW36446   3.182   2.323   8.043
 8273SOL    HW136447   3.215   2.343   8.130
 8273SOL    HW236448   3.195   2.403   7.993
 8274SOL     OW36449   3.475   0.539  24.964
 8274SOL    HW136450   3.439   0.625  24.944
 8274SOL    HW236451   3.404   0.478  24.943
 8275SOL     OW36452   1.065   2.508   8.052
 8275SOL    HW136453   1.131   2.446   8.023
 8275SOL    HW236454   1.114   2.577   8.097
 8276SOL     OW36455   2.968   1.903  24.590
 8276SOL    HW136456   2.953   1.997  24.577
 8276SOL    HW236457   2.975   1.867  24.502
 8277SOL     OW36458   2.070   2.408   9.283
 8277SOL    HW136459   2.096   2.498   9.267
 8277SOL    HW236460   2.022   2.382   9.205
 8278SOL     OW36461   1.016   1.445  24.631
 8278SOL    HW136462   1.006   1.351  24.619
 8278SOL    HW236463   0.950   1.484  24.574
 8279SOL     OW36464   0.397   1.018  10.140
 8279SOL    HW136465   0.433   1.083  10.079
 8279SOL    HW236466   0.335   1.067  10.193
 8280SOL     OW36467   2.203   0.154   2.865
 8280SOL    HW136468   2.292   0.124   2.880
 8280SOL    HW236469   2.197   0.167   2.770
 8281SOL     OW36470   4.066   4.489  22.365
 8281SOL    HW136471   4.090   4.453  22.280
 8281SOL    HW236472   4.120   4.568  22.373
 8282SOL     OW36473   2.287   0.866  25.224
 8282SOL    HW136474   2.218   0.923  25.258
 8282SOL    HW236475   2.367   0.896  25.268
 8283SOL     OW36476   3.611   3.719   3.830
 8283SOL    HW136477   3.580   3.751   3.914
 8283SOL    HW236478   3.531   3.700   3.780
 8284SOL     OW36479   2.581   3.833  25.231
 8284SOL    HW136480   2.674   3.850  25.246
 8284SOL    HW236481   2.567   3.745  25.266
 8285SOL     OW36482   2.559   3.732  11.683
 8285SOL    HW136483   2.597   3.648  11.707
 8285SOL    HW236484   2.614   3.797  11.728
 8286SOL     OW36485   4.261   3.072  28.351
 8286SOL    HW136486   4.331   3.135  28.336
 8286SOL    HW236487   4.307   2.989  28.368
 8287SOL     OW36488   2.682   2.521  20.125
 8287SOL    HW136489   2.589   2.535  20.108
 8287SOL    HW236490   2.686   2.436  20.168
 8288SOL     OW36491   3.315   1.106   0.813
 8288SOL    HW136492   3.335   1.140   0.900
 8288SOL    HW236493   3.246   1.041   0.829
 8289SOL     OW36494   2.482   3.240   1.724
 8289SOL    HW136495   2.475   3.333   1.700
 8289SOL    HW236496   2.430   3.194   1.658
 8290SOL     OW36497   4.663   1.272   8.073
 8290SOL    HW136498   4.728   1.218   8.027
 8290SOL    HW236499   4.588   1.273   8.014
 8291SOL     OW36500   4.140   2.008   6.342
 8291SOL    HW136501   4.146   2.021   6.247
 8291SOL    HW236502   4.185   1.926   6.358
 8292SOL     OW36503   2.768   1.025  23.486
 8292SOL    HW136504   2.765   1.112  23.524
 8292SOL    HW236505   2.739   0.967  23.556
 8293SOL     OW36506   3.765   0.254  23.868
 8293SOL    HW136507   3.692   0.199  23.896
 8293SOL    HW236508   3.842   0.199  23.879
 8294SOL     OW36509   0.498   1.240   2.226
 8294SOL    HW136510   0.426   1.296   2.197
 8294SOL    HW236511   0.551   1.227   2.147
 8295SOL     OW36512   2.046   2.865   5.916
 8295SOL    HW136513   1.983   2.883   5.985
 8295SOL    HW236514   1.993   2.845   5.839
 8296SOL     OW36515   1.700   3.992  22.183
 8296SOL    HW136516   1.673   3.946  22.262
 8296SOL    HW236517   1.764   3.934  22.141
 8297SOL     OW36518   0.709   1.612  24.381
 8297SOL    HW136519   0.711   1.560  24.461
 8297SOL    HW236520   0.786   1.668  24.387
 8298SOL     OW36521   1.121   1.287  27.805
 8298SOL    HW136522   1.170   1.362  27.770
 8298SOL    HW236523   1.179   1.212  27.791
 8299SOL     OW36524   4.710   1.056  21.004
 8299SOL    HW136525   0.022   1.051  20.983
 8299SOL    HW236526   4.671   1.099  20.928
 8300SOL     OW36527   1.591   2.085  25.117
 8300SOL    HW136528   1.597   2.116  25.207
 8300SOL    HW236529   1.676   2.045  25.100
 8301SOL     OW36530   1.734   1.598   6.575
 8301SOL    HW136531   1.816   1.640   6.552
 8301SOL    HW236532   1.670   1.669   6.579
 8302SOL     OW36533   1.626   3.818   9.564
 8302SOL    HW136534   1.674   3.737   9.544
 8302SOL    HW236535   1.553   3.790   9.619
 8303SOL     OW36536   2.300   0.447  21.798
 8303SOL    HW136537   2.304   0.474  21.890
 8303SOL    HW236538   2.317   0.353  21.800
 8304SOL     OW36539   1.574   1.818  26.765
 8304SOL    HW136540   1.642   1.865  26.814
 8304SOL    HW236541   1.621   1.775  26.693
 8305SOL     OW36542   0.270   4.229  21.497
 8305SOL    HW136543   0.214   4.307  21.496
 8305SOL    HW236544   0.264   4.195  21.408
 8306SOL     OW36545   2.367   3.711  24.916
 8306SOL    HW136546   2.303   3.653  24.956
 8306SOL    HW236547   2.353   3.796  24.959
 8307SOL     OW36548   2.753   2.965  12.165
 8307SOL    HW136549   2.691   2.964  12.237
 8307SOL    HW236550   2.805   3.044  12.179
 8308SOL     OW36551   3.858   0.183   2.713
 8308SOL    HW136552   3.770   0.161   2.683
 8308SOL    HW236553   3.846   0.255   2.774
 8309SOL     OW36554   0.386   3.159  21.291
 8309SOL    HW136555   0.368   3.205  21.209
 8309SOL    HW236556   0.429   3.225  21.346
 8310SOL     OW36557   3.634   0.952  19.126
 8310SOL    HW136558   3.562   0.925  19.069
 8310SOL    HW236559   3.713   0.934  19.075
 8311SOL     OW36560   3.824   4.504   1.901
 8311SOL    HW136561   3.895   4.453   1.940
 8311SOL    HW236562   3.866   4.587   1.877
 8312SOL     OW36563   1.820   2.327  23.828
 8312SOL    HW136564   1.871   2.326  23.910
 8312SOL    HW236565   1.733   2.356  23.855
 8313SOL     OW36566   1.875   0.511  23.410
 8313SOL    HW136567   1.955   0.551  23.375
 8313SOL    HW236568   1.842   0.574  23.473
 8314SOL     OW36569   1.631   4.454   4.639
 8314SOL    HW136570   1.586   4.385   4.589
 8314SOL    HW236571   1.627   4.424   4.729
 8315SOL     OW36572   0.424   3.790  27.311
 8315SOL    HW136573   0.471   3.722  27.360
 8315SOL    HW236574   0.383   3.843  27.379
 8316SOL     OW36575   3.392   0.222  10.230
 8316SOL    HW136576   3.477   0.259  10.254
 8316SOL    HW236577   3.335   0.242  10.305
 8317SOL     OW36578   2.250   0.945   0.032
 8317SOL    HW136579   2.247   0.899   0.115
 8317SOL    HW236580   2.340   0.977   0.024
 8318SOL     OW36581   3.662   3.414   6.594
 8318SOL    HW136582   3.725   3.472   6.550
 8318SOL    HW236583   3.679   3.328   6.557
 8319SOL     OW36584   0.614   0.664  10.172
 8319SOL    HW136585   0.650   0.634  10.256
 8319SOL    HW236586   0.623   0.588  10.114
 8320SOL     OW36587   4.537   4.322   0.974
 8320SOL    HW136588   4.453   4.358   1.004
 8320SOL    HW236589   4.516   4.279   0.891
 8321SOL     OW36590   3.015   1.864  21.951
 8321SOL    HW136591   2.932   1.909  21.966
 8321SOL    HW236592   3.037   1.882  21.859
 8322SOL     OW36593   1.218   0.345   7.835
 8322SOL    HW136594   1.277   0.416   7.863
 8322SOL    HW236595   1.265   0.301   7.765
 8323SOL     OW36596   2.945   1.877   6.055
 8323SOL    HW136597   2.897   1.927   6.121
 8323SOL    HW236598   2.891   1.799   6.040
 8324SOL     OW36599   4.180   2.513   4.830
 8324SOL    HW136600   4.217   2.432   4.864
 8324SOL    HW236601   4.200   2.578   4.897
 8325SOL     OW36602   0.953   3.612   1.302
 8325SOL    HW136603   0.887   3.669   1.264
 8325SOL    HW236604   0.906   3.533   1.325
 8326SOL     OW36605   4.554   3.033  21.216
 8326SOL    HW136606   4.595   3.063  21.297
 8326SOL    HW236607   4.461   3.023  21.239
 8327SOL     OW36608   3.620   3.856  20.056
 8327SOL    HW136609   3.699   3.905  20.033
 8327SOL    HW236610   3.557   3.882  19.989
 8328SOL     OW36611   3.470   4.505   5.925
 8328SOL    HW136612   3.432   4.588   5.955
 8328SOL    HW236613   3.526   4.476   5.997
 8329SOL     OW36614   3.663   3.007  11.229
 8329SOL    HW136615   3.618   3.066  11.290
 8329SOL    HW236616   3.725   2.960  11.285
 8330SOL     OW36617   2.103   3.264   1.654
 8330SOL    HW136618   2.042   3.252   1.726
 8330SOL    HW236619   2.167   3.193   1.664
 8331SOL     OW36620   4.673   2.826   2.243
 8331SOL    HW136621   4.738   2.896   2.245
 8331SOL    HW236622   4.724   2.746   2.227
 8332SOL     OW36623   4.568   1.751  22.426
 8332SOL    HW136624   4.576   1.682  22.361
 8332SOL    HW236625   4.624   1.822  22.394
 8333SOL     OW36626   4.014   0.575   8.303
 8333SOL    HW136627   3.943   0.531   8.348
 8333SOL    HW236628   3.983   0.587   8.213
 8334SOL     OW36629   1.808   4.309   3.285
 8334SOL    HW136630   1.873   4.318   3.354
 8334SOL    HW236631   1.753   4.387   3.294
 8335SOL     OW36632   2.153   4.158   8.848
 8335SOL    HW136633   2.105   4.168   8.930
 8335SOL    HW236634   2.205   4.238   8.841
 8336SOL     OW36635   0.517   0.404  10.953
 8336SOL    HW136636   0.558   0.425  11.037
 8336SOL    HW236637   0.564   0.326  10.922
 8337SOL     OW36638   3.898   2.708   1.679
 8337SOL    HW136639   3.816   2.659   1.668
 8337SOL    HW236640   3.931   2.719   1.590
 8338SOL     OW36641   3.367   0.522   3.288
 8338SOL    HW136642   3.382   0.434   3.254
 8338SOL    HW236643   3.272   0.530   3.291
 8339SOL     OW36644   0.471   0.849  10.359
 8339SOL    HW136645   0.412   0.790  10.404
 8339SOL    HW236646   0.450   0.936  10.395
 8340SOL     OW36647   0.624   4.730  20.582
 8340SOL    HW136648   0.540   4.699  20.616
 8340SOL    HW236649   0.605   4.758  20.493
 8341SOL     OW36650   1.311   2.398  26.601
 8341SOL    HW136651   1.239   2.459  26.615
 8341SOL    HW236652   1.352   2.427  26.519
 8342SOL     OW36653   2.027   4.728   8.761
 8342SOL    HW136654   2.067   4.648   8.726
 8342SOL    HW236655   1.937   4.702   8.782
 8343SOL     OW36656   2.656   2.142   1.965
 8343SOL    HW136657   2.701   2.069   1.923
 8343SOL    HW236658   2.617   2.104   2.044
 8344SOL     OW36659   2.193   3.572  19.925
 8344SOL    HW136660   2.125   3.571  19.858
 8344SOL    HW236661   2.238   3.488  19.915
 8345SOL     OW36662   3.607   4.672  24.338
 8345SOL    HW136663   3.521   4.639  24.315
 8345SOL    HW236664   3.605   4.765  24.313
 8346SOL     OW36665   0.328   0.723  10.138
 8346SOL    HW136666   0.242   0.764  10.142
 8346SOL    HW236667   0.317   0.650  10.076
 8347SOL     OW36668   4.351   3.569   8.599
 8347SOL    HW136669   4.403   3.497   8.634
 8347SOL    HW236670   4.323   3.539   8.513
 8348SOL     OW36671   0.205   2.024   5.843
 8348SOL    HW136672   0.148   2.049   5.916
 8348SOL    HW236673   0.192   1.930   5.834
 8349SOL     OW36674   0.453   3.032   9.036
 8349SOL    HW136675   0.483   3.123   9.040
 8349SOL    HW236676   0.533   2.980   9.031
 8350SOL     OW36677   3.779   1.179  20.629
 8350SOL    HW136678   3.708   1.221  20.678
 8350SOL    HW236679   3.736   1.114  20.574
 8351SOL     OW36680   3.763   3.089   0.377
 8351SOL    HW136681   3.716   3.007   0.364
 8351SOL    HW236682   3.847   3.063   0.416
 8352SOL     OW36683   1.449   4.434   9.440
 8352SOL    HW136684   1.446   4.343   9.409
 8352SOL    HW236685   1.516   4.434   9.508
 8353SOL     OW36686   3.391   3.615   2.677
 8353SOL    HW136687   3.378   3.523   2.657
 8353SOL    HW236688   3.306   3.656   2.663
 8354SOL     OW36689   4.611   1.500   6.602
 8354SOL    HW136690   4.598   1.594   6.585
 8354SOL    HW236691   4.645   1.466   6.519
 8355SOL     OW36692   1.928   2.520   5.181
 8355SOL    HW136693   1.966   2.605   5.204
 8355SOL    HW236694   1.950   2.463   5.254
 8356SOL     OW36695   0.387   3.065   9.342
 8356SOL    HW136696   0.451   3.109   9.286
 8356SOL    HW236697   0.349   2.996   9.286
 8357SOL     OW36698   0.950   4.094  10.512
 8357SOL    HW136699   0.955   4.182  10.549
 8357SOL    HW236700   0.875   4.054  10.556
 8358SOL     OW36701   3.083   2.270   3.372
 8358SOL    HW136702   3.101   2.354   3.414
 8358SOL    HW236703   3.086   2.289   3.278
 8359SOL     OW36704   0.934   1.415   6.090
 8359SOL    HW136705   0.848   1.374   6.083
 8359SOL    HW236706   0.981   1.387   6.012
 8360SOL     OW36707   2.710   3.676  26.606
 8360SOL    HW136708   2.748   3.747  26.553
 8360SOL    HW236709   2.739   3.596  26.562
 8361SOL     OW36710   0.469   3.875  23.157
 8361SOL    HW136711   0.409   3.802  23.171
 8361SOL    HW236712   0.531   3.842  23.092
 8362SOL     OW36713   2.565   2.939  23.600
 8362SOL    HW136714   2.495   3.004  23.599
 8362SOL    HW236715   2.619   2.963  23.676
 8363SOL     OW36716   1.097   3.964   7.919
 8363SOL    HW136717   1.114   3.885   7.868
 8363SOL    HW236718   1.057   4.024   7.857
 8364SOL     OW36719   1.681   4.576  21.402
 8364SOL    HW136720   1.626   4.596  21.477
 8364SOL    HW236721   1.670   4.652  21.344
 8365SOL     OW36722   2.746   1.655   9.770
 8365SOL    HW136723   2.677   1.665   9.836
 8365SOL    HW236724   2.739   1.563   9.742
 8366SOL     OW36725   2.796   2.661  11.907
 8366SOL    HW136726   2.814   2.585  11.963
 8366SOL    HW236727   2.748   2.624  11.833
 8367SOL     OW36728   0.403   1.462  23.163
 8367SOL    HW136729   0.337   1.530  23.145
 8367SOL    HW236730   0.459   1.501  23.230
 8368SOL     OW36731   4.579   0.765   2.760
 8368SOL    HW136732   4.611   0.852   2.785
 8368SOL    HW236733   4.527   0.736   2.835
 8369SOL     OW36734   3.830   0.926  27.780
 8369SOL    HW136735   3.782   1.008  27.779
 8369SOL    HW236736   3.913   0.946  27.735
 8370SOL     OW36737   2.917   3.951   0.543
 8370SOL    HW136738   2.936   3.927   0.452
 8370SOL    HW236739   2.837   3.904   0.564
 8371SOL     OW36740   2.620   0.017  22.363
 8371SOL    HW136741   2.560   4.751  22.422
 8371SOL    HW236742   2.704   4.754  22.376
 8372SOL     OW36743   3.341   2.090  23.229
 8372SOL    HW136744   3.254   2.080  23.268
 8372SOL    HW236745   3.383   2.005  23.243
 8373SOL     OW36746   3.605   1.192   3.238
 8373SOL    HW136747   3.690   1.204   3.195
 8373SOL    HW236748   3.587   1.098   3.230
 8374SOL     OW36749   0.632   3.078  24.622
 8374SOL    HW136750   0.668   3.075  24.533
 8374SOL    HW236751   0.624   3.172  24.641
 8375SOL     OW36752   1.352   0.398  25.435
 8375SOL    HW136753   1.441   0.373  25.459
 8375SOL    HW236754   1.361   0.483  25.394
 8376SOL     OW36755   2.068   3.959   7.734
 8376SOL    HW136756   2.102   4.048   7.726
 8376SOL    HW236757   1.994   3.967   7.795
 8377SOL     OW36758   3.428   4.670  25.690
 8377SOL    HW136759   3.395   4.759  25.679
 8377SOL    HW236760   3.402   4.625  25.609
 8378SOL     OW36761   4.631   1.248  17.753
 8378SOL    HW136762   4.625   1.156  17.777
 8378SOL    HW236763   4.544   1.270  17.718
 8379SOL     OW36764   2.956   0.930  26.785
 8379SOL    HW136765   2.933   0.939  26.877
 8379SOL    HW236766   2.874   0.904  26.742
 8380SOL     OW36767   4.779   3.491  20.067
 8380SOL    HW136768   4.727   3.427  20.019
 8380SOL    HW236769   4.714   3.552  20.104
 8381SOL     OW36770   1.122   4.736  27.098
 8381SOL    HW136771   1.140   4.671  27.166
 8381SOL    HW236772   1.203   0.004  27.089
 8382SOL     OW36773   0.260   0.971   7.013
 8382SOL    HW136774   0.279   0.929   6.929
 8382SOL    HW236775   0.165   0.963   7.022
 8383SOL     OW36776   0.895   4.325   3.759
 8383SOL    HW136777   0.820   4.335   3.700
 8383SOL    HW236778   0.860   4.342   3.846
 8384SOL     OW36779   1.856   4.601  27.927
 8384SOL    HW136780   1.873   4.562  27.841
 8384SOL    HW236781   1.860   4.695  27.912
 8385SOL     OW36782   1.961   3.169  28.512
 8385SOL    HW136783   1.948   3.136  28.423
 8385SOL    HW236784   1.882   3.220   0.008
 8386SOL     OW36785   2.587   1.601  27.283
 8386SOL    HW136786   2.539   1.682  27.301
 8386SOL    HW236787   2.647   1.624  27.212
 8387SOL     OW36788   3.453   0.713  27.879
 8387SOL    HW136789   3.466   0.681  27.968
 8387SOL    HW236790   3.369   0.675  27.852
 8388SOL     OW36791   0.423   2.308  28.376
 8388SOL    HW136792   0.360   2.344  28.438
 8388SOL    HW236793   0.507   2.345  28.403
 8389SOL     OW36794   2.464   0.968  16.802
 8389SOL    HW136795   2.527   1.033  16.773
 8389SOL    HW236796   2.400   0.962  16.731
 8390SOL     OW36797   0.731   2.433  10.917
 8390SOL    HW136798   0.643   2.408  10.890
 8390SOL    HW236799   0.720   2.519  10.958
 8391SOL     OW36800   2.884   4.700  23.628
 8391SOL    HW136801   2.861   4.745  23.546
 8391SOL    HW236802   2.829   4.622  23.629
 8392SOL     OW36803   3.977   0.573   6.855
 8392SOL    HW136804   3.938   0.524   6.783
 8392SOL    HW236805   3.922   0.553   6.930
 8393SOL     OW36806   3.871   3.305   5.196
 8393SOL    HW136807   3.834   3.225   5.233
 8393SOL    HW236808   3.966   3.293   5.202
 8394SOL     OW36809   0.448   1.183   0.941
 8394SOL    HW136810   0.506   1.224   1.005
 8394SOL    HW236811   0.491   1.101   0.918
 8395SOL     OW36812   0.547   3.988  22.419
 8395SOL    HW136813   0.485   3.928  22.376
 8395SOL    HW236814   0.577   4.045  22.349
 8396SOL     OW36815   4.158   3.490   4.957
 8396SOL    HW136816   4.139   3.522   4.869
 8396SOL    HW236817   4.099   3.541   5.013
 8397SOL     OW36818   3.996   3.064  24.890
 8397SOL    HW136819   3.973   3.053  24.797
 8397SOL    HW236820   3.987   3.157  24.906
 8398SOL     OW36821   0.456   0.503   4.606
 8398SOL    HW136822   0.488   0.457   4.684
 8398SOL    HW236823   0.522   0.485   4.539
 8399SOL     OW36824   0.309   0.352  21.677
 8399SOL    HW136825   0.247   0.300  21.728
 8399SOL    HW236826   0.257   0.389  21.606
 8400SOL     OW36827   4.764   2.863  24.739
 8400SOL    HW136828   0.075   2.838  24.737
 8400SOL    HW236829   4.747   2.897  24.651
 8401SOL     OW36830   0.501   0.801  22.001
 8401SOL    HW136831   0.436   0.871  22.008
 8401SOL    HW236832   0.455   0.730  21.957
 8402SOL     OW36833   2.421   2.809  12.283
 8402SOL    HW136834   2.456   2.892  12.316
 8402SOL    HW236835   2.424   2.751  12.359
 8403SOL     OW36836   2.916   2.925  11.924
 8403SOL    HW136837   2.970   3.000  11.950
 8403SOL    HW236838   2.965   2.885  11.852
 8404SOL     OW36839   2.309   4.390   8.597
 8404SOL    HW136840   2.371   4.405   8.669
 8404SOL    HW236841   2.339   4.309   8.556
 8405SOL     OW36842   4.694   2.031   9.518
 8405SOL    HW136843   4.631   2.015   9.448
 8405SOL    HW236844   4.659   2.107   9.565
 8406SOL     OW36845   3.087   1.619  18.906
 8406SOL    HW136846   3.076   1.678  18.833
 8406SOL    HW236847   3.018   1.642  18.968
 8407SOL     OW36848   4.296   1.487   6.491
 8407SOL    HW136849   4.220   1.456   6.539
 8407SOL    HW236850   4.357   1.516   6.559
 8408SOL     OW36851   3.322   2.222   2.927
 8408SOL    HW136852   3.325   2.166   2.850
 8408SOL    HW236853   3.295   2.308   2.895
 8409SOL     OW36854   2.912   0.064   5.832
 8409SOL    HW136855   2.883   0.114   5.908
 8409SOL    HW236856   2.848   0.084   5.764
 8410SOL     OW36857   3.751   4.492  11.715
 8410SOL    HW136858   3.800   4.567  11.681
 8410SOL    HW236859   3.723   4.519  11.802
 8411SOL     OW36860   0.576   4.245   5.268
 8411SOL    HW136861   0.602   4.190   5.342
 8411SOL    HW236862   0.551   4.328   5.307
 8412SOL     OW36863   0.691   1.625  10.131
 8412SOL    HW136864   0.622   1.685  10.103
 8412SOL    HW236865   0.646   1.556  10.178
 8413SOL     OW36866   0.703   4.118   1.702
 8413SOL    HW136867   0.752   4.088   1.779
 8413SOL    HW236868   0.673   4.038   1.659
 8414SOL     OW36869   0.927   4.654   3.769
 8414SOL    HW136870   0.970   4.584   3.818
 8414SOL    HW236871   0.918   4.620   3.680
 8415SOL     OW36872   4.601   1.367  20.108
 8415SOL    HW136873   4.552   1.293  20.072
 8415SOL    HW236874   4.547   1.444  20.088
 8416SOL     OW36875   4.600   1.366  26.952
 8416SOL    HW136876   4.676   1.422  26.968
 8416SOL    HW236877   4.616   1.289  27.007
 8417SOL     OW36878   1.497   0.048  19.320
 8417SOL    HW136879   1.560   0.076  19.254
 8417SOL    HW236880   1.420   0.103  19.303
 8418SOL     OW36881   2.347   3.911  23.091
 8418SOL    HW136882   2.405   3.836  23.103
 8418SOL    HW236883   2.261   3.873  23.071
 8419SOL     OW36884   0.812   1.771  12.783
 8419SOL    HW136885   0.809   1.676  12.786
 8419SOL    HW236886   0.724   1.799  12.810
 8420SOL     OW36887   3.762   3.967   8.026
 8420SOL    HW136888   3.801   3.976   8.113
 8420SOL    HW236889   3.802   4.037   7.975
 8421SOL     OW36890   1.013   0.022  11.480
 8421SOL    HW136891   0.981   4.737  11.543
 8421SOL    HW236892   1.093   0.056  11.521
 8422SOL     OW36893   1.559   4.131  26.804
 8422SOL    HW136894   1.553   4.225  26.788
 8422SOL    HW236895   1.485   4.094  26.755
 8423SOL     OW36896   0.664   1.623   2.615
 8423SOL    HW136897   0.688   1.683   2.544
 8423SOL    HW236898   0.578   1.654   2.645
 8424SOL     OW36899   0.056   4.630   3.674
 8424SOL    HW136900   0.083   4.668   3.590
 8424SOL    HW236901   4.762   4.683   3.702
 8425SOL     OW36902   2.994   4.319  13.465
 8425SOL    HW136903   2.929   4.293  13.531
 8425SOL    HW236904   3.050   4.242  13.454
 8426SOL     OW36905   1.629   2.428   9.389
 8426SOL    HW136906   1.686   2.504   9.405
 8426SOL    HW236907   1.553   2.444   9.445
 8427SOL     OW36908   1.141   1.159   8.174
 8427SOL    HW136909   1.119   1.080   8.125
 8427SOL    HW236910   1.195   1.129   8.247
 8428SOL     OW36911   2.634   3.389   2.710
 8428SOL    HW136912   2.541   3.408   2.696
 8428SOL    HW236913   2.675   3.475   2.719
 8429SOL     OW36914   3.078   3.178   9.665
 8429SOL    HW136915   3.108   3.215   9.748
 8429SOL    HW236916   3.025   3.102   9.691
 8430SOL     OW36917   2.136   4.038  21.503
 8430SOL    HW136918   2.090   3.962  21.539
 8430SOL    HW236919   2.089   4.113  21.538
 8431SOL     OW36920   4.293   4.169   4.735
 8431SOL    HW136921   4.303   4.263   4.746
 8431SOL    HW236922   4.346   4.147   4.659
 8432SOL     OW36923   0.748   0.954   1.474
 8432SOL    HW136924   0.792   0.993   1.400
 8432SOL    HW236925   0.738   0.861   1.451
 8433SOL     OW36926   3.712   3.697  11.271
 8433SOL    HW136927   3.658   3.751  11.328
 8433SOL    HW236928   3.729   3.618  11.323
 8434SOL     OW36929   3.668   1.573  23.526
 8434SOL    HW136930   3.592   1.628  23.544
 8434SOL    HW236931   3.634   1.483  23.528
 8435SOL     OW36932   0.045   0.716  12.308
 8435SOL    HW136933   4.770   0.694  12.383
 8435SOL    HW236934   0.015   0.658  12.238
 8436SOL     OW36935   0.731   2.172  24.493
 8436SOL    HW136936   0.804   2.232  24.476
 8436SOL    HW236937   0.659   2.206  24.441
 8437SOL     OW36938   3.855   4.484  20.804
 8437SOL    HW136939   3.882   4.407  20.854
 8437SOL    HW236940   3.769   4.462  20.770
 8438SOL     OW36941   2.372   2.032   5.658
 8438SOL    HW136942   2.324   2.110   5.633
 8438SOL    HW236943   2.332   1.961   5.607
 8439SOL     OW36944   1.756   1.403  27.185
 8439SOL    HW136945   1.818   1.337  27.217
 8439SOL    HW236946   1.672   1.377  27.221
 8440SOL     OW36947   3.667   2.105   5.520
 8440SOL    HW136948   3.678   2.193   5.485
 8440SOL    HW236949   3.664   2.049   5.443
 8441SOL     OW36950   1.896   3.513  10.126
 8441SOL    HW136951   1.858   3.439  10.173
 8441SOL    HW236952   1.871   3.498  10.035
 8442SOL     OW36953   0.062   3.312  24.771
 8442SOL    HW136954   0.147   3.272  24.789
 8442SOL    HW236955   0.071   3.350  24.684
 8443SOL     OW36956   3.168   1.462  21.731
 8443SOL    HW136957   3.198   1.373  21.712
 8443SOL    HW236958   3.159   1.465  21.826
 8444SOL     OW36959   3.201   3.290  24.174
 8444SOL    HW136960   3.235   3.372  24.138
 8444SOL    HW236961   3.146   3.254  24.104
 8445SOL     OW36962   0.204   2.294  21.840
 8445SOL    HW136963   0.272   2.299  21.773
 8445SOL    HW236964   0.141   2.362  21.817
 8446SOL     OW36965   1.266   2.779  25.829
 8446SOL    HW136966   1.341   2.732  25.793
 8446SOL    HW236967   1.278   2.870  25.802
 8447SOL     OW36968   2.046   4.521  28.308
 8447SOL    HW136969   1.968   4.498  28.256
 8447SOL    HW236970   2.055   4.449  28.370
 8448SOL     OW36971   0.549   3.867   7.211
 8448SOL    HW136972   0.587   3.797   7.157
 8448SOL    HW236973   0.454   3.856   7.201
 8449SOL     OW36974   2.926   0.709   5.404
 8449SOL    HW136975   2.891   0.672   5.485
 8449SOL    HW236976   2.854   0.762   5.369
 8450SOL     OW36977   0.908   3.231  22.086
 8450SOL    HW136978   0.835   3.293  22.091
 8450SOL    HW236979   0.919   3.200  22.176
 8451SOL     OW36980   0.336   3.840  11.915
 8451SOL    HW136981   0.380   3.755  11.910
 8451SOL    HW236982   0.251   3.821  11.954
 8452SOL     OW36983   0.826   3.618  23.275
 8452SOL    HW136984   0.762   3.549  23.295
 8452SOL    HW236985   0.782   3.699  23.299
 8453SOL     OW36986   2.335   2.281  11.700
 8453SOL    HW136987   2.310   2.222  11.629
 8453SOL    HW236988   2.414   2.325  11.668
 8454SOL     OW36989   1.713   2.936  27.104
 8454SOL    HW136990   1.709   2.968  27.194
 8454SOL    HW236991   1.802   2.900  27.096
 8455SOL     OW36992   2.048   1.682  21.384
 8455SOL    HW136993   2.095   1.737  21.320
 8455SOL    HW236994   2.045   1.735  21.464
 8456SOL     OW36995   3.778   1.716   8.671
 8456SOL    HW136996   3.819   1.734   8.586
 8456SOL    HW236997   3.722   1.640   8.655
 8457SOL     OW36998   4.666   1.343  25.529
 8457SOL    HW136999   4.686   1.370  25.440
 8457SOL    HW237000   4.616   1.415  25.566
 8458SOL     OW37001   3.452   0.170   7.503
 8458SOL    HW137002   3.422   0.244   7.450
 8458SOL    HW237003   3.504   0.210   7.573
 8459SOL     OW37004   1.725   4.217  18.666
 8459SOL    HW137005   1.819   4.231  18.678
 8459SOL    HW237006   1.686   4.251  18.746
 8460SOL     OW37007   0.238   2.185   4.447
 8460SOL    HW137008   0.262   2.218   4.534
 8460SOL    HW237009   0.143   2.184   4.446
 8461SOL     OW37010   0.012   1.230  23.998
 8461SOL    HW137011   0.088   1.223  24.057
 8461SOL    HW237012   0.046   1.207  23.912
 8462SOL     OW37013   0.140   3.534   6.815
 8462SOL    HW137014   0.217   3.503   6.861
 8462SOL    HW237015   0.145   3.493   6.729
 8463SOL     OW37016   2.558   1.762  10.743
 8463SOL    HW137017   2.585   1.707  10.670
 8463SOL    HW237018   2.617   1.737  10.815
 8464SOL     OW37019   0.269   3.219  20.121
 8464SOL    HW137020   0.329   3.232  20.047
 8464SOL    HW237021   0.204   3.156  20.088
 8465SOL     OW37022   4.123   0.598  21.972
 8465SOL    HW137023   4.164   0.512  21.971
 8465SOL    HW237024   4.034   0.583  22.003
 8466SOL     OW37025   2.406   2.682  21.829
 8466SOL    HW137026   2.459   2.641  21.897
 8466SOL    HW237027   2.317   2.684  21.866
 8467SOL     OW37028   4.600   2.112  23.731
 8467SOL    HW137029   4.616   2.139  23.640
 8467SOL    HW237030   4.590   2.194  23.779
 8468SOL     OW37031   3.580   1.622   2.361
 8468SOL    HW137032   3.593   1.532   2.390
 8468SOL    HW237033   3.648   1.636   2.295
 8469SOL     OW37034   2.199   2.531   0.836
 8469SOL    HW137035   2.198   2.607   0.894
 8469SOL    HW237036   2.155   2.462   0.886
 8470SOL     OW37037   4.695   1.780   6.101
 8470SOL    HW137038   4.690   1.735   6.016
 8470SOL    HW237039   0.001   1.819   6.103
 8471SOL     OW37040   3.480   1.633  24.317
 8471SOL    HW137041   3.397   1.589  24.298
 8471SOL    HW237042   3.486   1.629  24.413
 8472SOL     OW37043   2.373   2.200   2.647
 8472SOL    HW137044   2.452   2.245   2.678
 8472SOL    HW237045   2.311   2.209   2.719
 8473SOL     OW37046   2.560   4.337  22.163
 8473SOL    HW137047   2.614   4.413  22.141
 8473SOL    HW237048   2.580   4.319  22.255
 8474SOL     OW37049   0.031   0.690  23.717
 8474SOL    HW137050   0.010   0.672  23.625
 8474SOL    HW237051   4.773   0.616  23.765
 8475SOL     OW37052   1.394   2.579   3.908
 8475SOL    HW137053   1.308   2.541   3.921
 8475SOL    HW237054   1.412   2.625   3.990
 8476SOL     OW37055   3.474   2.025  25.565
 8476SOL    HW137056   3.510   1.936  25.570
 8476SOL    HW237057   3.465   2.053  25.656
 8477SOL     OW37058   2.157   3.567  26.295
 8477SOL    HW137059   2.189   3.523  26.374
 8477SOL    HW237060   2.076   3.611  26.323
 8478SOL     OW37061   2.110   0.274  12.416
 8478SOL    HW137062   2.074   0.357  12.385
 8478SOL    HW237063   2.036   0.230  12.458
 8479SOL     OW37064   3.689   0.861  26.176
 8479SOL    HW137065   3.595   0.850  26.163
 8479SOL    HW237066   3.730   0.792  26.124
 8480SOL     OW37067   1.843   0.474   5.729
 8480SOL    HW137068   1.911   0.477   5.795
 8480SOL    HW237069   1.770   0.428   5.771
 8481SOL     OW37070   3.231   2.079   6.100
 8481SOL    HW137071   3.222   2.083   6.004
 8481SOL    HW237072   3.219   1.987   6.121
 8482SOL     OW37073   3.563   4.250  11.941
 8482SOL    HW137074   3.482   4.253  11.993
 8482SOL    HW237075   3.629   4.288  11.998
 8483SOL     OW37076   3.906   4.662  12.039
 8483SOL    HW137077   3.909   4.636  12.131
 8483SOL    HW237078   3.828   4.716  12.031
 8484SOL     OW37079   1.811   2.203  26.647
 8484SOL    HW137080   1.722   2.181  26.675
 8484SOL    HW237081   1.828   2.289  26.685
 8485SOL     OW37082   4.687   4.363  20.920
 8485SOL    HW137083   4.628   4.426  20.961
 8485SOL    HW237084   4.755   4.347  20.985
 8486SOL     OW37085   2.767   2.025   6.222
 8486SOL    HW137086   2.692   2.033   6.163
 8486SOL    HW237087   2.810   2.110   6.218
 8487SOL     OW37088   3.059   1.306   8.332
 8487SOL    HW137089   3.088   1.391   8.365
 8487SOL    HW237090   3.136   1.250   8.339
 8488SOL     OW37091   2.159   4.737  11.860
 8488SOL    HW137092   2.122   4.738  11.772
 8488SOL    HW237093   2.091   4.774  11.916
 8489SOL     OW37094   0.551   3.887   9.214
 8489SOL    HW137095   0.617   3.926   9.157
 8489SOL    HW237096   0.501   3.961   9.248
 8490SOL     OW37097   3.475   1.312  20.648
 8490SOL    HW137098   3.463   1.379  20.715
 8490SOL    HW237099   3.505   1.235  20.697
 8491SOL     OW37100   2.929   2.197   9.417
 8491SOL    HW137101   2.991   2.251   9.466
 8491SOL    HW237102   2.983   2.152   9.352
 8492SOL     OW37103   1.545   4.010   8.303
 8492SOL    HW137104   1.632   3.984   8.274
 8492SOL    HW237105   1.540   3.983   8.394
 8493SOL     OW37106   2.813   3.328   0.373
 8493SOL    HW137107   2.720   3.310   0.359
 8493SOL    HW237108   2.855   3.303   0.291
 8494SOL     OW37109   2.734   0.180   8.090
 8494SOL    HW137110   2.751   0.117   8.020
 8494SOL    HW237111   2.757   0.264   8.052
 8495SOL     OW37112   0.145   2.824  10.481
 8495SOL    HW137113   0.137   2.907  10.527
 8495SOL    HW237114   0.202   2.843  10.407
 8496SOL     OW37115   0.893   3.546   6.970
 8496SOL    HW137116   0.841   3.560   6.891
 8496SOL    HW237117   0.909   3.635   7.003
 8497SOL     OW37118   3.800   4.344  22.181
 8497SOL    HW137119   3.822   4.387  22.263
 8497SOL    HW237120   3.797   4.415  22.117
 8498SOL     OW37121   3.957   4.125  12.596
 8498SOL    HW137122   4.010   4.195  12.558
 8498SOL    HW237123   3.967   4.134  12.690
 8499SOL     OW37124   0.552   0.240  11.444
 8499SOL    HW137125   0.596   0.164  11.481
 8499SOL    HW237126   0.470   0.206  11.408
 8500SOL     OW37127   4.775   3.778  13.042
 8500SOL    HW137128   4.731   3.863  13.038
 8500SOL    HW237129   0.073   3.794  13.094
 8501SOL     OW37130   0.577   4.670  12.482
 8501SOL    HW137131   0.630   4.682  12.403
 8501SOL    HW237132   0.639   4.680  12.554
 8502SOL     OW37133   3.335   1.967   6.581
 8502SOL    HW137134   3.431   1.972   6.581
 8502SOL    HW237135   3.309   2.011   6.662
 8503SOL     OW37136   3.134   4.637  11.740
 8503SOL    HW137137   3.109   4.710  11.797
 8503SOL    HW237138   3.213   4.601  11.780
 8504SOL     OW37139   0.575   0.010  11.620
 8504SOL    HW137140   0.530   0.051  11.694
 8504SOL    HW237141   0.513   4.726  11.587
 8505SOL     OW37142   2.918   0.374  11.609
 8505SOL    HW137143   2.872   0.414  11.683
 8505SOL    HW237144   2.976   0.442  11.576
 8506SOL     OW37145   0.276   0.274  10.965
 8506SOL    HW137146   0.239   0.295  11.050
 8506SOL    HW237147   0.335   0.347  10.945
 8507SOL     OW37148   4.388   4.252  11.884
 8507SOL    HW137149   4.433   4.298  11.812
 8507SOL    HW237150   4.369   4.321  11.948
 8508SOL     OW37151   4.377   1.850  11.695
 8508SOL    HW137152   4.330   1.794  11.632
 8508SOL    HW237153   4.386   1.795  11.773
 8509SOL     OW37154   4.612   4.758  12.879
 8509SOL    HW137155   4.536   0.031  12.858
 8509SOL    HW237156   4.676   0.038  12.916
 8510SOL     OW37157   2.671   0.630  13.187
 8510SOL    HW137158   2.735   0.665  13.250
 8510SOL    HW237159   2.599   0.693  13.189
 8511SOL     OW37160   2.254   4.342   5.927
 8511SOL    HW137161   2.264   4.437   5.922
 8511SOL    HW237162   2.241   4.315   5.836
 8512SOL     OW37163   3.060   1.794   8.501
 8512SOL    HW137164   3.011   1.717   8.474
 8512SOL    HW237165   3.027   1.865   8.446
 8513SOL     OW37166   4.497   0.202   9.539
 8513SOL    HW137167   4.403   0.188   9.524
 8513SOL    HW237168   4.534   0.212   9.451
 8514SOL     OW37169   0.928   3.495  13.159
 8514SOL    HW137170   0.895   3.573  13.204
 8514SOL    HW237171   0.906   3.509  13.067
 8515SOL     OW37172   4.738   4.094  13.251
 8515SOL    HW137173   4.739   4.066  13.159
 8515SOL    HW237174   4.685   4.173  13.251
 8516SOL     OW37175   4.521   4.473  11.752
 8516SOL    HW137176   4.558   4.522  11.825
 8516SOL    HW237177   4.495   4.539  11.688
 8517SOL     OW37178   0.334   4.631  12.389
 8517SOL    HW137179   0.418   4.657  12.427
 8517SOL    HW237180   0.318   4.696  12.320
 8518SOL     OW37181   4.279   1.478  11.718
 8518SOL    HW137182   4.368   1.507  11.698
 8518SOL    HW237183   4.269   1.397  11.669
 8519SOL     OW37184   0.468   3.762  12.983
 8519SOL    HW137185   0.414   3.722  12.916
 8519SOL    HW237186   0.406   3.804  13.042
 8520SOL     OW37187   0.090   2.419  12.806
 8520SOL    HW137188   0.079   2.513  12.795
 8520SOL    HW237189   0.013   2.381  12.765
 8521SOL     OW37190   4.543   4.659  12.086
 8521SOL    HW137191   4.528   4.728  12.022
 8521SOL    HW237192   4.624   4.617  12.058
 8522SOL     OW37193   4.562   3.214  11.594
 8522SOL    HW137194   4.651   3.195  11.562
 8522SOL    HW237195   4.575   3.270  11.670
 8523SOL     OW37196   4.748   4.054  12.994
 8523SOL    HW137197   4.699   4.123  12.951
 8523SOL    HW237198   0.049   4.048  12.945
 8524SOL     OW37199   3.394   2.117   4.820
 8524SOL    HW137200   3.352   2.031   4.812
 8524SOL    HW237201   3.486   2.101   4.801
 8525SOL     OW37202   0.076   1.339   8.277
 8525SOL    HW137203   0.117   1.256   8.253
 8525SOL    HW237204   0.015   1.357   8.205
 8526SOL     OW37205   3.044   0.381  24.514
 8526SOL    HW137206   2.986   0.341  24.449
 8526SOL    HW237207   3.079   0.307  24.563
 8527SOL     OW37208   4.609   3.728  11.231
 8527SOL    HW137209   4.599   3.634  11.246
 8527SOL    HW237210   4.538   3.768  11.282
 8528SOL     OW37211   0.042   3.531  12.949
 8528SOL    HW137212   0.029   3.535  12.855
 8528SOL    HW237213   0.024   3.620  12.980
 8529SOL     OW37214   0.097   3.548  12.646
 8529SOL    HW137215   0.134   3.467  12.612
 8529SOL    HW237216   0.012   3.556  12.603
 8530SOL     OW37217   4.748   4.604  11.564
 8530SOL    HW137218   4.698   4.652  11.629
 8530SOL    HW237219   4.699   4.523  11.552
 8531SOL     OW37220   4.046   0.437  12.941
 8531SOL    HW137221   3.993   0.469  13.014
 8531SOL    HW237222   4.003   0.473  12.863
 8532SOL     OW37223   4.522   4.098  12.742
 8532SOL    HW137224   4.580   4.169  12.770
 8532SOL    HW237225   4.573   4.018  12.755
 8533SOL     OW37226   0.997   1.772  12.562
 8533SOL    HW137227   0.950   1.757  12.644
 8533SOL    HW237228   0.928   1.778  12.496
 8534SOL     OW37229   4.314   0.517  12.928
 8534SOL    HW137230   4.376   0.446  12.946
 8534SOL    HW237231   4.230   0.484  12.962
 8535SOL     OW37232   2.531   0.502  21.252
 8535SOL    HW137233   2.570   0.549  21.178
 8535SOL    HW237234   2.505   0.570  21.313
 8536SOL     OW37235   4.573   4.293  13.300
 8536SOL    HW137236   4.577   4.288  13.395
 8536SOL    HW237237   4.482   4.314  13.280
 8537SOL     OW37238   4.698   3.884  12.692
 8537SOL    HW137239   4.776   3.843  12.730
 8537SOL    HW237240   4.628   3.821  12.709
 8538SOL     OW37241   4.333   4.452  12.055
 8538SOL    HW137242   4.269   4.453  12.126
 8538SOL    HW237243   4.389   4.528  12.072
 8539SOL     OW37244   4.290   3.843  12.587
 8539SOL    HW137245   4.348   3.836  12.663
 8539SOL    HW237246   4.286   3.755  12.551
 8540SOL     OW37247   4.308   4.119  12.578
 8540SOL    HW137248   4.280   4.033  12.546
 8540SOL    HW237249   4.391   4.101  12.624
 8541SOL     OW37250   1.295   0.369  12.789
 8541SOL    HW137251   1.313   0.389  12.881
 8541SOL    HW237252   1.209   0.327  12.789
 8542SOL     OW37253   0.400   4.579  11.534
 8542SOL    HW137254   0.439   4.493  11.547
 8542SOL    HW237255   0.349   4.570  11.453
 8543SOL     OW37256   3.392   2.592  13.657
 8543SOL    HW137257   3.296   2.591  13.659
 8543SOL    HW237258   3.418   2.514  13.705
 8544SOL     OW37259   3.153   0.518  14.343
 8544SOL    HW137260   3.164   0.607  14.374
 8544SOL    HW237261   3.233   0.498  14.295
 8545SOL     OW37262   3.932   4.373  12.742
 8545SOL    HW137263   3.993   4.446  12.739
 8545SOL    HW237264   3.963   4.320  12.816
 8546SOL     OW37265   3.900   0.029  13.002
 8546SOL    HW137266   3.982   0.061  12.964
 8546SOL    HW237267   3.846   0.108  13.011
 8547SOL     OW37268   3.357   0.339  13.367
 8547SOL    HW137269   3.293   0.406  13.392
 8547SOL    HW237270   3.406   0.322  13.448
 8548SOL     OW37271   3.676   4.297  12.697
 8548SOL    HW137272   3.630   4.342  12.767
 8548SOL    HW237273   3.765   4.331  12.700
 8549SOL     OW37274   3.292   0.799  13.517
 8549SOL    HW137275   3.373   0.842  13.545
 8549SOL    HW237276   3.234   0.804  13.593
 8550SOL     OW37277   3.353   0.129  12.986
 8550SOL    HW137278   3.412   0.083  13.045
 8550SOL    HW237279   3.269   0.131  13.032
 8551SOL     OW37280   1.321   4.064  13.546
 8551SOL    HW137281   1.249   4.119  13.516
 8551SOL    HW237282   1.338   4.093  13.635
 8552SOL     OW37283   4.475   4.640  11.538
 8552SOL    HW137284   4.519   4.725  11.537
 8552SOL    HW237285   4.383   4.661  11.554
 8553SOL     OW37286   4.113   4.529  14.251
 8553SOL    HW137287   4.030   4.485  14.268
 8553SOL    HW237288   4.127   4.519  14.157
 8554SOL     OW37289   0.301   0.115  13.676
 8554SOL    HW137290   0.394   0.125  13.699
 8554SOL    HW237291   0.271   0.043  13.733
 8555SOL     OW37292   1.381   2.842  11.780
 8555SOL    HW137293   1.385   2.817  11.688
 8555SOL    HW237294   1.415   2.766  11.827
 8556SOL     OW37295   3.760   0.360  13.895
 8556SOL    HW137296   3.711   0.296  13.843
 8556SOL    HW237297   3.695   0.395  13.957
 8557SOL     OW37298   0.247   3.555  14.141
 8557SOL    HW137299   0.325   3.575  14.089
 8557SOL    HW237300   0.281   3.513  14.220
 8558SOL     OW37301   0.337   0.165  14.416
 8558SOL    HW137302   0.358   0.200  14.330
 8558SOL    HW237303   0.422   0.158  14.460
 8559SOL     OW37304   0.475   4.481  14.023
 8559SOL    HW137305   0.390   4.448  13.994
 8559SOL    HW237306   0.463   4.575  14.032
 8560SOL     OW37307   4.412   3.712  14.224
 8560SOL    HW137308   4.348   3.744  14.161
 8560SOL    HW237309   4.362   3.658  14.284
 8561SOL     OW37310   3.906   0.375  14.282
 8561SOL    HW137311   3.829   0.350  14.230
 8561SOL    HW237312   3.920   0.302  14.341
 8562SOL     OW37313   0.371   3.438  14.347
 8562SOL    HW137314   0.458   3.434  14.306
 8562SOL    HW237315   0.388   3.458  14.439
 8563SOL     OW37316   0.220   3.801  12.683
 8563SOL    HW137317   0.308   3.785  12.650
 8563SOL    HW237318   0.184   3.714  12.700
 8564SOL     OW37319   0.306   3.880  13.876
 8564SOL    HW137320   0.240   3.839  13.932
 8564SOL    HW237321   0.317   3.967  13.914
 8565SOL     OW37322   1.365   4.179  13.786
 8565SOL    HW137323   1.301   4.156  13.853
 8565SOL    HW237324   1.399   4.264  13.813
 8566SOL     OW37325   4.178   3.681  13.389
 8566SOL    HW137326   4.273   3.686  13.387
 8566SOL    HW237327   4.156   3.680  13.482
 8567SOL     OW37328   0.210   4.417  13.942
 8567SOL    HW137329   0.214   4.412  13.846
 8567SOL    HW237330   0.155   4.343  13.968
 8568SOL     OW37331   3.738   4.262  13.801
 8568SOL    HW137332   3.704   4.272  13.712
 8568SOL    HW237333   3.785   4.344  13.819
 8569SOL     OW37334   0.564   4.069  14.903
 8569SOL    HW137335   0.519   4.061  14.819
 8569SOL    HW237336   0.528   4.148  14.943
 8570SOL     OW37337   4.685   0.135  14.926
 8570SOL    HW137338   4.720   0.048  14.943
 8570SOL    HW237339   4.590   0.123  14.924
 8571SOL     OW37340   4.010   3.878  13.307
 8571SOL    HW137341   3.930   3.861  13.358
 8571SOL    HW237342   4.072   3.811  13.337
 8572SOL     OW37343   3.471   0.355  13.810
 8572SOL    HW137344   3.419   0.276  13.825
 8572SOL    HW237345   3.487   0.389  13.898
 8573SOL     OW37346   4.078   4.493  13.710
 8573SOL    HW137347   3.992   4.505  13.751
 8573SOL    HW237348   4.122   4.428  13.765
 8574SOL     OW37349   4.718   3.619  15.284
 8574SOL    HW137350   0.018   3.610  15.234
 8574SOL    HW237351   4.699   3.531  15.315
 8575SOL     OW37352   0.009   3.492  14.945
 8575SOL    HW137353   4.724   3.522  14.883
 8575SOL    HW237354   0.008   3.397  14.938
 8576SOL     OW37355   4.129   3.667  14.173
 8576SOL    HW137356   4.061   3.624  14.121
 8576SOL    HW237357   4.086   3.690  14.255
 8577SOL     OW37358   0.094   0.589  13.281
 8577SOL    HW137359   0.133   0.543  13.355
 8577SOL    HW237360   0.055   0.668  13.319
 8578SOL     OW37361   0.473   0.214  13.449
 8578SOL    HW137362   0.389   0.170  13.454
 8578SOL    HW237363   0.527   0.170  13.515
 8579SOL     OW37364   1.059   4.355  13.803
 8579SOL    HW137365   1.116   4.421  13.764
 8579SOL    HW237366   0.995   4.405  13.854
 8580SOL     OW37367   1.045   0.685  11.957
 8580SOL    HW137368   1.111   0.706  11.891
 8580SOL    HW237369   1.061   0.593  11.977
 8581SOL     OW37370   4.302   4.510  13.525
 8581SOL    HW137371   4.328   4.601  13.543
 8581SOL    HW237372   4.255   4.483  13.604
 8582SOL     OW37373   0.065   4.209  13.527
 8582SOL    HW137374   4.757   4.204  13.562
 8582SOL    HW237375   0.055   4.195  13.433
 8583SOL     OW37376   4.344   4.450  13.262
 8583SOL    HW137377   4.281   4.380  13.242
 8583SOL    HW237378   4.320   4.479  13.350
 8584SOL     OW37379   3.890   3.627  14.063
 8584SOL    HW137380   3.855   3.558  14.006
 8584SOL    HW237381   3.816   3.684  14.081
 8585SOL     OW37382   0.248   4.714  13.880
 8585SOL    HW137383   0.250   4.619  13.868
 8585SOL    HW237384   0.228   4.725  13.973
 8586SOL     OW37385   0.404   3.434  15.084
 8586SOL    HW137386   0.401   3.339  15.092
 8586SOL    HW237387   0.497   3.454  15.076
 8587SOL     OW37388   3.486   3.640  13.897
 8587SOL    HW137389   3.464   3.700  13.968
 8587SOL    HW237390   3.558   3.587  13.932
 8588SOL     OW37391   4.238   3.889  14.024
 8588SOL    HW137392   4.280   3.862  13.943
 8588SOL    HW237393   4.194   3.810  14.056
 8589SOL     OW37394   3.809   4.541  13.771
 8589SOL    HW137395   3.779   4.591  13.846
 8589SOL    HW237396   3.730   4.524  13.720
 8590SOL     OW37397   0.124   3.756  14.034
 8590SOL    HW137398   0.152   3.669  14.061
 8590SOL    HW237399   0.034   3.764  14.066
 8591SOL     OW37400   4.652   3.787  14.128
 8591SOL    HW137401   4.571   3.754  14.168
 8591SOL    HW237402   4.635   3.880  14.114
 8592SOL     OW37403   4.084   3.287  14.985
 8592SOL    HW137404   4.022   3.236  14.933
 8592SOL    HW237405   4.114   3.228  15.053
 8593SOL     OW37406   4.594   4.624  15.733
 8593SOL    HW137407   4.664   4.681  15.700
 8593SOL    HW237408   4.639   4.560  15.787
 8594SOL     OW37409   4.085   4.386  15.278
 8594SOL    HW137410   4.113   4.387  15.186
 8594SOL    HW237411   4.017   4.453  15.283
 8595SOL     OW37412   2.926   3.774  17.452
 8595SOL    HW137413   2.847   3.823  17.428
 8595SOL    HW237414   2.963   3.747  17.368
 8596SOL     OW37415   3.602   2.321  19.620
 8596SOL    HW137416   3.579   2.403  19.576
 8596SOL    HW237417   3.657   2.274  19.557
 8597SOL     OW37418   1.812   2.357  17.123
 8597SOL    HW137419   1.846   2.315  17.044
 8597SOL    HW237420   1.733   2.402  17.094
 8598SOL     OW37421   1.063   4.684  15.811
 8598SOL    HW137422   1.156   4.676  15.790
 8598SOL    HW237423   1.026   4.599  15.786
 8599SOL     OW37424   3.228   0.186  17.397
 8599SOL    HW137425   3.173   0.254  17.357
 8599SOL    HW237426   3.313   0.196  17.354
 8600SOL     OW37427   4.207   4.703  15.116
 8600SOL    HW137428   4.256   4.652  15.052
 8600SOL    HW237429   4.121   4.715  15.078
 8601SOL     OW37430   0.051   0.440  15.827
 8601SOL    HW137431   0.014   0.362  15.867
 8601SOL    HW237432   0.001   0.451  15.745
 8602SOL     OW37433   0.306   0.357  15.670
 8602SOL    HW137434   0.310   0.283  15.610
 8602SOL    HW237435   0.227   0.341  15.723
 8603SOL     OW37436   0.257   4.059  15.373
 8603SOL    HW137437   0.340   4.104  15.357
 8603SOL    HW237438   0.215   4.055  15.287
 8604SOL     OW37439   0.232   3.401  15.984
 8604SOL    HW137440   0.279   3.379  15.904
 8604SOL    HW237441   0.196   3.488  15.968
 8605SOL     OW37442   0.089   0.143  14.513
 8605SOL    HW137443   0.031   0.192  14.456
 8605SOL    HW237444   0.177   0.158  14.477
 8606SOL     OW37445   4.692   4.179  14.885
 8606SOL    HW137446   0.003   4.181  14.860
 8606SOL    HW237447   4.670   4.086  14.889
 8607SOL     OW37448   4.373   3.560  14.895
 8607SOL    HW137449   4.446   3.542  14.835
 8607SOL    HW237450   4.414   3.602  14.970
 8608SOL     OW37451   4.499   4.179  17.866
 8608SOL    HW137452   4.558   4.226  17.924
 8608SOL    HW237453   4.526   4.205  17.778
 8609SOL     OW37454   0.890   0.232  15.652
 8609SOL    HW137455   0.838   0.189  15.585
 8609SOL    HW237456   0.981   0.217  15.625
 8610SOL     OW37457   4.606   4.441  14.875
 8610SOL    HW137458   4.680   4.484  14.834
 8610SOL    HW237459   4.631   4.348  14.878
 8611SOL     OW37460   3.380   4.032  17.602
 8611SOL    HW137461   3.369   3.974  17.527
 8611SOL    HW237462   3.420   4.112  17.566
 8612SOL     OW37463   4.033   0.190  15.341
 8612SOL    HW137464   4.123   0.200  15.308
 8612SOL    HW237465   4.002   0.280  15.353
 8613SOL     OW37466   3.900   4.163  15.050
 8613SOL    HW137467   3.942   4.097  14.995
 8613SOL    HW237468   3.956   4.240  15.042
 8614SOL     OW37469   4.775   4.011  15.810
 8614SOL    HW137470   0.019   4.009  15.717
 8614SOL    HW237471   4.693   4.061  15.811
 8615SOL     OW37472   3.995   3.597  15.137
 8615SOL    HW137473   3.912   3.556  15.115
 8615SOL    HW237474   4.043   3.601  15.054
 8616SOL     OW37475   4.006   2.848  15.012
 8616SOL    HW137476   4.079   2.787  15.025
 8616SOL    HW237477   4.039   2.932  15.044
 8617SOL     OW37478   0.171   3.491  17.823
 8617SOL    HW137479   0.195   3.574  17.781
 8617SOL    HW237480   0.240   3.476  17.888
 8618SOL     OW37481   0.686   0.472  15.115
 8618SOL    HW137482   0.680   0.518  15.031
 8618SOL    HW237483   0.767   0.505  15.155
 8619SOL     OW37484   4.130   4.344  15.028
 8619SOL    HW137485   4.210   4.296  15.003
 8619SOL    HW237486   4.099   4.381  14.945
 8620SOL     OW37487   3.844   4.552  15.367
 8620SOL    HW137488   3.772   4.614  15.353
 8620SOL    HW237489   3.923   4.606  15.362
 8621SOL     OW37490   0.374   0.065  14.770
 8621SOL    HW137491   0.427   0.106  14.701
 8621SOL    HW237492   0.289   0.108  14.764
 8622SOL     OW37493   0.361   0.567  15.015
 8622SOL    HW137494   0.435   0.578  14.955
 8622SOL    HW237495   0.299   0.513  14.966
 8623SOL     OW37496   0.943   2.593  15.075
 8623SOL    HW137497   0.990   2.675  15.093
 8623SOL    HW237498   0.990   2.527  15.125
 8624SOL     OW37499   4.516   4.120  15.813
 8624SOL    HW137500   4.485   4.181  15.746
 8624SOL    HW237501   4.509   4.169  15.895
 8625SOL     OW37502   0.183   3.808  16.519
 8625SOL    HW137503   0.233   3.802  16.600
 8625SOL    HW237504   0.215   3.889  16.478
 8626SOL     OW37505   4.066   0.586  14.188
 8626SOL    HW137506   4.053   0.649  14.259
 8626SOL    HW237507   4.021   0.507  14.218
 8627SOL     OW37508   0.226   3.655  16.189
 8627SOL    HW137509   0.137   3.621  16.178
 8627SOL    HW237510   0.265   3.648  16.102
 8628SOL     OW37511   0.811   0.504  15.703
 8628SOL    HW137512   0.829   0.410  15.699
 8628SOL    HW237513   0.718   0.511  15.682
 8629SOL     OW37514   3.884   3.937  15.830
 8629SOL    HW137515   3.964   3.905  15.870
 8629SOL    HW237516   3.913   3.978  15.748
 8630SOL     OW37517   4.729   3.901  15.330
 8630SOL    HW137518   4.720   3.806  15.318
 8630SOL    HW237519   4.742   3.935  15.241
 8631SOL     OW37520   3.605   3.481  16.122
 8631SOL    HW137521   3.679   3.540  16.135
 8631SOL    HW237522   3.637   3.417  16.058
 8632SOL     OW37523   2.485   3.588  15.795
 8632SOL    HW137524   2.391   3.573  15.788
 8632SOL    HW237525   2.510   3.548  15.878
 8633SOL     OW37526   4.402   4.234  15.000
 8633SOL    HW137527   4.496   4.246  15.012
 8633SOL    HW237528   4.390   4.229  14.906
 8634SOL     OW37529   0.008   0.271  15.144
 8634SOL    HW137530   4.725   0.255  15.074
 8634SOL    HW237531   0.088   0.228  15.114
 8635SOL     OW37532   0.427   3.489  14.623
 8635SOL    HW137533   0.498   3.443  14.667
 8635SOL    HW237534   0.364   3.508  14.693
 8636SOL     OW37535   3.806   3.656  16.116
 8636SOL    HW137536   3.889   3.611  16.101
 8636SOL    HW237537   3.828   3.726  16.178
 8637SOL     OW37538   4.088   4.707  15.343
 8637SOL    HW137539   4.153   4.704  15.273
 8637SOL    HW237540   4.077   0.020  15.362
 8638SOL     OW37541   4.210   3.933  15.782
 8638SOL    HW137542   4.241   4.022  15.799
 8638SOL    HW237543   4.129   3.945  15.734
 8639SOL     OW37544   4.421   0.571  16.934
 8639SOL    HW137545   4.467   0.509  16.991
 8639SOL    HW237546   4.491   0.620  16.891
 8640SOL     OW37547   0.958   3.655  16.918
 8640SOL    HW137548   1.045   3.623  16.894
 8640SOL    HW237549   0.976   3.732  16.972
 8641SOL     OW37550   3.439   4.590  13.096
 8641SOL    HW137551   3.494   4.668  13.103
 8641SOL    HW237552   3.457   4.541  13.176
 8642SOL     OW37553   3.377   0.552  17.489
 8642SOL    HW137554   3.321   0.577  17.416
 8642SOL    HW237555   3.317   0.520  17.556
 8643SOL     OW37556   4.566   3.935  27.664
 8643SOL    HW137557   4.542   3.850  27.701
 8643SOL    HW237558   4.554   3.997  27.735
 8644SOL     OW37559   4.527   3.699  15.073
 8644SOL    HW137560   4.610   3.731  15.038
 8644SOL    HW237561   4.550   3.664  15.160
 8645SOL     OW37562   1.306   3.561  15.514
 8645SOL    HW137563   1.225   3.532  15.471
 8645SOL    HW237564   1.363   3.587  15.442
 8646SOL     OW37565   3.785   0.048  15.281
 8646SOL    HW137566   3.759   0.111  15.213
 8646SOL    HW237567   3.869   0.081  15.313
 8647SOL     OW37568   4.269   0.219  15.188
 8647SOL    HW137569   4.336   0.162  15.151
 8647SOL    HW237570   4.263   0.292  15.127
 8648SOL     OW37571   3.979   0.244  14.496
 8648SOL    HW137572   4.072   0.268  14.500
 8648SOL    HW237573   3.979   0.149  14.494
 8649SOL     OW37574   4.768   3.853  15.050
 8649SOL    HW137575   4.746   3.870  14.959
 8649SOL    HW237576   0.079   3.829  15.049
 8650SOL     OW37577   4.680   3.504  15.626
 8650SOL    HW137578   4.658   3.597  15.631
 8650SOL    HW237579   4.678   3.474  15.717
 8651SOL     OW37580   4.140   4.526  14.838
 8651SOL    HW137581   4.131   4.567  14.752
 8651SOL    HW237582   4.083   4.578  14.895
 8652SOL     OW37583   3.473   3.180  14.912
 8652SOL    HW137584   3.389   3.221  14.933
 8652SOL    HW237585   3.512   3.159  14.997
 8653SOL     OW37586   4.663   2.827  15.208
 8653SOL    HW137587   4.594   2.814  15.144
 8653SOL    HW237588   4.646   2.914  15.245
 8654SOL     OW37589   0.052   4.039  15.536
 8654SOL    HW137590   0.010   3.996  15.461
 8654SOL    HW237591   0.142   4.052  15.507
 8655SOL     OW37592   0.181   4.092  15.115
 8655SOL    HW137593   0.155   4.058  15.028
 8655SOL    HW237594   0.138   4.177  15.121
 8656SOL     OW37595   4.408   4.610  14.927
 8656SOL    HW137596   4.339   4.558  14.886
 8656SOL    HW237597   4.482   4.550  14.934
 8657SOL     OW37598   4.144   4.666  14.601
 8657SOL    HW137599   4.069   4.667  14.542
 8657SOL    HW237600   4.178   4.756  14.597
 8658SOL     OW37601   0.175   4.084  14.840
 8658SOL    HW137602   0.224   4.118  14.765
 8658SOL    HW237603   0.173   3.989  14.827
 8659SOL     OW37604   0.864   4.449  16.080
 8659SOL    HW137605   0.853   4.372  16.136
 8659SOL    HW237606   0.793   4.442  16.016
 8660SOL     OW37607   0.675   4.757  15.202
 8660SOL    HW137608   0.749   0.031  15.177
 8660SOL    HW237609   0.610   4.772  15.133
 8661SOL     OW37610   4.345   4.517  16.426
 8661SOL    HW137611   4.252   4.506  16.447
 8661SOL    HW237612   4.360   4.611  16.432
 8662SOL     OW37613   1.052   4.510  15.170
 8662SOL    HW137614   1.004   4.549  15.096
 8662SOL    HW237615   1.096   4.434  15.132
 8663SOL     OW37616   4.570   2.885  15.979
 8663SOL    HW137617   4.566   2.791  15.998
 8663SOL    HW237618   4.531   2.893  15.892
 8664SOL     OW37619   4.204   4.254  17.202
 8664SOL    HW137620   4.207   4.334  17.150
 8664SOL    HW237621   4.191   4.184  17.137
 8665SOL     OW37622   0.783   3.827  17.360
 8665SOL    HW137623   0.750   3.895  17.419
 8665SOL    HW237624   0.761   3.859  17.273
 8666SOL     OW37625   4.748   4.371  16.426
 8666SOL    HW137626   0.036   4.435  16.410
 8666SOL    HW237627   4.756   4.308  16.355
 8667SOL     OW37628   0.634   3.363  17.631
 8667SOL    HW137629   0.680   3.401  17.705
 8667SOL    HW237630   0.631   3.269  17.649
 8668SOL     OW37631   3.928   3.473  18.286
 8668SOL    HW137632   3.983   3.551  18.285
 8668SOL    HW237633   3.893   3.469  18.375
 8669SOL     OW37634   0.825   1.145  17.171
 8669SOL    HW137635   0.757   1.145  17.238
 8669SOL    HW237636   0.788   1.096  17.098
 8670SOL     OW37637   4.418   2.227  18.150
 8670SOL    HW137638   4.431   2.133  18.134
 8670SOL    HW237639   4.458   2.242  18.236
 8671SOL     OW37640   1.413   4.133  17.037
 8671SOL    HW137641   1.436   4.092  16.953
 8671SOL    HW237642   1.338   4.082  17.068
 8672SOL     OW37643   1.178   3.856  16.119
 8672SOL    HW137644   1.153   3.785  16.061
 8672SOL    HW237645   1.134   3.933  16.083
 8673SOL     OW37646   1.975   3.535  15.138
 8673SOL    HW137647   2.022   3.458  15.106
 8673SOL    HW237648   2.042   3.601  15.149
 8674SOL     OW37649   3.797   2.150  19.454
 8674SOL    HW137650   3.865   2.173  19.390
 8674SOL    HW237651   3.834   2.077  19.503
 8675SOL     OW37652   3.842   4.582  28.327
 8675SOL    HW137653   3.763   4.596  28.276
 8675SOL    HW237654   3.812   4.568  28.416
 8676SOL     OW37655   3.882   1.781  19.550
 8676SOL    HW137656   3.848   1.715  19.611
 8676SOL    HW237657   3.964   1.744  19.517
 8677SOL     OW37658   2.693   4.069  27.758
 8677SOL    HW137659   2.652   4.031  27.835
 8677SOL    HW237660   2.621   4.109  27.710
 8678SOL     OW37661   4.314   2.207  23.276
 8678SOL    HW137662   4.227   2.231  23.307
 8678SOL    HW237663   4.364   2.288  23.281
 8679SOL     OW37664   4.415   3.940  17.134
 8679SOL    HW137665   4.489   3.973  17.084
 8679SOL    HW237666   4.351   3.913  17.068
 8680SOL     OW37667   1.731   2.156  19.424
 8680SOL    HW137668   1.646   2.178  19.462
 8680SOL    HW237669   1.710   2.122  19.337
 8681SOL     OW37670   3.497   4.239  16.855
 8681SOL    HW137671   3.533   4.288  16.929
 8681SOL    HW237672   3.447   4.304  16.805
 8682SOL     OW37673   3.849   2.213   1.894
 8682SOL    HW137674   3.813   2.210   1.983
 8682SOL    HW237675   3.918   2.280   1.898
 8683SOL     OW37676   2.577   4.139  16.179
 8683SOL    HW137677   2.660   4.187  16.171
 8683SOL    HW237678   2.526   4.168  16.103
 8684SOL     OW37679   0.607   1.155  15.732
 8684SOL    HW137680   0.609   1.212  15.809
 8684SOL    HW237681   0.534   1.095  15.749
 8685SOL     OW37682   0.448   2.494   7.178
 8685SOL    HW137683   0.539   2.524   7.170
 8685SOL    HW237684   0.443   2.416   7.123
 8686SOL     OW37685   1.446   4.628  10.102
 8686SOL    HW137686   1.358   4.596  10.082
 8686SOL    HW237687   1.435   4.687  10.176
 8687SOL     OW37688   2.397   1.017  26.013
 8687SOL    HW137689   2.391   0.923  26.025
 8687SOL    HW237690   2.316   1.041  25.966
 8688SOL     OW37691   0.043   1.427  15.889
 8688SOL    HW137692   0.108   1.480  15.936
 8688SOL    HW237693   0.025   1.476  15.809
 8689SOL     OW37694   4.725   4.443  19.019
 8689SOL    HW137695   4.659   4.374  19.015
 8689SOL    HW237696   0.027   4.397  19.016
 8690SOL     OW37697   4.726   3.225  18.035
 8690SOL    HW137698   4.680   3.298  17.995
 8690SOL    HW237699   0.001   3.264  18.102
 8691SOL     OW37700   2.856   0.229   4.427
 8691SOL    HW137701   2.826   0.221   4.337
 8691SOL    HW237702   2.854   0.323   4.445
 8692SOL     OW37703   1.935   0.042  19.034
 8692SOL    HW137704   1.978   0.119  18.995
 8692SOL    HW237705   1.958   4.751  18.975
 8693SOL     OW37706   0.256   0.878  16.536
 8693SOL    HW137707   0.178   0.894  16.483
 8693SOL    HW237708   0.240   0.793  16.578
 8694SOL     OW37709   1.137   3.390  20.430
 8694SOL    HW137710   1.135   3.413  20.337
 8694SOL    HW237711   1.213   3.436  20.464
 8695SOL     OW37712   3.420   2.287  20.897
 8695SOL    HW137713   3.374   2.370  20.883
 8695SOL    HW237714   3.358   2.221  20.866
 8696SOL     OW37715   0.165   0.446  17.584
 8696SOL    HW137716   0.235   0.386  17.559
 8696SOL    HW237717   0.089   0.390  17.599
 8697SOL     OW37718   1.212   3.978  16.915
 8697SOL    HW137719   1.142   3.945  16.971
 8697SOL    HW237720   1.266   3.901  16.896
 8698SOL     OW37721   0.010   3.144  17.148
 8698SOL    HW137722   0.093   3.107  17.117
 8698SOL    HW237723   4.731   3.136  17.074
 8699SOL     OW37724   0.421   2.039  15.596
 8699SOL    HW137725   0.488   2.087  15.644
 8699SOL    HW237726   0.435   1.947  15.620
 8700SOL     OW37727   3.469   3.877  17.153
 8700SOL    HW137728   3.532   3.807  17.134
 8700SOL    HW237729   3.422   3.889  17.071
 8701SOL     OW37730   4.446   4.739  15.944
 8701SOL    HW137731   4.477   4.691  15.867
 8701SOL    HW237732   4.445   0.050  15.915
 8702SOL     OW37733   3.463   3.446  18.794
 8702SOL    HW137734   3.551   3.438  18.758
 8702SOL    HW237735   3.407   3.462  18.719
 8703SOL     OW37736   3.121   3.407  18.247
 8703SOL    HW137737   3.191   3.457  18.289
 8703SOL    HW237738   3.052   3.470  18.230
 8704SOL     OW37739   1.393   4.110  16.515
 8704SOL    HW137740   1.368   4.041  16.453
 8704SOL    HW237741   1.464   4.157  16.472
 8705SOL     OW37742   4.246   4.083  17.614
 8705SOL    HW137743   4.318   4.061  17.673
 8705SOL    HW237744   4.279   4.061  17.527
 8706SOL     OW37745   1.080   4.657  18.155
 8706SOL    HW137746   1.108   4.730  18.210
 8706SOL    HW237747   1.022   4.605  18.211
 8707SOL     OW37748   0.319   3.402  18.042
 8707SOL    HW137749   0.262   3.365  18.109
 8707SOL    HW237750   0.407   3.371  18.065
 8708SOL     OW37751   1.444   3.721  18.471
 8708SOL    HW137752   1.502   3.797  18.476
 8708SOL    HW237753   1.368   3.746  18.524
 8709SOL     OW37754   2.495   1.449  24.873
 8709SOL    HW137755   2.581   1.462  24.913
 8709SOL    HW237756   2.514   1.432  24.781
 8710SOL     OW37757   1.862   3.195  23.267
 8710SOL    HW137758   1.917   3.224  23.340
 8710SOL    HW237759   1.923   3.184  23.194
 8711SOL     OW37760   3.837   4.551  21.745
 8711SOL    HW137761   3.899   4.511  21.684
 8711SOL    HW237762   3.752   4.521  21.715
 8712SOL     OW37763   0.962   0.049  15.356
 8712SOL    HW137764   0.938   0.058  15.264
 8712SOL    HW237765   0.887   0.086  15.404
 8713SOL     OW37766   4.574   0.091  19.789
 8713SOL    HW137767   4.644   0.152  19.765
 8713SOL    HW237768   4.522   0.080  19.710
 8714SOL     OW37769   0.293   1.811  16.169
 8714SOL    HW137770   0.301   1.841  16.079
 8714SOL    HW237771   0.383   1.800  16.199
 8715SOL     OW37772   3.700   4.219  17.255
 8715SOL    HW137773   3.663   4.286  17.197
 8715SOL    HW237774   3.768   4.266  17.303
 8716SOL     OW37775   3.937   4.287  17.360
 8716SOL    HW137776   3.966   4.330  17.440
 8716SOL    HW237777   4.018   4.251  17.322
 8717SOL     OW37778   0.657   0.560  17.128
 8717SOL    HW137779   0.580   0.595  17.172
 8717SOL    HW237780   0.694   0.635  17.081
 8718SOL     OW37781   0.166   0.573  16.302
 8718SOL    HW137782   0.194   0.663  16.287
 8718SOL    HW237783   0.248   0.524  16.310
 8719SOL     OW37784   0.643   0.289  16.284
 8719SOL    HW137785   0.716   0.246  16.241
 8719SOL    HW237786   0.676   0.377  16.305
 8720SOL     OW37787   4.561   0.794  16.818
 8720SOL    HW137788   4.652   0.787  16.847
 8720SOL    HW237789   4.566   0.797  16.723
 8721SOL     OW37790   3.650   0.048  16.562
 8721SOL    HW137791   3.722   4.771  16.587
 8721SOL    HW237792   3.694   0.122  16.520
 8722SOL     OW37793   0.278   3.866  17.338
 8722SOL    HW137794   0.265   3.781  17.379
 8722SOL    HW237795   0.368   3.864  17.304
 8723SOL     OW37796   1.199   3.669  17.271
 8723SOL    HW137797   1.257   3.676  17.347
 8723SOL    HW237798   1.244   3.608  17.212
 8724SOL     OW37799   0.399   3.893  21.549
 8724SOL    HW137800   0.450   3.860  21.476
 8724SOL    HW237801   0.449   3.968  21.581
 8725SOL     OW37802   3.411   2.588  20.999
 8725SOL    HW137803   3.381   2.653  21.062
 8725SOL    HW237804   3.409   2.505  21.047
 8726SOL     OW37805   1.256   0.280  16.893
 8726SOL    HW137806   1.260   0.184  16.889
 8726SOL    HW237807   1.322   0.309  16.830
 8727SOL     OW37808   4.523   4.325  16.007
 8727SOL    HW137809   4.473   4.389  16.057
 8727SOL    HW237810   4.584   4.378  15.956
 8728SOL     OW37811   0.721   3.873  17.082
 8728SOL    HW137812   0.701   3.853  16.990
 8728SOL    HW237813   0.740   3.966  17.083
 8729SOL     OW37814   2.282   1.258  18.531
 8729SOL    HW137815   2.194   1.250  18.493
 8729SOL    HW237816   2.299   1.353  18.532
 8730SOL     OW37817   3.250   4.301  17.294
 8730SOL    HW137818   3.321   4.249  17.257
 8730SOL    HW237819   3.290   4.348  17.367
 8731SOL     OW37820   4.029   1.080  18.872
 8731SOL    HW137821   3.950   1.104  18.920
 8731SOL    HW237822   4.044   0.988  18.894
 8732SOL     OW37823   1.030   4.059  16.009
 8732SOL    HW137824   0.970   4.108  16.064
 8732SOL    HW237825   1.083   4.125  15.965
 8733SOL     OW37826   1.272   1.118   7.400
 8733SOL    HW137827   1.262   1.061   7.324
 8733SOL    HW237828   1.356   1.093   7.438
 8734SOL     OW37829   4.758   3.161  26.125
 8734SOL    HW137830   0.043   3.229  26.139
 8734SOL    HW237831   4.700   3.168  26.201
 8735SOL     OW37832   0.555   0.513  15.621
 8735SOL    HW137833   0.555   0.499  15.526
 8735SOL    HW237834   0.463   0.525  15.644
 8736SOL     OW37835   4.381   3.085  24.459
 8736SOL    HW137836   4.446   3.135  24.507
 8736SOL    HW237837   4.386   2.996  24.496
 8737SOL     OW37838   0.896   0.957  18.826
 8737SOL    HW137839   0.975   0.937  18.776
 8737SOL    HW237840   0.899   1.051  18.840
 8738SOL     OW37841   4.371   4.639  17.483
 8738SOL    HW137842   4.404   4.673  17.400
 8738SOL    HW237843   4.376   4.714  17.543
 8739SOL     OW37844   1.861   4.305  23.457
 8739SOL    HW137845   1.831   4.219  23.426
 8739SOL    HW237846   1.846   4.303  23.551
 8740SOL     OW37847   1.048   1.875   6.011
 8740SOL    HW137848   1.083   1.900   5.925
 8740SOL    HW237849   0.954   1.866   5.996
 8741SOL     OW37850   3.595   4.715   4.128
 8741SOL    HW137851   3.650   4.710   4.050
 8741SOL    HW237852   3.532   4.644   4.117
 8742SOL     OW37853   0.395   0.229   2.314
 8742SOL    HW137854   0.312   0.231   2.361
 8742SOL    HW237855   0.444   0.157   2.354
 8743SOL     OW37856   4.152   2.352  25.603
 8743SOL    HW137857   4.177   2.281  25.662
 8743SOL    HW237858   4.098   2.410  25.657
 8744SOL     OW37859   2.338   4.535  17.726
 8744SOL    HW137860   2.372   4.484  17.652
 8744SOL    HW237861   2.406   4.600  17.743
 8745SOL     OW37862   3.931   0.238   1.430
 8745SOL    HW137863   3.930   0.216   1.523
 8745SOL    HW237864   3.861   0.184   1.392
 8746SOL     OW37865   3.256   1.411  26.758
 8746SOL    HW137866   3.229   1.327  26.795
 8746SOL    HW237867   3.285   1.462  26.834
 8747SOL     OW37868   3.812   4.527  26.337
 8747SOL    HW137869   3.775   4.594  26.280
 8747SOL    HW237870   3.780   4.445  26.301
 8748SOL     OW37871   2.257   0.779  16.879
 8748SOL    HW137872   2.200   0.841  16.925
 8748SOL    HW237873   2.248   0.803  16.786
 8749SOL     OW37874   1.160   2.961  24.452
 8749SOL    HW137875   1.078   3.001  24.478
 8749SOL    HW237876   1.223   3.034  24.450
 8750SOL     OW37877   2.553   0.025   3.319
 8750SOL    HW137878   2.644   0.053   3.315
 8750SOL    HW237879   2.543   4.746   3.245
 8751SOL     OW37880   0.485   0.603   7.151
 8751SOL    HW137881   0.413   0.572   7.096
 8751SOL    HW237882   0.564   0.578   7.103
 8752SOL     OW37883   3.744   1.448   8.943
 8752SOL    HW137884   3.806   1.380   8.968
 8752SOL    HW237885   3.778   1.528   8.983
 8753SOL     OW37886   2.600   2.288  23.719
 8753SOL    HW137887   2.578   2.361  23.777
 8753SOL    HW237888   2.692   2.300  23.697
 8754SOL     OW37889   4.437   1.436  23.914
 8754SOL    HW137890   4.407   1.499  23.848
 8754SOL    HW237891   4.508   1.481  23.959
 8755SOL     OW37892   4.160   2.788  28.474
 8755SOL    HW137893   4.101   2.862  28.464
 8755SOL    HW237894   4.105   2.711  28.458
 8756SOL     OW37895   4.269   2.517   6.712
 8756SOL    HW137896   4.261   2.567   6.794
 8756SOL    HW237897   4.268   2.425   6.740
 8757SOL     OW37898   1.155   0.994  17.483
 8757SOL    HW137899   1.193   0.910  17.460
 8757SOL    HW237900   1.145   1.039  17.399
 8758SOL     OW37901   1.679   0.948   7.309
 8758SOL    HW137902   1.626   1.005   7.366
 8758SOL    HW237903   1.658   0.859   7.338
 8759SOL     OW37904   1.567   2.117  26.371
 8759SOL    HW137905   1.579   2.112  26.466
 8759SOL    HW237906   1.481   2.080  26.355
 8760SOL     OW37907   1.332   4.485  22.879
 8760SOL    HW137908   1.399   4.550  22.856
 8760SOL    HW237909   1.277   4.479  22.801
 8761SOL     OW37910   0.156   1.610  11.210
 8761SOL    HW137911   0.104   1.530  11.218
 8761SOL    HW237912   0.110   1.674  11.265
 8762SOL     OW37913   0.090   2.411  16.244
 8762SOL    HW137914   0.016   2.393  16.186
 8762SOL    HW237915   0.118   2.499  16.220
 8763SOL     OW37916   4.776   3.830   2.772
 8763SOL    HW137917   4.746   3.744   2.744
 8763SOL    HW237918   0.045   3.813   2.852
 8764SOL     OW37919   4.220   3.282  21.244
 8764SOL    HW137920   4.240   3.308  21.154
 8764SOL    HW237921   4.193   3.363  21.287
 8765SOL     OW37922   0.066   1.785  26.319
 8765SOL    HW137923   0.139   1.804  26.378
 8765SOL    HW237924   0.063   1.861  26.261
 8766SOL     OW37925   4.277   0.002   3.518
 8766SOL    HW137926   4.251   4.772   3.427
 8766SOL    HW237927   4.373   4.777   3.516
 8767SOL     OW37928   4.266   3.638  22.025
 8767SOL    HW137929   4.321   3.560  22.019
 8767SOL    HW237930   4.214   3.626  22.104
 8768SOL     OW37931   3.678   0.941   2.903
 8768SOL    HW137932   3.602   0.988   2.869
 8768SOL    HW237933   3.674   0.954   2.998
 8769SOL     OW37934   2.870   2.416  21.405
 8769SOL    HW137935   2.882   2.438  21.497
 8769SOL    HW237936   2.883   2.321  21.400
 8770SOL     OW37937   4.396   3.756  27.253
 8770SOL    HW137938   4.390   3.851  27.264
 8770SOL    HW237939   4.453   3.728  27.325
 8771SOL     OW37940   4.074   0.433  19.896
 8771SOL    HW137941   4.105   0.379  19.968
 8771SOL    HW237942   4.072   0.373  19.821
 8772SOL     OW37943   1.428   1.171   9.378
 8772SOL    HW137944   1.408   1.085   9.414
 8772SOL    HW237945   1.388   1.233   9.439
 8773SOL     OW37946   0.748   1.316  22.816
 8773SOL    HW137947   0.697   1.247  22.860
 8773SOL    HW237948   0.821   1.332  22.875
 8774SOL     OW37949   4.409   1.879  25.409
 8774SOL    HW137950   4.315   1.879  25.389
 8774SOL    HW237951   4.437   1.968  25.388
 8775SOL     OW37952   3.489   1.617  21.952
 8775SOL    HW137953   3.496   1.712  21.940
 8775SOL    HW237954   3.398   1.603  21.977
 8776SOL     OW37955   0.491   3.745  17.195
 8776SOL    HW137956   0.567   3.798  17.218
 8776SOL    HW237957   0.526   3.658  17.179
 8777SOL     OW37958   2.492   3.536  22.912
 8777SOL    HW137959   2.559   3.478  22.946
 8777SOL    HW237960   2.514   3.623  22.947
 8778SOL     OW37961   0.001   2.851  19.043
 8778SOL    HW137962   4.715   2.871  18.978
 8778SOL    HW237963   0.049   2.776  19.007
 8779SOL     OW37964   3.496   1.449   6.801
 8779SOL    HW137965   3.514   1.530   6.754
 8779SOL    HW237966   3.501   1.474   6.893
 8780SOL     OW37967   2.058   3.722  20.610
 8780SOL    HW137968   2.062   3.669  20.530
 8780SOL    HW237969   1.970   3.761  20.607
 8781SOL     OW37970   1.106   4.466  18.678
 8781SOL    HW137971   1.199   4.443  18.676
 8781SOL    HW237972   1.105   4.562  18.672
 8782SOL     OW37973   0.135   1.595   6.298
 8782SOL    HW137974   0.122   1.685   6.269
 8782SOL    HW237975   0.133   1.600   6.394
 8783SOL     OW37976   0.905   4.097  18.751
 8783SOL    HW137977   0.916   4.119  18.843
 8783SOL    HW237978   0.979   4.041  18.730
 8784SOL     OW37979   1.260   4.048   5.187
 8784SOL    HW137980   1.256   4.016   5.097
 8784SOL    HW237981   1.180   4.015   5.228
 8785SOL     OW37982   1.705   2.440  24.780
 8785SOL    HW137983   1.685   2.424  24.872
 8785SOL    HW237984   1.630   2.406  24.733
 8786SOL     OW37985   1.674   1.382   4.307
 8786SOL    HW137986   1.694   1.465   4.349
 8786SOL    HW237987   1.616   1.405   4.234
 8787SOL     OW37988   0.091   2.196   0.591
 8787SOL    HW137989   0.173   2.185   0.543
 8787SOL    HW237990   0.102   2.142   0.669
 8788SOL     OW37991   1.491   4.380  11.774
 8788SOL    HW137992   1.397   4.388  11.791
 8788SOL    HW237993   1.532   4.432  11.843
 8789SOL     OW37994   0.364   3.003  24.451
 8789SOL    HW137995   0.421   3.017  24.376
 8789SOL    HW237996   0.383   2.914  24.480
 8790SOL     OW37997   0.538   4.203   4.147
 8790SOL    HW137998   0.503   4.146   4.079
 8790SOL    HW237999   0.584   4.144   4.207
 8791SOL     OW38000   0.147   3.028   3.700
 8791SOL    HW138001   0.157   2.958   3.764
 8791SOL    HW238002   0.073   3.079   3.732
 8792SOL     OW38003   2.266   3.680   0.543
 8792SOL    HW138004   2.258   3.755   0.602
 8792SOL    HW238005   2.202   3.617   0.576
 8793SOL     OW38006   1.203   3.043  20.621
 8793SOL    HW138007   1.182   3.124  20.666
 8793SOL    HW238008   1.258   2.994  20.682
 8794SOL     OW38009   1.562   0.723  12.327
 8794SOL    HW138010   1.625   0.726  12.399
 8794SOL    HW238011   1.477   0.735  12.369
 8795SOL     OW38012   1.514   2.903  19.829
 8795SOL    HW138013   1.560   2.831  19.786
 8795SOL    HW238014   1.485   2.958  19.757
 8796SOL     OW38015   2.760   3.138  19.490
 8796SOL    HW138016   2.711   3.108  19.566
 8796SOL    HW238017   2.693   3.171  19.429
 8797SOL     OW38018   0.757   2.582  24.101
 8797SOL    HW138019   0.720   2.518  24.163
 8797SOL    HW238020   0.827   2.624  24.150
 8798SOL     OW38021   1.937   0.046  24.342
 8798SOL    HW138022   1.895   0.127  24.312
 8798SOL    HW238023   2.021   0.043  24.297
 8799SOL     OW38024   2.310   0.096  27.064
 8799SOL    HW138025   2.225   0.133  27.039
 8799SOL    HW238026   2.330   0.033  26.995
 8800SOL     OW38027   3.228   3.807   8.023
 8800SOL    HW138028   3.211   3.901   8.027
 8800SOL    HW238029   3.294   3.797   7.954
 8801SOL     OW38030   0.880   2.602   9.755
 8801SOL    HW138031   0.833   2.536   9.806
 8801SOL    HW238032   0.866   2.684   9.803
 8802SOL     OW38033   0.525   3.841   8.884
 8802SOL    HW138034   0.501   3.781   8.953
 8802SOL    HW238035   0.530   3.787   8.805
 8803SOL     OW38036   1.791   2.950   0.459
 8803SOL    HW138037   1.783   3.045   0.448
 8803SOL    HW238038   1.873   2.938   0.506
 8804SOL     OW38039   2.429   4.510  27.525
 8804SOL    HW138040   2.394   4.588  27.483
 8804SOL    HW238041   2.424   4.529  27.619
 8805SOL     OW38042   0.342   2.258   0.768
 8805SOL    HW138043   0.274   2.308   0.814
 8805SOL    HW238044   0.397   2.324   0.727
 8806SOL     OW38045   2.694   3.262  20.854
 8806SOL    HW138046   2.661   3.339  20.900
 8806SOL    HW238047   2.687   3.286  20.761
 8807SOL     OW38048   0.469   0.939  26.128
 8807SOL    HW138049   0.452   0.888  26.050
 8807SOL    HW238050   0.445   1.029  26.104
 8808SOL     OW38051   2.274   4.265  22.143
 8808SOL    HW138052   2.235   4.345  22.107
 8808SOL    HW238053   2.367   4.285  22.151
 8809SOL     OW38054   1.812   3.229  23.616
 8809SOL    HW138055   1.788   3.304  23.670
 8809SOL    HW238056   1.908   3.235  23.608
 8810SOL     OW38057   0.431   0.233   9.182
 8810SOL    HW138058   0.485   0.216   9.105
 8810SOL    HW238059   0.398   0.322   9.169
 8811SOL     OW38060   0.876   4.391   0.691
 8811SOL    HW138061   0.801   4.436   0.731
 8811SOL    HW238062   0.901   4.325   0.755
 8812SOL     OW38063   1.790   4.233  26.345
 8812SOL    HW138064   1.732   4.240  26.269
 8812SOL    HW238065   1.874   4.267  26.314
 8813SOL     OW38066   2.735   1.388   3.005
 8813SOL    HW138067   2.745   1.316   3.067
 8813SOL    HW238068   2.644   1.384   2.978
 8814SOL     OW38069   3.389   4.171   0.978
 8814SOL    HW138070   3.481   4.159   1.002
 8814SOL    HW238071   3.356   4.235   1.041
 8815SOL     OW38072   4.399   1.435   0.545
 8815SOL    HW138073   4.303   1.436   0.554
 8815SOL    HW238074   4.415   1.485   0.465
 8816SOL     OW38075   0.865   2.632  25.025
 8816SOL    HW138076   0.840   2.600  24.939
 8816SOL    HW238077   0.820   2.574  25.086
 8817SOL     OW38078   0.089   2.656   7.875
 8817SOL    HW138079   0.153   2.715   7.915
 8817SOL    HW238080   0.132   2.570   7.876
 8818SOL     OW38081   3.778   0.160  19.958
 8818SOL    HW138082   3.785   0.214  20.037
 8818SOL    HW238083   3.855   0.103  19.961
 8819SOL     OW38084   3.908   1.560  28.231
 8819SOL    HW138085   3.862   1.512  28.300
 8819SOL    HW238086   3.995   1.576  28.267
 8820SOL     OW38087   2.600   1.375   3.394
 8820SOL    HW138088   2.648   1.325   3.327
 8820SOL    HW238089   2.509   1.373   3.365
 8821SOL     OW38090   0.785   3.720  20.681
 8821SOL    HW138091   0.705   3.743  20.634
 8821SOL    HW238092   0.855   3.759  20.629
 8822SOL     OW38093   0.707   0.516   7.028
 8822SOL    HW138094   0.797   0.545   7.011
 8822SOL    HW238095   0.704   0.427   6.992
 8823SOL     OW38096   4.350   0.910  22.323
 8823SOL    HW138097   4.333   0.872  22.409
 8823SOL    HW238098   4.387   0.996  22.342
 8824SOL     OW38099   2.015   1.190   6.117
 8824SOL    HW138100   1.926   1.224   6.102
 8824SOL    HW238101   2.001   1.102   6.152
 8825SOL     OW38102   2.991   2.851  20.163
 8825SOL    HW138103   3.023   2.774  20.209
 8825SOL    HW238104   2.952   2.905  20.232
 8826SOL     OW38105   3.225   1.273  28.179
 8826SOL    HW138106   3.286   1.272  28.253
 8826SOL    HW238107   3.192   1.363  28.177
 8827SOL     OW38108   1.395   2.355   2.997
 8827SOL    HW138109   1.373   2.342   3.089
 8827SOL    HW238110   1.368   2.445   2.978
 8828SOL     OW38111   0.117   0.417   3.953
 8828SOL    HW138112   0.166   0.380   3.879
 8828SOL    HW238113   0.151   0.506   3.961
 8829SOL     OW38114   3.080   1.936  22.987
 8829SOL    HW138115   3.123   1.852  22.999
 8829SOL    HW238116   3.127   1.996  23.045
 8830SOL     OW38117   3.014   4.608   3.429
 8830SOL    HW138118   3.063   4.662   3.490
 8830SOL    HW238119   2.968   4.545   3.484
 8831SOL     OW38120   4.154   4.316   9.196
 8831SOL    HW138121   4.100   4.281   9.125
 8831SOL    HW238122   4.097   4.378   9.241
 8832SOL     OW38123   0.579   2.049  20.196
 8832SOL    HW138124   0.606   2.119  20.255
 8832SOL    HW238125   0.587   1.969  20.248
 8833SOL     OW38126   4.765   3.405   1.863
 8833SOL    HW138127   0.039   3.464   1.916
 8833SOL    HW238128   0.006   3.428   1.772
 8834SOL     OW38129   4.450   0.322  26.435
 8834SOL    HW138130   4.483   0.412  26.426
 8834SOL    HW238131   4.380   0.315  26.370
 8835SOL     OW38132   1.274   3.689   6.900
 8835SOL    HW138133   1.184   3.715   6.878
 8835SOL    HW238134   1.273   3.594   6.900
 8836SOL     OW38135   0.113   3.705  11.245
 8836SOL    HW138136   0.128   3.726  11.337
 8836SOL    HW238137   0.019   3.722  11.231
 8837SOL     OW38138   1.349   0.117  26.488
 8837SOL    HW138139   1.378   0.110  26.398
 8837SOL    HW238140   1.325   0.028  26.514
 8838SOL     OW38141   2.682   1.773  20.328
 8838SOL    HW138142   2.690   1.731  20.413
 8838SOL    HW238143   2.764   1.755  20.283
 8839SOL     OW38144   3.738   4.675  26.734
 8839SOL    HW138145   3.793   4.724  26.794
 8839SOL    HW238146   3.788   4.595  26.715
 8840SOL     OW38147   3.031   0.501  25.529
 8840SOL    HW138148   3.027   0.482  25.435
 8840SOL    HW238149   3.121   0.528  25.544
 8841SOL     OW38150   0.620   3.655  26.663
 8841SOL    HW138151   0.703   3.703  26.672
 8841SOL    HW238152   0.586   3.650  26.752
 8842SOL     OW38153   4.551   0.389  18.678
 8842SOL    HW138154   4.641   0.418  18.690
 8842SOL    HW238155   4.520   0.437  18.601
 8843SOL     OW38156   3.615   2.573  24.153
 8843SOL    HW138157   3.574   2.491  24.179
 8843SOL    HW238158   3.697   2.576  24.203
 8844SOL     OW38159   2.586   1.270   5.677
 8844SOL    HW138160   2.567   1.269   5.771
 8844SOL    HW238161   2.532   1.341   5.643
 8845SOL     OW38162   3.472   2.853  17.206
 8845SOL    HW138163   3.556   2.880  17.244
 8845SOL    HW238164   3.464   2.760  17.229
 8846SOL     OW38165   4.236   1.017   1.496
 8846SOL    HW138166   4.279   1.084   1.443
 8846SOL    HW238167   4.305   0.953   1.515
 8847SOL     OW38168   0.349   2.144   6.155
 8847SOL    HW138169   0.444   2.153   6.158
 8847SOL    HW238170   0.334   2.051   6.138
 8848SOL     OW38171   2.444   0.799   8.956
 8848SOL    HW138172   2.494   0.852   9.018
 8848SOL    HW238173   2.502   0.786   8.882
 8849SOL     OW38174   2.767   0.585   5.996
 8849SOL    HW138175   2.813   0.505   6.020
 8849SOL    HW238176   2.821   0.622   5.925
 8850SOL     OW38177   0.917   0.311  25.023
 8850SOL    HW138178   0.930   0.405  25.030
 8850SOL    HW238179   0.916   0.294  24.929
 8851SOL     OW38180   1.084   1.836  22.704
 8851SOL    HW138181   1.056   1.757  22.659
 8851SOL    HW238182   1.053   1.908  22.648
 8852SOL     OW38183   4.694   2.625  18.469
 8852SOL    HW138184   4.627   2.556  18.474
 8852SOL    HW238185   4.722   2.624  18.377
 8853SOL     OW38186   2.151   0.645   8.254
 8853SOL    HW138187   2.098   0.573   8.288
 8853SOL    HW238188   2.240   0.610   8.253
 8854SOL     OW38189   2.186   1.406   7.191
 8854SOL    HW138190   2.146   1.492   7.187
 8854SOL    HW238191   2.142   1.362   7.263
 8855SOL     OW38192   2.213   0.047  24.710
 8855SOL    HW138193   2.167   0.127  24.738
 8855SOL    HW238194   2.300   0.077  24.686
 8856SOL     OW38195   1.755   3.977   9.214
 8856SOL    HW138196   1.684   3.914   9.227
 8856SOL    HW238197   1.779   4.003   9.303
 8857SOL     OW38198   1.534   4.089  11.011
 8857SOL    HW138199   1.495   4.006  10.984
 8857SOL    HW238200   1.511   4.098  11.103
 8858SOL     OW38201   2.116   1.568   6.818
 8858SOL    HW138202   2.139   1.594   6.907
 8858SOL    HW238203   2.096   1.475   6.824
 8859SOL     OW38204   2.565   4.153   9.723
 8859SOL    HW138205   2.650   4.194   9.709
 8859SOL    HW238206   2.550   4.158   9.818
 8860SOL     OW38207   3.390   0.278  25.919
 8860SOL    HW138208   3.374   0.296  26.012
 8860SOL    HW238209   3.324   0.329  25.873
 8861SOL     OW38210   1.756   1.915  23.612
 8861SOL    HW138211   1.824   1.899  23.547
 8861SOL    HW238212   1.683   1.860  23.583
 8862SOL     OW38213   3.661   0.151  20.997
 8862SOL    HW138214   3.615   0.191  20.923
 8862SOL    HW238215   3.671   0.222  21.061
 8863SOL     OW38216   3.343   0.277  20.989
 8863SOL    HW138217   3.327   0.281  21.083
 8863SOL    HW238218   3.300   0.196  20.961
 8864SOL     OW38219   4.062   3.578  26.632
 8864SOL    HW138220   3.993   3.536  26.581
 8864SOL    HW238221   4.031   3.573  26.723
 8865SOL     OW38222   4.045   0.310  28.170
 8865SOL    HW138223   4.107   0.247  28.207
 8865SOL    HW238224   3.969   0.305  28.229
 8866SOL     OW38225   3.992   1.330   4.010
 8866SOL    HW138226   3.981   1.395   4.079
 8866SOL    HW238227   4.087   1.320   4.001
 8867SOL     OW38228   3.961   4.448  19.800
 8867SOL    HW138229   4.042   4.499  19.800
 8867SOL    HW238230   3.893   4.511  19.822
 8868SOL     OW38231   4.396   2.851   4.575
 8868SOL    HW138232   4.343   2.929   4.595
 8868SOL    HW238233   4.333   2.779   4.578
 8869SOL     OW38234   0.977   0.539  10.633
 8869SOL    HW138235   1.029   0.581  10.702
 8869SOL    HW238236   0.887   0.543  10.665
 8870SOL     OW38237   4.174   4.182   4.337
 8870SOL    HW138238   4.129   4.249   4.389
 8870SOL    HW238239   4.267   4.202   4.349
 8871SOL     OW38240   0.527   0.661  18.886
 8871SOL    HW138241   0.620   0.638  18.896
 8871SOL    HW238242   0.492   0.592  18.830
 8872SOL     OW38243   1.380   3.637  27.688
 8872SOL    HW138244   1.359   3.629  27.781
 8872SOL    HW238245   1.295   3.640  27.644
 8873SOL     OW38246   0.149   1.374   3.718
 8873SOL    HW138247   0.097   1.419   3.784
 8873SOL    HW238248   0.088   1.314   3.676
 8874SOL     OW38249   3.519   2.346   2.480
 8874SOL    HW138250   3.442   2.329   2.426
 8874SOL    HW238251   3.545   2.260   2.512
 8875SOL     OW38252   4.348   2.397  23.012
 8875SOL    HW138253   4.284   2.359  22.952
 8875SOL    HW238254   4.297   2.454  23.070
 8876SOL     OW38255   0.923   0.457   2.627
 8876SOL    HW138256   0.840   0.445   2.672
 8876SOL    HW238257   0.975   0.511   2.686
 8877SOL     OW38258   1.377   4.723   1.315
 8877SOL    HW138259   1.396   0.034   1.333
 8877SOL    HW238260   1.420   4.675   1.386
 8878SOL     OW38261   2.469   0.511   5.936
 8878SOL    HW138262   2.402   0.495   6.002
 8878SOL    HW238263   2.476   0.428   5.888
 8879SOL     OW38264   0.381   4.711   5.148
 8879SOL    HW138265   0.322   4.734   5.076
 8879SOL    HW238266   0.334   4.740   5.227
 8880SOL     OW38267   3.971   1.140  24.421
 8880SOL    HW138268   3.958   1.052  24.458
 8880SOL    HW238269   4.066   1.152  24.418
 8881SOL     OW38270   4.181   4.540  20.470
 8881SOL    HW138271   4.091   4.511  20.487
 8881SOL    HW238272   4.184   4.553  20.375
 8882SOL     OW38273   1.358   0.783   2.516
 8882SOL    HW138274   1.334   0.867   2.478
 8882SOL    HW238275   1.443   0.762   2.476
 8883SOL     OW38276   4.488   4.465   4.456
 8883SOL    HW138277   4.563   4.511   4.495
 8883SOL    HW238278   4.427   4.535   4.432
 8884SOL     OW38279   0.067   1.586   3.924
 8884SOL    HW138280   0.023   1.543   3.997
 8884SOL    HW238281   0.138   1.635   3.964
 8885SOL     OW38282   2.454   2.004  19.530
 8885SOL    HW138283   2.463   2.087  19.483
 8885SOL    HW238284   2.411   2.028  19.613
 8886SOL     OW38285   1.088   0.647   9.409
 8886SOL    HW138286   1.071   0.577   9.346
 8886SOL    HW238287   1.009   0.700   9.410
 8887SOL     OW38288   3.978   3.495   4.133
 8887SOL    HW138289   4.065   3.506   4.094
 8887SOL    HW238290   3.946   3.411   4.099
 8888SOL     OW38291   0.278   1.915   5.295
 8888SOL    HW138292   0.339   1.862   5.245
 8888SOL    HW238293   0.308   2.005   5.283
 8889SOL     OW38294   4.182   4.409  28.410
 8889SOL    HW138295   4.156   4.464  28.484
 8889SOL    HW238296   4.125   4.332  28.416
 8890SOL     OW38297   0.949   3.453   8.693
 8890SOL    HW138298   0.975   3.463   8.602
 8890SOL    HW238299   0.961   3.541   8.731
 8891SOL     OW38300   3.958   0.530  20.413
 8891SOL    HW138301   3.892   0.525  20.482
 8891SOL    HW238302   3.910   0.565  20.337
 8892SOL     OW38303   4.490   0.119   2.107
 8892SOL    HW138304   4.472   0.156   2.193
 8892SOL    HW238305   4.547   0.044   2.124
 8893SOL     OW38306   4.631   3.675  27.447
 8893SOL    HW138307   4.662   3.685  27.537
 8893SOL    HW238308   4.673   3.747  27.399
 8894SOL     OW38309   4.757   3.161   7.888
 8894SOL    HW138310   0.003   3.092   7.828
 8894SOL    HW238311   0.054   3.215   7.900
 8895SOL     OW38312   1.245   3.644   9.233
 8895SOL    HW138313   1.262   3.675   9.144
 8895SOL    HW238314   1.154   3.615   9.231
 8896SOL     OW38315   0.269   1.366  21.028
 8896SOL    HW138316   0.321   1.360  21.108
 8896SOL    HW238317   0.188   1.410  21.055
 8897SOL     OW38318   4.474   0.311  23.214
 8897SOL    HW138319   4.440   0.236  23.263
 8897SOL    HW238320   4.405   0.376  23.220
 8898SOL     OW38321   3.865   1.478   1.577
 8898SOL    HW138322   3.798   1.544   1.596
 8898SOL    HW238323   3.892   1.446   1.663
 8899SOL     OW38324   4.554   4.250  26.765
 8899SOL    HW138325   4.597   4.325  26.806
 8899SOL    HW238326   4.574   4.258  26.672
 8900SOL     OW38327   1.851   1.876  26.409
 8900SOL    HW138328   1.916   1.820  26.367
 8900SOL    HW238329   1.880   1.965  26.391
 8901SOL     OW38330   3.427   3.980  19.864
 8901SOL    HW138331   3.381   3.922  19.803
 8901SOL    HW238332   3.407   4.068  19.832
 8902SOL     OW38333   0.912   4.666  22.988
 8902SOL    HW138334   0.860   4.590  22.961
 8902SOL    HW238335   0.892   4.677  23.081
 8903SOL     OW38336   4.136   4.397  27.734
 8903SOL    HW138337   4.106   4.392  27.643
 8903SOL    HW238338   4.210   4.337  27.739
 8904SOL     OW38339   0.760   1.304  27.509
 8904SOL    HW138340   0.747   1.362  27.434
 8904SOL    HW238341   0.736   1.217  27.476
 8905SOL     OW38342   1.771   1.953  26.932
 8905SOL    HW138343   1.825   1.955  27.011
 8905SOL    HW238344   1.685   1.982  26.961
 8906SOL     OW38345   3.527   1.008  21.056
 8906SOL    HW138346   3.600   0.995  21.117
 8906SOL    HW238347   3.512   0.921  21.018
 8907SOL     OW38348   0.593   0.927  25.282
 8907SOL    HW138349   0.499   0.906  25.277
 8907SOL    HW238350   0.622   0.885  25.364
 8908SOL     OW38351   3.161   0.992  24.941
 8908SOL    HW138352   3.240   1.031  24.978
 8908SOL    HW238353   3.181   0.982  24.847
 8909SOL     OW38354   0.777   1.598   4.350
 8909SOL    HW138355   0.711   1.534   4.322
 8909SOL    HW238356   0.770   1.599   4.445
 8910SOL     OW38357   2.641   2.048   8.945
 8910SOL    HW138358   2.616   1.959   8.971
 8910SOL    HW238359   2.605   2.104   9.014
 8911SOL     OW38360   3.962   0.902   3.512
 8911SOL    HW138361   4.034   0.843   3.533
 8911SOL    HW238362   4.001   0.990   3.516
 8912SOL     OW38363   0.900   2.205   2.519
 8912SOL    HW138364   0.932   2.161   2.440
 8912SOL    HW238365   0.883   2.134   2.581
 8913SOL     OW38366   4.059   1.133   3.416
 8913SOL    HW138367   4.056   1.190   3.493
 8913SOL    HW238368   4.086   1.191   3.344
 8914SOL     OW38369   1.866   0.272  22.245
 8914SOL    HW138370   1.905   0.359  22.252
 8914SOL    HW238371   1.794   0.273  22.309
 8915SOL     OW38372   1.505   0.806  20.991
 8915SOL    HW138373   1.520   0.721  20.950
 8915SOL    HW238374   1.467   0.785  21.076
 8916SOL     OW38375   0.455   3.604  22.960
 8916SOL    HW138376   0.385   3.592  23.024
 8916SOL    HW238377   0.410   3.615  22.876
 8917SOL     OW38378   0.995   1.340  21.272
 8917SOL    HW138379   0.931   1.377  21.332
 8917SOL    HW238380   1.065   1.309  21.328
 8918SOL     OW38381   3.806   3.902   6.950
 8918SOL    HW138382   3.729   3.955   6.966
 8918SOL    HW238383   3.864   3.921   7.024
 8919SOL     OW38384   0.597   3.089   6.133
 8919SOL    HW138385   0.640   3.088   6.219
 8919SOL    HW238386   0.585   3.182   6.113
 8920SOL     OW38387   3.017   0.589  18.486
 8920SOL    HW138388   3.103   0.583  18.526
 8920SOL    HW238389   3.017   0.673  18.440
 8921SOL     OW38390   0.535   0.877   6.511
 8921SOL    HW138391   0.628   0.880   6.490
 8921SOL    HW238392   0.494   0.937   6.449
 8922SOL     OW38393   1.125   0.258  25.936
 8922SOL    HW138394   1.155   0.335  25.983
 8922SOL    HW238395   1.063   0.215  25.995
 8923SOL     OW38396   2.499   1.033   0.883
 8923SOL    HW138397   2.420   1.050   0.935
 8923SOL    HW238398   2.501   0.938   0.872
 8924SOL     OW38399   1.026   3.185  22.707
 8924SOL    HW138400   1.031   3.278  22.684
 8924SOL    HW238401   1.117   3.156  22.713
 8925SOL     OW38402   1.084   3.415  23.946
 8925SOL    HW138403   1.032   3.341  23.977
 8925SOL    HW238404   1.166   3.408  23.994
 8926SOL     OW38405   3.755   0.304  26.309
 8926SOL    HW138406   3.747   0.391  26.349
 8926SOL    HW238407   3.833   0.310  26.255
 8927SOL     OW38408   2.430   1.582  21.252
 8927SOL    HW138409   2.496   1.644  21.220
 8927SOL    HW238410   2.355   1.637  21.275
 8928SOL     OW38411   4.368   0.002  27.459
 8928SOL    HW138412   4.320   0.034  27.383
 8928SOL    HW238413   4.314   0.029  27.534
 8929SOL     OW38414   1.750   3.794   2.173
 8929SOL    HW138415   1.827   3.838   2.210
 8929SOL    HW238416   1.773   3.701   2.174
 8930SOL     OW38417   2.063   1.801   0.961
 8930SOL    HW138418   2.152   1.825   0.936
 8930SOL    HW238419   2.008   1.853   0.903
 8931SOL     OW38420   4.506   4.254  21.397
 8931SOL    HW138421   4.460   4.202  21.463
 8931SOL    HW238422   4.462   4.232  21.314
 8932SOL     OW38423   2.916   3.356  21.891
 8932SOL    HW138424   2.881   3.345  21.980
 8932SOL    HW238425   2.995   3.410  21.904
 8933SOL     OW38426   1.514   1.915   3.285
 8933SOL    HW138427   1.468   1.927   3.202
 8933SOL    HW238428   1.452   1.947   3.351
 8934SOL     OW38429   3.528   3.477   3.411
 8934SOL    HW138430   3.520   3.430   3.328
 8934SOL    HW238431   3.597   3.542   3.395
 8935SOL     OW38432   1.028   4.146  10.238
 8935SOL    HW138433   0.971   4.113  10.307
 8935SOL    HW238434   1.110   4.168  10.283
 8936SOL     OW38435   3.143   1.309   8.061
 8936SOL    HW138436   3.111   1.305   8.151
 8936SOL    HW238437   3.176   1.220   8.044
 8937SOL     OW38438   0.366   1.578  25.853
 8937SOL    HW138439   0.295   1.637  25.879
 8937SOL    HW238440   0.386   1.528  25.932
 8938SOL     OW38441   2.180   4.658  26.245
 8938SOL    HW138442   2.149   4.577  26.287
 8938SOL    HW238443   2.197   4.632  26.154
 8939SOL     OW38444   1.720   4.246   1.419
 8939SOL    HW138445   1.676   4.282   1.496
 8939SOL    HW238446   1.772   4.173   1.452
 8940SOL     OW38447   4.340   1.011  17.693
 8940SOL    HW138448   4.392   0.964  17.627
 8940SOL    HW238449   4.271   1.054  17.643
 8941SOL     OW38450   1.638   1.433  20.447
 8941SOL    HW138451   1.731   1.430  20.467
 8941SOL    HW238452   1.595   1.423  20.532
 8942SOL     OW38453   0.695   3.093  27.356
 8942SOL    HW138454   0.776   3.070  27.309
 8942SOL    HW238455   0.626   3.084  27.290
 8943SOL     OW38456   2.321   3.176  24.054
 8943SOL    HW138457   2.272   3.115  24.109
 8943SOL    HW238458   2.376   3.225  24.116
 8944SOL     OW38459   0.371   0.468   0.146
 8944SOL    HW138460   0.428   0.394   0.126
 8944SOL    HW238461   0.297   0.430   0.193
 8945SOL     OW38462   2.041   3.573   1.721
 8945SOL    HW138463   2.038   3.503   1.656
 8945SOL    HW238464   1.980   3.546   1.790
 8946SOL     OW38465   0.256   1.342  22.678
 8946SOL    HW138466   0.238   1.436  22.676
 8946SOL    HW238467   0.296   1.327  22.764
 8947SOL     OW38468   0.293   4.607  26.731
 8947SOL    HW138469   0.374   4.604  26.680
 8947SOL    HW238470   0.225   4.579  26.670
 8948SOL     OW38471   3.653   2.737  10.744
 8948SOL    HW138472   3.631   2.725  10.836
 8948SOL    HW238473   3.691   2.653  10.718
 8949SOL     OW38474   3.553   0.608  10.960
 8949SOL    HW138475   3.621   0.651  10.907
 8949SOL    HW238476   3.559   0.651  11.045
 8950SOL     OW38477   1.687   2.814  25.483
 8950SOL    HW138478   1.682   2.719  25.467
 8950SOL    HW238479   1.768   2.825  25.533
 8951SOL     OW38480   2.723   3.193  10.653
 8951SOL    HW138481   2.729   3.159  10.742
 8951SOL    HW238482   2.665   3.269  10.661
 8952SOL     OW38483   3.991   4.136   2.631
 8952SOL    HW138484   4.071   4.137   2.684
 8952SOL    HW238485   3.956   4.225   2.639
 8953SOL     OW38486   0.735   2.214  25.292
 8953SOL    HW138487   0.793   2.260  25.353
 8953SOL    HW238488   0.665   2.179  25.348
 8954SOL     OW38489   3.526   0.868   6.927
 8954SOL    HW138490   3.616   0.897   6.909
 8954SOL    HW238491   3.496   0.832   6.843
 8955SOL     OW38492   4.461   1.459   8.252
 8955SOL    HW138493   4.496   1.379   8.212
 8955SOL    HW238494   4.493   1.529   8.197
 8956SOL     OW38495   4.480   1.380   2.954
 8956SOL    HW138496   4.541   1.321   2.997
 8956SOL    HW238497   4.474   1.347   2.864
 8957SOL     OW38498   4.070   3.541   0.541
 8957SOL    HW138499   4.164   3.530   0.553
 8957SOL    HW238500   4.031   3.487   0.610
 8958SOL     OW38501   3.753   1.427   8.654
 8958SOL    HW138502   3.845   1.438   8.629
 8958SOL    HW238503   3.753   1.441   8.749
 8959SOL     OW38504   1.282   4.301  24.547
 8959SOL    HW138505   1.306   4.241  24.617
 8959SOL    HW238506   1.322   4.385  24.571
 8960SOL     OW38507   0.183   4.222   0.007
 8960SOL    HW138508   0.115   4.187   0.064
 8960SOL    HW238509   0.149   4.306  28.500
 8961SOL     OW38510   0.033   1.387   4.701
 8961SOL    HW138511   4.750   1.366   4.633
 8961SOL    HW238512   0.115   1.349   4.669
 8962SOL     OW38513   0.448   1.575   4.602
 8962SOL    HW138514   0.400   1.640   4.652
 8962SOL    HW238515   0.501   1.627   4.541
 8963SOL     OW38516   2.622   0.449  26.726
 8963SOL    HW138517   2.537   0.492  26.721
 8963SOL    HW238518   2.673   0.489  26.655
 8964SOL     OW38519   1.775   2.872  23.332
 8964SOL    HW138520   1.802   2.900  23.420
 8964SOL    HW238521   1.854   2.885  23.278
 8965SOL     OW38522   0.752   1.541  20.734
 8965SOL    HW138523   0.660   1.526  20.758
 8965SOL    HW238524   0.763   1.492  20.653
 8966SOL     OW38525   4.146   2.327   2.754
 8966SOL    HW138526   4.197   2.318   2.674
 8966SOL    HW238527   4.057   2.348   2.724
 8967SOL     OW38528   4.141   1.564  16.233
 8967SOL    HW138529   4.220   1.513  16.250
 8967SOL    HW238530   4.069   1.502  16.242
 8968SOL     OW38531   0.906   3.667   2.037
 8968SOL    HW138532   0.830   3.622   2.073
 8968SOL    HW238533   0.943   3.716   2.110
 8969SOL     OW38534   3.057   1.240  25.267
 8969SOL    HW138535   3.014   1.156  25.252
 8969SOL    HW238536   3.074   1.274  25.179
 8970SOL     OW38537   1.186   1.008  21.753
 8970SOL    HW138538   1.161   1.000  21.845
 8970SOL    HW238539   1.183   0.918  21.720
 8971SOL     OW38540   0.305   2.997   5.849
 8971SOL    HW138541   0.332   3.038   5.766
 8971SOL    HW238542   0.341   3.054   5.917
 8972SOL     OW38543   0.078   2.386   3.702
 8972SOL    HW138544   0.110   2.358   3.616
 8972SOL    HW238545   0.157   2.396   3.755
 8973SOL     OW38546   4.518   1.130  24.625
 8973SOL    HW138547   4.444   1.134  24.686
 8973SOL    HW238548   4.485   1.170  24.545
 8974SOL     OW38549   4.505   1.340  22.157
 8974SOL    HW138550   4.584   1.290  22.135
 8974SOL    HW238551   4.491   1.322  22.250
 8975SOL     OW38552   2.895   1.632   4.402
 8975SOL    HW138553   2.843   1.605   4.327
 8975SOL    HW238554   2.836   1.626   4.477
 8976SOL     OW38555   4.332   1.375   1.756
 8976SOL    HW138556   4.290   1.458   1.778
 8976SOL    HW238557   4.347   1.380   1.661
 8977SOL     OW38558   3.235   0.290   6.103
 8977SOL    HW138559   3.313   0.294   6.048
 8977SOL    HW238560   3.264   0.326   6.187
 8978SOL     OW38561   2.097   2.110  21.040
 8978SOL    HW138562   2.038   2.061  20.983
 8978SOL    HW238563   2.184   2.078  21.018
 8979SOL     OW38564   1.353   4.095  24.259
 8979SOL    HW138565   1.281   4.070  24.317
 8979SOL    HW238566   1.319   4.169  24.209
 8980SOL     OW38567   2.916   4.687  24.920
 8980SOL    HW138568   2.925   4.594  24.899
 8980SOL    HW238569   2.854   4.690  24.992
 8981SOL     OW38570   2.318   2.981   5.274
 8981SOL    HW138571   2.255   2.979   5.346
 8981SOL    HW238572   2.264   2.993   5.196
 8982SOL     OW38573   4.548   3.576  25.939
 8982SOL    HW138574   4.530   3.582  26.033
 8982SOL    HW238575   4.598   3.495  25.929
 8983SOL     OW38576   4.336   4.367  22.463
 8983SOL    HW138577   4.306   4.304  22.528
 8983SOL    HW238578   4.383   4.314  22.398
 8984SOL     OW38579   1.622   0.236   1.991
 8984SOL    HW138580   1.615   0.295   2.066
 8984SOL    HW238581   1.544   0.255   1.939
 8985SOL     OW38582   4.253   2.162  21.256
 8985SOL    HW138583   4.269   2.146  21.163
 8985SOL    HW238584   4.324   2.117  21.301
 8986SOL     OW38585   3.714   1.389   7.813
 8986SOL    HW138586   3.654   1.341   7.870
 8986SOL    HW238587   3.731   1.329   7.740
 8987SOL     OW38588   3.249   0.286   2.311
 8987SOL    HW138589   3.225   0.331   2.230
 8987SOL    HW238590   3.344   0.275   2.305
 8988SOL     OW38591   0.546   4.343  28.227
 8988SOL    HW138592   0.562   4.401  28.302
 8988SOL    HW238593   0.631   4.303  28.209
 8989SOL     OW38594   2.618   2.564  23.567
 8989SOL    HW138595   2.638   2.586  23.476
 8989SOL    HW238596   2.523   2.566  23.572
 8990SOL     OW38597   3.816   4.577   0.249
 8990SOL    HW138598   3.764   4.549   0.324
 8990SOL    HW238599   3.881   4.637   0.286
 8991SOL     OW38600   4.440   2.128   5.651
 8991SOL    HW138601   4.478   2.052   5.607
 8991SOL    HW238602   4.505   2.197   5.641
 8992SOL     OW38603   1.347   1.276  11.228
 8992SOL    HW138604   1.390   1.340  11.172
 8992SOL    HW238605   1.395   1.281  11.311
 8993SOL     OW38606   0.098   0.653   8.298
 8993SOL    HW138607   0.114   0.738   8.257
 8993SOL    HW238608   0.109   0.590   8.227
 8994SOL     OW38609   2.428   1.861  10.175
 8994SOL    HW138610   2.395   1.945  10.208
 8994SOL    HW238611   2.421   1.802  10.250
 8995SOL     OW38612   1.610   4.654  21.671
 8995SOL    HW138613   1.572   4.719  21.730
 8995SOL    HW238614   1.677   4.610  21.723
 8996SOL     OW38615   4.237   2.224  19.892
 8996SOL    HW138616   4.306   2.261  19.949
 8996SOL    HW238617   4.179   2.178  19.953
 8997SOL     OW38618   0.698   0.939  25.566
 8997SOL    HW138619   0.609   0.959  25.596
 8997SOL    HW238620   0.741   0.903  25.644
 8998SOL     OW38621   4.218   0.910  19.703
 8998SOL    HW138622   4.291   0.967  19.728
 8998SOL    HW238623   4.140   0.964  19.714
 8999SOL     OW38624   1.452   1.319   0.934
 8999SOL    HW138625   1.485   1.408   0.947
 8999SOL    HW238626   1.373   1.331   0.882
 9000SOL     OW38627   3.000   1.662   0.307
 9000SOL    HW138628   3.051   1.600   0.359
 9000SOL    HW238629   3.012   1.746   0.351
 9001SOL     OW38630   3.938   4.619   8.691
 9001SOL    HW138631   3.922   4.678   8.765
 9001SOL    HW238632   3.996   4.668   8.633
 9002SOL     OW38633   1.626   0.569  25.878
 9002SOL    HW138634   1.613   0.560  25.972
 9002SOL    HW238635   1.719   0.549  25.864
 9003SOL     OW38636   0.944   2.701  21.893
 9003SOL    HW138637   0.994   2.780  21.914
 9003SOL    HW238638   0.929   2.660  21.978
 9004SOL     OW38639   0.415   1.792  22.667
 9004SOL    HW138640   0.381   1.703  22.677
 9004SOL    HW238641   0.414   1.828  22.755
 9005SOL     OW38642   1.424   0.370  19.174
 9005SOL    HW138643   1.503   0.362  19.228
 9005SOL    HW238644   1.361   0.310  19.216
 9006SOL     OW38645   1.959   0.484  25.445
 9006SOL    HW138646   1.936   0.394  25.469
 9006SOL    HW238647   1.875   0.527  25.429
 9007SOL     OW38648   2.085   2.448   2.289
 9007SOL    HW138649   2.127   2.476   2.208
 9007SOL    HW238650   2.097   2.353   2.290
 9008SOL     OW38651   0.153   0.925  21.551
 9008SOL    HW138652   0.217   0.874  21.599
 9008SOL    HW238653   0.128   0.869  21.477
 9009SOL     OW38654   0.755   3.930   9.041
 9009SOL    HW138655   0.723   3.944   8.952
 9009SOL    HW238656   0.835   3.879   9.030
 9010SOL     OW38657   2.024   0.528  27.068
 9010SOL    HW138658   2.097   0.472  27.040
 9010SOL    HW238659   2.055   0.568  27.150
 9011SOL     OW38660   0.242   2.307  27.242
 9011SOL    HW138661   0.212   2.219  27.264
 9011SOL    HW238662   0.221   2.316  27.149
 9012SOL     OW38663   4.344   1.202  20.898
 9012SOL    HW138664   4.408   1.188  20.829
 9012SOL    HW238665   4.374   1.281  20.943
 9013SOL     OW38666   1.247   2.701   0.861
 9013SOL    HW138667   1.293   2.649   0.795
 9013SOL    HW238668   1.250   2.791   0.826
 9014SOL     OW38669   1.702   0.356  20.210
 9014SOL    HW138670   1.637   0.349  20.141
 9014SOL    HW238671   1.770   0.294  20.185
 9015SOL     OW38672   4.119   2.887   6.078
 9015SOL    HW138673   4.057   2.824   6.115
 9015SOL    HW238674   4.064   2.956   6.042
 9016SOL     OW38675   4.148   4.616  22.768
 9016SOL    HW138676   4.219   4.672  22.799
 9016SOL    HW238677   4.081   4.678  22.738
 9017SOL     OW38678   4.444   1.094  17.037
 9017SOL    HW138679   4.410   1.051  16.958
 9017SOL    HW238680   4.539   1.093  17.025
 9018SOL     OW38681   4.463   2.613  24.320
 9018SOL    HW138682   4.490   2.559  24.245
 9018SOL    HW238683   4.529   2.595  24.387
 9019SOL     OW38684   0.046   4.072   9.107
 9019SOL    HW138685   0.007   4.071   9.019
 9019SOL    HW238686   0.137   4.098   9.093
 9020SOL     OW38687   0.181   2.240  19.437
 9020SOL    HW138688   0.225   2.265  19.356
 9020SOL    HW238689   0.132   2.161  19.415
 9021SOL     OW38690   4.646   2.894  24.218
 9021SOL    HW138691   4.696   2.881  24.137
 9021SOL    HW238692   4.593   2.815  24.227
 9022SOL     OW38693   3.114   0.703  20.535
 9022SOL    HW138694   3.132   0.747  20.451
 9022SOL    HW238695   3.054   0.632  20.512
 9023SOL     OW38696   1.934   3.851   9.990
 9023SOL    HW138697   1.973   3.912   9.928
 9023SOL    HW238698   1.899   3.780   9.935
 9024SOL     OW38699   1.916   3.664  28.218
 9024SOL    HW138700   1.891   3.601  28.150
 9024SOL    HW238701   1.867   3.743  28.197
 9025SOL     OW38702   0.643   0.571  20.793
 9025SOL    HW138703   0.644   0.506  20.864
 9025SOL    HW238704   0.568   0.627  20.813
 9026SOL     OW38705   4.436   0.815  11.402
 9026SOL    HW138706   4.427   0.786  11.311
 9026SOL    HW238707   4.519   0.775  11.431
 9027SOL     OW38708   3.369   1.813  21.697
 9027SOL    HW138709   3.373   1.727  21.739
 9027SOL    HW238710   3.461   1.838  21.686
 9028SOL     OW38711   4.091   0.710   0.091
 9028SOL    HW138712   4.034   0.752   0.155
 9028SOL    HW238713   4.052   0.731   0.006
 9029SOL     OW38714   4.277   0.910  21.390
 9029SOL    HW138715   4.317   0.986  21.433
 9029SOL    HW238716   4.283   0.930  21.296
 9030SOL     OW38717   1.914   1.981   7.718
 9030SOL    HW138718   1.987   1.920   7.701
 9030SOL    HW238719   1.842   1.925   7.746
 9031SOL     OW38720   4.718   2.976   4.785
 9031SOL    HW138721   4.772   2.916   4.837
 9031SOL    HW238722   4.692   2.925   4.708
 9032SOL     OW38723   4.240   0.021  18.949
 9032SOL    HW138724   4.248   4.740  19.022
 9032SOL    HW238725   4.288   0.099  18.979
 9033SOL     OW38726   2.561   2.647   8.589
 9033SOL    HW138727   2.505   2.678   8.518
 9033SOL    HW238728   2.578   2.555   8.569
 9034SOL     OW38729   1.058   4.081   4.528
 9034SOL    HW138730   1.050   4.168   4.566
 9034SOL    HW238731   0.968   4.059   4.501
 9035SOL     OW38732   4.203   2.125  20.775
 9035SOL    HW138733   4.263   2.102  20.704
 9035SOL    HW238734   4.128   2.167  20.731
 9036SOL     OW38735   4.721   0.695   3.595
 9036SOL    HW138736   4.757   0.716   3.682
 9036SOL    HW238737   4.763   0.758   3.536
 9037SOL     OW38738   3.914   2.110   1.034
 9037SOL    HW138739   3.886   2.081   0.947
 9037SOL    HW238740   3.978   2.045   1.062
 9038SOL     OW38741   1.313   2.575   0.597
 9038SOL    HW138742   1.280   2.615   0.516
 9038SOL    HW238743   1.402   2.610   0.606
 9039SOL     OW38744   1.242   0.431  24.022
 9039SOL    HW138745   1.220   0.500  24.084
 9039SOL    HW238746   1.212   0.465  23.937
 9040SOL     OW38747   1.865   1.296  20.476
 9040SOL    HW138748   1.921   1.271  20.402
 9040SOL    HW238749   1.837   1.212  20.514
 9041SOL     OW38750   1.508   4.533  19.274
 9041SOL    HW138751   1.550   4.618  19.290
 9041SOL    HW238752   1.416   4.547  19.295
 9042SOL     OW38753   4.562   3.090  16.165
 9042SOL    HW138754   4.598   3.159  16.110
 9042SOL    HW238755   4.546   3.017  16.105
 9043SOL     OW38756   3.466   1.916  16.700
 9043SOL    HW138757   3.415   1.882  16.627
 9043SOL    HW238758   3.537   1.965  16.658
 9044SOL     OW38759   4.244   0.902   5.180
 9044SOL    HW138760   4.205   0.849   5.110
 9044SOL    HW238761   4.286   0.975   5.133
 9045SOL     OW38762   0.011   2.984   7.241
 9045SOL    HW138763   0.012   3.049   7.171
 9045SOL    HW238764   0.031   3.034   7.320
 9046SOL     OW38765   0.873   2.681   2.047
 9046SOL    HW138766   0.880   2.699   2.141
 9046SOL    HW238767   0.893   2.588   2.039
 9047SOL     OW38768   2.042   2.919   8.424
 9047SOL    HW138769   2.022   3.013   8.419
 9047SOL    HW238770   2.004   2.883   8.344
 9048SOL     OW38771   3.950   3.863  23.279
 9048SOL    HW138772   3.972   3.956  23.288
 9048SOL    HW238773   3.885   3.847  23.348
 9049SOL     OW38774   2.360   3.471   9.578
 9049SOL    HW138775   2.443   3.463   9.624
 9049SOL    HW238776   2.373   3.544   9.517
 9050SOL     OW38777   2.376   2.799  27.086
 9050SOL    HW138778   2.374   2.805  26.991
 9050SOL    HW238779   2.462   2.760  27.106
 9051SOL     OW38780   3.779   0.539   0.841
 9051SOL    HW138781   3.838   0.582   0.781
 9051SOL    HW238782   3.693   0.579   0.824
 9052SOL     OW38783   1.470   1.281   5.966
 9052SOL    HW138784   1.431   1.283   6.053
 9052SOL    HW238785   1.395   1.286   5.906
 9053SOL     OW38786   4.332   3.737  21.019
 9053SOL    HW138787   4.406   3.789  21.052
 9053SOL    HW238788   4.369   3.686  20.947
 9054SOL     OW38789   4.061   2.176  25.217
 9054SOL    HW138790   4.016   2.229  25.283
 9054SOL    HW238791   4.149   2.215  25.212
 9055SOL     OW38792   4.140   1.637  28.328
 9055SOL    HW138793   4.172   1.604  28.412
 9055SOL    HW238794   4.219   1.645  28.274
 9056SOL     OW38795   0.533   3.113   7.108
 9056SOL    HW138796   0.516   3.066   7.027
 9056SOL    HW238797   0.584   3.190   7.081
 9057SOL     OW38798   1.222   0.993  22.679
 9057SOL    HW138799   1.248   0.978  22.588
 9057SOL    HW238800   1.197   0.906  22.711
 9058SOL     OW38801   4.762   1.360  18.084
 9058SOL    HW138802   0.031   1.384  18.161
 9058SOL    HW238803   0.038   1.300  18.035
 9059SOL     OW38804   1.511   1.732  23.034
 9059SOL    HW138805   1.484   1.808  23.086
 9059SOL    HW238806   1.456   1.661  23.065
 9060SOL     OW38807   3.617   4.247  25.271
 9060SOL    HW138808   3.686   4.221  25.209
 9060SOL    HW238809   3.598   4.167  25.319
 9061SOL     OW38810   2.222   4.650  17.000
 9061SOL    HW138811   2.152   4.672  16.939
 9061SOL    HW238812   2.185   4.668  17.087
 9062SOL     OW38813   0.835   3.226   2.866
 9062SOL    HW138814   0.838   3.217   2.962
 9062SOL    HW238815   0.868   3.315   2.850
 9063SOL     OW38816   3.974   4.325   4.536
 9063SOL    HW138817   3.917   4.385   4.487
 9063SOL    HW238818   4.035   4.383   4.582
 9064SOL     OW38819   0.745   3.292  26.962
 9064SOL    HW138820   0.820   3.238  26.935
 9064SOL    HW238821   0.746   3.366  26.901
 9065SOL     OW38822   2.140   2.208   6.247
 9065SOL    HW138823   2.101   2.266   6.182
 9065SOL    HW238824   2.153   2.125   6.200
 9066SOL     OW38825   3.183   3.134  23.740
 9066SOL    HW138826   3.170   3.079  23.663
 9066SOL    HW238827   3.260   3.097  23.783
 9067SOL     OW38828   1.932   2.741  24.769
 9067SOL    HW138829   1.952   2.695  24.850
 9067SOL    HW238830   1.844   2.710  24.745
 9068SOL     OW38831   2.476   1.102  26.715
 9068SOL    HW138832   2.500   1.060  26.632
 9068SOL    HW238833   2.440   1.187  26.689
 9069SOL     OW38834   4.219   4.082  21.347
 9069SOL    HW138835   4.210   4.012  21.282
 9069SOL    HW238836   4.179   4.047  21.427
 9070SOL     OW38837   4.752   0.711  21.434
 9070SOL    HW138838   4.740   0.688  21.342
 9070SOL    HW238839   4.663   0.718  21.468
 9071SOL     OW38840   4.291   1.160  19.774
 9071SOL    HW138841   4.212   1.214  19.781
 9071SOL    HW238842   4.353   1.213  19.724
 9072SOL     OW38843   3.734   0.484   1.115
 9072SOL    HW138844   3.758   0.512   1.027
 9072SOL    HW238845   3.663   0.421   1.102
 9073SOL     OW38846   2.853   0.822   8.649
 9073SOL    HW138847   2.868   0.860   8.562
 9073SOL    HW238848   2.868   0.895   8.709
 9074SOL     OW38849   0.563   0.711  22.253
 9074SOL    HW138850   0.485   0.664  22.284
 9074SOL    HW238851   0.551   0.717  22.159
 9075SOL     OW38852   3.609   2.968   2.734
 9075SOL    HW138853   3.551   2.938   2.803
 9075SOL    HW238854   3.686   2.911   2.739
 9076SOL     OW38855   3.037   2.917  27.147
 9076SOL    HW138856   3.063   2.846  27.090
 9076SOL    HW238857   3.021   2.875  27.232
 9077SOL     OW38858   2.502   3.379   2.117
 9077SOL    HW138859   2.546   3.428   2.048
 9077SOL    HW238860   2.553   3.299   2.127
 9078SOL     OW38861   3.808   2.123  25.128
 9078SOL    HW138862   3.755   2.108  25.206
 9078SOL    HW238863   3.898   2.128  25.161
 9079SOL     OW38864   4.214   3.971   0.673
 9079SOL    HW138865   4.162   3.977   0.753
 9079SOL    HW238866   4.155   3.933   0.608
 9080SOL     OW38867   2.233   1.541   2.478
 9080SOL    HW138868   2.281   1.539   2.396
 9080SOL    HW238869   2.143   1.516   2.455
 9081SOL     OW38870   0.416   0.027  27.081
 9081SOL    HW138871   0.361   0.062  27.011
 9081SOL    HW238872   0.503   0.017  27.041
 9082SOL     OW38873   4.145   2.671   4.613
 9082SOL    HW138874   4.155   2.610   4.686
 9082SOL    HW238875   4.054   2.701   4.619
 9083SOL     OW38876   0.942   2.471   8.768
 9083SOL    HW138877   0.887   2.550   8.772
 9083SOL    HW238878   0.885   2.401   8.800
 9084SOL     OW38879   2.552   3.944   5.949
 9084SOL    HW138880   2.569   4.028   5.992
 9084SOL    HW238881   2.623   3.936   5.885
 9085SOL     OW38882   4.582   1.586  25.116
 9085SOL    HW138883   4.594   1.549  25.028
 9085SOL    HW238884   4.493   1.562  25.140
 9086SOL     OW38885   3.995   4.323   6.878
 9086SOL    HW138886   4.045   4.265   6.936
 9086SOL    HW238887   4.026   4.303   6.790
 9087SOL     OW38888   0.086   2.120  25.118
 9087SOL    HW138889   0.021   2.050  25.126
 9087SOL    HW238890   0.065   2.162  25.034
 9088SOL     OW38891   3.327   0.110   8.618
 9088SOL    HW138892   3.290   0.029   8.583
 9088SOL    HW238893   3.418   0.088   8.638
 9089SOL     OW38894   3.266   2.689  25.330
 9089SOL    HW138895   3.334   2.674  25.264
 9089SOL    HW238896   3.309   2.669  25.413
 9090SOL     OW38897   4.032   2.026   7.245
 9090SOL    HW138898   4.089   2.068   7.309
 9090SOL    HW238899   3.985   1.958   7.294
 9091SOL     OW38900   0.581   3.692   1.621
 9091SOL    HW138901   0.610   3.777   1.589
 9091SOL    HW238902   0.662   3.646   1.644
 9092SOL     OW38903   3.062   4.650  20.063
 9092SOL    HW138904   3.025   4.680  20.146
 9092SOL    HW238905   3.106   4.727  20.027
 9093SOL     OW38906   1.953   0.262  24.056
 9093SOL    HW138907   1.898   0.295  24.127
 9093SOL    HW238908   1.891   0.239  23.987
 9094SOL     OW38909   0.995   2.304   1.414
 9094SOL    HW138910   0.980   2.255   1.333
 9094SOL    HW238911   1.064   2.256   1.459
 9095SOL     OW38912   1.038   0.371   4.072
 9095SOL    HW138913   1.107   0.321   4.028
 9095SOL    HW238914   1.024   0.324   4.155
 9096SOL     OW38915   4.146   4.125   7.397
 9096SOL    HW138916   4.223   4.123   7.453
 9096SOL    HW238917   4.142   4.037   7.360
 9097SOL     OW38918   0.951   0.840  28.221
 9097SOL    HW138919   0.925   0.758  28.262
 9097SOL    HW238920   0.920   0.908  28.281
 9098SOL     OW38921   2.003   0.849  23.333
 9098SOL    HW138922   2.074   0.863  23.395
 9098SOL    HW238923   1.924   0.881  23.378
 9099SOL     OW38924   0.823   0.966  23.006
 9099SOL    HW138925   0.743   1.017  23.021
 9099SOL    HW238926   0.893   1.032  23.003
 9100SOL     OW38927   3.613   0.297   6.268
 9100SOL    HW138928   3.589   0.250   6.188
 9100SOL    HW238929   3.529   0.326   6.304
 9101SOL     OW38930   3.751   2.351  22.298
 9101SOL    HW138931   3.728   2.367  22.206
 9101SOL    HW238932   3.726   2.260  22.313
 9102SOL     OW38933   3.694   0.500  20.973
 9102SOL    HW138934   3.749   0.481  20.897
 9102SOL    HW238935   3.604   0.495  20.940
 9103SOL     OW38936   2.718   2.547  25.275
 9103SOL    HW138937   2.698   2.474  25.334
 9103SOL    HW238938   2.761   2.612  25.331
 9104SOL     OW38939   3.619   0.616   2.137
 9104SOL    HW138940   3.594   0.618   2.044
 9104SOL    HW238941   3.684   0.546   2.143
 9105SOL     OW38942   3.092   2.551  23.359
 9105SOL    HW138943   3.036   2.557  23.437
 9105SOL    HW238944   3.051   2.484  23.306
 9106SOL     OW38945   1.382   3.713   6.627
 9106SOL    HW138946   1.346   3.689   6.713
 9106SOL    HW238947   1.387   3.808   6.630
 9107SOL     OW38948   2.363   2.802  25.426
 9107SOL    HW138949   2.410   2.786  25.344
 9107SOL    HW238950   2.271   2.807  25.401
 9108SOL     OW38951   2.552   4.045  24.101
 9108SOL    HW138952   2.628   3.993  24.074
 9108SOL    HW238953   2.589   4.125  24.138
 9109SOL     OW38954   4.045   4.454  24.936
 9109SOL    HW138955   4.087   4.516  24.997
 9109SOL    HW238956   4.022   4.508  24.860
 9110SOL     OW38957   2.047   0.890   2.281
 9110SOL    HW138958   2.005   0.827   2.222
 9110SOL    HW238959   2.073   0.838   2.357
 9111SOL     OW38960   3.037   2.803  23.258
 9111SOL    HW138961   3.053   2.857  23.335
 9111SOL    HW238962   3.075   2.718  23.280
 9112SOL     OW38963   3.580   2.981   7.531
 9112SOL    HW138964   3.666   3.015   7.506
 9112SOL    HW238965   3.524   3.058   7.536
 9113SOL     OW38966   0.418   0.955  18.573
 9113SOL    HW138967   0.489   0.957  18.637
 9113SOL    HW238968   0.432   0.875  18.523
 9114SOL     OW38969   0.895   4.425  18.870
 9114SOL    HW138970   0.828   4.482  18.832
 9114SOL    HW238971   0.959   4.413  18.799
 9115SOL     OW38972   4.123   2.459   8.841
 9115SOL    HW138973   4.189   2.394   8.868
 9115SOL    HW238974   4.044   2.433   8.888
 9116SOL     OW38975   2.007   2.403  24.031
 9116SOL    HW138976   2.026   2.486  23.988
 9116SOL    HW238977   2.082   2.347  24.011
 9117SOL     OW38978   0.259   1.458  19.633
 9117SOL    HW138979   0.172   1.489  19.658
 9117SOL    HW238980   0.241   1.383  19.576
 9118SOL     OW38981   3.227   4.416  20.041
 9118SOL    HW138982   3.269   4.331  20.057
 9118SOL    HW238983   3.294   4.481  20.064
 9119SOL     OW38984   4.456   1.010   8.121
 9119SOL    HW138985   4.521   1.058   8.172
 9119SOL    HW238986   4.419   1.075   8.061
 9120SOL     OW38987   3.590   1.136  20.822
 9120SOL    HW138988   3.606   1.189  20.900
 9120SOL    HW238989   3.535   1.064  20.853
 9121SOL     OW38990   4.744   0.203   6.474
 9121SOL    HW138991   0.050   0.167   6.457
 9121SOL    HW238992   4.688   0.126   6.488
 9122SOL     OW38993   1.236   2.000  21.662
 9122SOL    HW138994   1.262   2.088  21.689
 9122SOL    HW238995   1.183   1.968  21.735
 9123SOL     OW38996   2.637   2.200  10.801
 9123SOL    HW138997   2.558   2.182  10.853
 9123SOL    HW238998   2.615   2.168  10.713
 9124SOL     OW38999   4.527   1.805  27.867
 9124SOL    HW139000   4.528   1.721  27.913
 9124SOL    HW239001   4.444   1.845  27.893
 9125SOL     OW39002   2.995   0.904   6.197
 9125SOL    HW139003   2.980   0.844   6.124
 9125SOL    HW239004   2.923   0.887   6.257
 9126SOL     OW39005   0.290   0.922   8.966
 9126SOL    HW139006   0.265   0.884   9.051
 9126SOL    HW239007   0.357   0.863   8.933
 9127SOL     OW39008   4.735   1.061  27.790
 9127SOL    HW139009   4.750   1.152  27.814
 9127SOL    HW239010   0.033   1.035  27.743
 9128SOL     OW39011   0.326   1.759   7.493
 9128SOL    HW139012   0.328   1.852   7.517
 9128SOL    HW239013   0.390   1.752   7.422
 9129SOL     OW39014   1.789   3.503   4.263
 9129SOL    HW139015   1.753   3.526   4.349
 9129SOL    HW239016   1.731   3.545   4.200
 9130SOL     OW39017   2.340   4.562  21.522
 9130SOL    HW139018   2.263   4.619  21.517
 9130SOL    HW239019   2.334   4.507  21.444
 9131SOL     OW39020   4.408   3.385  27.768
 9131SOL    HW139021   4.463   3.384  27.690
 9131SOL    HW239022   4.327   3.343  27.741
 9132SOL     OW39023   3.349   1.626   1.713
 9132SOL    HW139024   3.259   1.628   1.744
 9132SOL    HW239025   3.356   1.545   1.662
 9133SOL     OW39026   3.119   1.960  24.002
 9133SOL    HW139027   3.117   2.019  24.078
 9133SOL    HW239028   3.026   1.942  23.984
 9134SOL     OW39029   1.159   1.943   7.455
 9134SOL    HW139030   1.230   1.967   7.395
 9134SOL    HW239031   1.079   1.957   7.404
 9135SOL     OW39032   3.918   3.868   4.081
 9135SOL    HW139033   4.001   3.862   4.128
 9135SOL    HW239034   3.858   3.814   4.132
 9136SOL     OW39035   3.512   0.400  24.546
 9136SOL    HW139036   3.607   0.386  24.539
 9136SOL    HW239037   3.486   0.351  24.623
 9137SOL     OW39038   3.543   0.931   3.165
 9137SOL    HW139039   3.619   0.909   3.219
 9137SOL    HW239040   3.470   0.888   3.209
 9138SOL     OW39041   2.526   0.025   5.305
 9138SOL    HW139042   2.481   0.110   5.306
 9138SOL    HW239043   2.486   4.758   5.377
 9139SOL     OW39044   2.778   3.185  21.444
 9139SOL    HW139045   2.766   3.170  21.538
 9139SOL    HW239046   2.831   3.265  21.440
 9140SOL     OW39047   3.646   3.851  21.119
 9140SOL    HW139048   3.639   3.946  21.109
 9140SOL    HW239049   3.738   3.836  21.139
 9141SOL     OW39050   3.720   0.857   5.568
 9141SOL    HW139051   3.725   0.761   5.576
 9141SOL    HW239052   3.735   0.874   5.476
 9142SOL     OW39053   2.955   0.785   6.896
 9142SOL    HW139054   2.952   0.866   6.946
 9142SOL    HW239055   2.944   0.813   6.805
 9143SOL     OW39056   4.624   3.936   9.748
 9143SOL    HW139057   4.632   3.841   9.735
 9143SOL    HW239058   4.589   3.945   9.837
 9144SOL     OW39059   1.451   0.255  10.124
 9144SOL    HW139060   1.465   0.234  10.217
 9144SOL    HW239061   1.426   0.348  10.124
 9145SOL     OW39062   2.484   1.884   7.351
 9145SOL    HW139063   2.536   1.944   7.405
 9145SOL    HW239064   2.513   1.797   7.379
 9146SOL     OW39065   2.462   3.257  26.774
 9146SOL    HW139066   2.473   3.250  26.679
 9146SOL    HW239067   2.550   3.274  26.807
 9147SOL     OW39068   3.155   4.062  22.955
 9147SOL    HW139069   3.138   3.973  22.983
 9147SOL    HW239070   3.154   4.059  22.860
 9148SOL     OW39071   1.392   3.094   9.006
 9148SOL    HW139072   1.410   3.010   9.049
 9148SOL    HW239073   1.315   3.128   9.051
 9149SOL     OW39074   3.269   4.276   2.117
 9149SOL    HW139075   3.191   4.331   2.115
 9149SOL    HW239076   3.332   4.321   2.061
 9150SOL     OW39077   3.781   0.832   7.188
 9150SOL    HW139078   3.856   0.774   7.174
 9150SOL    HW239079   3.780   0.887   7.109
 9151SOL     OW39080   0.901   4.481   9.016
 9151SOL    HW139081   0.948   4.434   8.947
 9151SOL    HW239082   0.959   4.477   9.092
 9152SOL     OW39083   2.837   4.519  19.966
 9152SOL    HW139084   2.796   4.605  19.978
 9152SOL    HW239085   2.765   4.463  19.936
 9153SOL     OW39086   2.221   4.578  25.983
 9153SOL    HW139087   2.275   4.578  25.904
 9153SOL    HW239088   2.131   4.590  25.951
 9154SOL     OW39089   2.196   0.608   2.842
 9154SOL    HW139090   2.171   0.589   2.752
 9154SOL    HW239091   2.244   0.530   2.871
 9155SOL     OW39092   1.458   2.568   3.519
 9155SOL    HW139093   1.463   2.473   3.524
 9155SOL    HW239094   1.515   2.591   3.445
 9156SOL     OW39095   3.263   1.566  20.159
 9156SOL    HW139096   3.298   1.602  20.241
 9156SOL    HW239097   3.296   1.625  20.091
 9157SOL     OW39098   3.152   2.374   6.008
 9157SOL    HW139099   3.233   2.406   6.048
 9157SOL    HW239100   3.173   2.369   5.914
 9158SOL     OW39101   1.502   4.018  27.058
 9158SOL    HW139102   1.425   4.039  27.006
 9158SOL    HW239103   1.574   4.017  26.996
 9159SOL     OW39104   0.528   3.266   0.727
 9159SOL    HW139105   0.490   3.290   0.811
 9159SOL    HW239106   0.617   3.237   0.748
 9160SOL     OW39107   3.509   4.646   8.956
 9160SOL    HW139108   3.490   4.736   8.928
 9160SOL    HW239109   3.434   4.622   9.011
 9161SOL     OW39110   3.588   1.195  21.900
 9161SOL    HW139111   3.649   1.142  21.848
 9161SOL    HW239112   3.569   1.271  21.845
 9162SOL     OW39113   1.315   1.721   8.861
 9162SOL    HW139114   1.363   1.801   8.837
 9162SOL    HW239115   1.363   1.686   8.936
 9163SOL     OW39116   3.446   2.865   2.167
 9163SOL    HW139117   3.526   2.912   2.143
 9163SOL    HW239118   3.469   2.819   2.247
 9164SOL     OW39119   0.736   4.076  22.171
 9164SOL    HW139120   0.699   4.040  22.090
 9164SOL    HW239121   0.830   4.075  22.156
 9165SOL     OW39122   2.914   3.107  18.348
 9165SOL    HW139123   2.978   3.116  18.418
 9165SOL    HW239124   2.891   3.198  18.325
 9166SOL     OW39125   3.842   3.779  18.508
 9166SOL    HW139126   3.802   3.801  18.424
 9166SOL    HW239127   3.815   3.850  18.566
 9167SOL     OW39128   4.243   2.828   7.038
 9167SOL    HW139129   4.239   2.810   7.132
 9167SOL    HW239130   4.333   2.858   7.024
 9168SOL     OW39131   0.590   1.230   1.647
 9168SOL    HW139132   0.534   1.308   1.654
 9168SOL    HW239133   0.532   1.161   1.615
 9169SOL     OW39134   0.964   0.328   8.360
 9169SOL    HW139135   0.937   0.312   8.269
 9169SOL    HW239136   1.040   0.386   8.353
 9170SOL     OW39137   0.301   4.373  22.061
 9170SOL    HW139138   0.353   4.451  22.043
 9170SOL    HW239139   0.236   4.402  22.125
 9171SOL     OW39140   1.498   2.082   6.619
 9171SOL    HW139141   1.423   2.070   6.561
 9171SOL    HW239142   1.491   2.172   6.650
 9172SOL     OW39143   2.575   3.487  24.969
 9172SOL    HW139144   2.516   3.559  24.949
 9172SOL    HW239145   2.615   3.464  24.885
 9173SOL     OW39146   2.526   1.762   4.580
 9173SOL    HW139147   2.446   1.776   4.630
 9173SOL    HW239148   2.534   1.841   4.526
 9174SOL     OW39149   3.100   4.455  19.787
 9174SOL    HW139150   3.087   4.390  19.718
 9174SOL    HW239151   3.152   4.524  19.746
 9175SOL     OW39152   4.227   2.557  22.157
 9175SOL    HW139153   4.179   2.636  22.131
 9175SOL    HW239154   4.166   2.510  22.214
 9176SOL     OW39155   3.212   2.392  18.512
 9176SOL    HW139156   3.238   2.481  18.536
 9176SOL    HW239157   3.282   2.336  18.547
 9177SOL     OW39158   4.209   0.147  24.598
 9177SOL    HW139159   4.292   0.178  24.636
 9177SOL    HW239160   4.145   0.163  24.667
 9178SOL     OW39161   2.642   1.159  23.182
 9178SOL    HW139162   2.582   1.192  23.116
 9178SOL    HW239163   2.641   1.064  23.172
 9179SOL     OW39164   4.529   2.044   9.305
 9179SOL    HW139165   4.468   1.989   9.256
 9179SOL    HW239166   4.504   2.134   9.282
 9180SOL     OW39167   2.529   2.552  21.430
 9180SOL    HW139168   2.551   2.543  21.523
 9180SOL    HW239169   2.608   2.586  21.390
 9181SOL     OW39170   3.846   0.584  23.244
 9181SOL    HW139171   3.863   0.587  23.338
 9181SOL    HW239172   3.772   0.525  23.234
 9182SOL     OW39173   1.850   2.110   3.844
 9182SOL    HW139174   1.881   2.199   3.862
 9182SOL    HW239175   1.893   2.056   3.911
 9183SOL     OW39176   3.955   1.778   2.830
 9183SOL    HW139177   3.952   1.689   2.797
 9183SOL    HW239178   3.922   1.772   2.919
 9184SOL     OW39179   4.402   3.967   7.184
 9184SOL    HW139180   4.397   3.939   7.092
 9184SOL    HW239181   4.312   3.969   7.213
 9185SOL     OW39182   2.983   0.027   1.001
 9185SOL    HW139183   3.067   0.015   0.956
 9185SOL    HW239184   2.930   4.734   0.973
 9186SOL     OW39185   0.857   1.779  24.091
 9186SOL    HW139186   0.795   1.841  24.053
 9186SOL    HW239187   0.906   1.830  24.156
 9187SOL     OW39188   1.429   0.636   0.874
 9187SOL    HW139189   1.369   0.678   0.812
 9187SOL    HW239190   1.514   0.639   0.830
 9188SOL     OW39191   1.980   4.499   5.911
 9188SOL    HW139192   1.999   4.474   5.821
 9188SOL    HW239193   2.033   4.578   5.926
 9189SOL     OW39194   0.496   3.895   7.697
 9189SOL    HW139195   0.416   3.944   7.683
 9189SOL    HW239196   0.506   3.890   7.792
 9190SOL     OW39197   2.005   3.181  27.176
 9190SOL    HW139198   1.979   3.159  27.086
 9190SOL    HW239199   1.936   3.238  27.208
 9191SOL     OW39200   4.485   1.088  24.340
 9191SOL    HW139201   4.521   1.132  24.264
 9191SOL    HW239202   4.390   1.088  24.325
 9192SOL     OW39203   1.427   0.227  18.921
 9192SOL    HW139204   1.500   0.172  18.950
 9192SOL    HW239205   1.405   0.280  18.997
 9193SOL     OW39206   2.153   0.519  23.600
 9193SOL    HW139207   2.108   0.599  23.627
 9193SOL    HW239208   2.149   0.519  23.505
 9194SOL     OW39209   2.601   0.720   2.966
 9194SOL    HW139210   2.652   0.672   2.901
 9194SOL    HW239211   2.644   0.701   3.049
 9195SOL     OW39212   4.154   4.625  25.852
 9195SOL    HW139213   4.121   4.639  25.763
 9195SOL    HW239214   4.102   4.552  25.885
 9196SOL     OW39215   3.527   2.051  27.478
 9196SOL    HW139216   3.606   2.009  27.512
 9196SOL    HW239217   3.551   2.082  27.391
 9197SOL     OW39218   2.490   4.122  23.163
 9197SOL    HW139219   2.433   4.181  23.113
 9197SOL    HW239220   2.438   4.043  23.174
 9198SOL     OW39221   1.660   0.980   8.803
 9198SOL    HW139222   1.709   0.900   8.787
 9198SOL    HW239223   1.727   1.046   8.825
 9199SOL     OW39224   4.087   2.007   6.701
 9199SOL    HW139225   4.020   2.023   6.634
 9199SOL    HW239226   4.157   2.069   6.680
 9200SOL     OW39227   1.821   3.577   5.032
 9200SOL    HW139228   1.837   3.624   4.951
 9200SOL    HW239229   1.745   3.522   5.014
 9201SOL     OW39230   2.632   0.708   8.341
 9201SOL    HW139231   2.698   0.773   8.319
 9201SOL    HW239232   2.678   0.624   8.341
 9202SOL     OW39233   0.604   0.495   9.957
 9202SOL    HW139234   0.551   0.420   9.931
 9202SOL    HW239235   0.680   0.493   9.899
 9203SOL     OW39236   2.980   4.268  19.969
 9203SOL    HW139237   2.938   4.198  20.019
 9203SOL    HW239238   2.947   4.257  19.880
 9204SOL     OW39239   0.115   4.255   4.416
 9204SOL    HW139240   0.183   4.190   4.394
 9204SOL    HW239241   0.051   4.247   4.346
 9205SOL     OW39242   3.260   3.136  24.864
 9205SOL    HW139243   3.266   3.049  24.825
 9205SOL    HW239244   3.237   3.194  24.791
 9206SOL     OW39245   1.234   3.906   2.389
 9206SOL    HW139246   1.329   3.919   2.391
 9206SOL    HW239247   1.197   3.994   2.382
 9207SOL     OW39248   0.743   1.446  22.272
 9207SOL    HW139249   0.740   1.441  22.368
 9207SOL    HW239250   0.753   1.356  22.244
 9208SOL     OW39251   4.527   1.845  25.935
 9208SOL    HW139252   4.530   1.926  25.986
 9208SOL    HW239253   4.441   1.847  25.891
 9209SOL     OW39254   3.817   1.054  28.171
 9209SOL    HW139255   3.830   0.971  28.125
 9209SOL    HW239256   3.774   1.111  28.107
 9210SOL     OW39257   0.765   4.648   7.326
 9210SOL    HW139258   0.710   4.589   7.274
 9210SOL    HW239259   0.841   4.595   7.349
 9211SOL     OW39260   2.952   1.549  19.445
 9211SOL    HW139261   2.917   1.585  19.363
 9211SOL    HW239262   3.036   1.592  19.456
 9212SOL     OW39263   2.583   4.007   4.351
 9212SOL    HW139264   2.611   3.991   4.261
 9212SOL    HW239265   2.563   3.920   4.386
 9213SOL     OW39266   3.454   0.224  23.805
 9213SOL    HW139267   3.499   0.307  23.788
 9213SOL    HW239268   3.362   0.244  23.790
 9214SOL     OW39269   1.701   4.525  27.615
 9214SOL    HW139270   1.672   4.611  27.643
 9214SOL    HW239271   1.620   4.479  27.592
 9215SOL     OW39272   0.461   1.245  26.041
 9215SOL    HW139273   0.474   1.281  26.129
 9215SOL    HW239274   0.372   1.271  26.017
 9216SOL     OW39275   0.169   3.895  27.039
 9216SOL    HW139276   0.233   3.952  26.995
 9216SOL    HW239277   0.197   3.807  27.017
 9217SOL     OW39278   0.457   4.629  21.977
 9217SOL    HW139279   0.448   4.689  22.051
 9217SOL    HW239280   0.418   4.675  21.903
 9218SOL     OW39281   1.284   1.039  18.000
 9218SOL    HW139282   1.314   0.956  17.962
 9218SOL    HW239283   1.229   1.014  18.074
 9219SOL     OW39284   0.394   1.368  26.550
 9219SOL    HW139285   0.308   1.340  26.582
 9219SOL    HW239286   0.398   1.334  26.461
 9220SOL     OW39287   3.344   4.399   0.698
 9220SOL    HW139288   3.302   4.314   0.714
 9220SOL    HW239289   3.351   4.439   0.785
 9221SOL     OW39290   4.167   1.499   7.266
 9221SOL    HW139291   4.088   1.455   7.299
 9221SOL    HW239292   4.159   1.589   7.298
 9222SOL     OW39293   3.219   0.486  24.003
 9222SOL    HW139294   3.131   0.467  24.033
 9222SOL    HW239295   3.255   0.401  23.978
 9223SOL     OW39296   2.882   0.802   7.686
 9223SOL    HW139297   2.895   0.868   7.754
 9223SOL    HW239298   2.849   0.852   7.611
 9224SOL     OW39299   4.009   3.726   8.848
 9224SOL    HW139300   3.971   3.688   8.769
 9224SOL    HW239301   3.970   3.676   8.920
 9225SOL     OW39302   3.138   4.454  27.928
 9225SOL    HW139303   3.203   4.502  27.979
 9225SOL    HW239304   3.055   4.469  27.974
 9226SOL     OW39305   0.057   2.580  27.434
 9226SOL    HW139306   0.104   2.654  27.471
 9226SOL    HW239307   0.030   2.609  27.347
 9227SOL     OW39308   3.988   2.438  20.896
 9227SOL    HW139309   3.943   2.436  20.981
 9227SOL    HW239310   4.010   2.530  20.883
 9228SOL     OW39311   3.486   1.412  27.334
 9228SOL    HW139312   3.391   1.397  27.327
 9228SOL    HW239313   3.525   1.344  27.281
 9229SOL     OW39314   1.668   3.197   9.467
 9229SOL    HW139315   1.593   3.189   9.407
 9229SOL    HW239316   1.631   3.238   9.545
 9230SOL     OW39317   4.111   0.692  23.197
 9230SOL    HW139318   4.130   0.707  23.290
 9230SOL    HW239319   4.019   0.666  23.196
 9231SOL     OW39320   2.624   3.461   3.252
 9231SOL    HW139321   2.654   3.476   3.163
 9231SOL    HW239322   2.596   3.369   3.253
 9232SOL     OW39323   4.474   1.956  23.910
 9232SOL    HW139324   4.496   1.881  23.856
 9232SOL    HW239325   4.524   2.029  23.871
 9233SOL     OW39326   3.155   4.595   1.422
 9233SOL    HW139327   3.079   4.652   1.412
 9233SOL    HW239328   3.230   4.652   1.403
 9234SOL     OW39329   3.763   3.156  21.565
 9234SOL    HW139330   3.826   3.214  21.607
 9234SOL    HW239331   3.809   3.073  21.555
 9235SOL     OW39332   3.821   2.259  17.436
 9235SOL    HW139333   3.759   2.330  17.423
 9235SOL    HW239334   3.774   2.181  17.406
 9236SOL     OW39335   4.696   0.242  22.594
 9236SOL    HW139336   4.701   0.285  22.509
 9236SOL    HW239337   4.749   0.297  22.652
 9237SOL     OW39338   3.222   0.850  24.478
 9237SOL    HW139339   3.260   0.818  24.397
 9237SOL    HW239340   3.227   0.776  24.538
 9238SOL     OW39341   0.912   3.477   4.683
 9238SOL    HW139342   0.953   3.463   4.597
 9238SOL    HW239343   0.982   3.456   4.745
 9239SOL     OW39344   4.651   3.074  23.794
 9239SOL    HW139345   4.601   3.134  23.850
 9239SOL    HW239346   4.590   3.050  23.724
 9240SOL     OW39347   0.109   3.860   6.793
 9240SOL    HW139348   0.183   3.816   6.751
 9240SOL    HW239349   0.073   3.917   6.725
 9241SOL     OW39350   2.867   2.682  20.929
 9241SOL    HW139351   2.856   2.767  20.887
 9241SOL    HW239352   2.918   2.700  21.008
 9242SOL     OW39353   3.335   3.870   2.366
 9242SOL    HW139354   3.330   3.910   2.280
 9242SOL    HW239355   3.420   3.826   2.367
 9243SOL     OW39356   2.349   2.126   0.375
 9243SOL    HW139357   2.351   2.053   0.313
 9243SOL    HW239358   2.271   2.176   0.352
 9244SOL     OW39359   3.439   3.239  22.445
 9244SOL    HW139360   3.431   3.326  22.486
 9244SOL    HW239361   3.444   3.258  22.351
 9245SOL     OW39362   1.771   0.115   4.695
 9245SOL    HW139363   1.812   0.201   4.699
 9245SOL    HW239364   1.708   0.115   4.767
 9246SOL     OW39365   4.651   2.187  24.580
 9246SOL    HW139366   4.619   2.103  24.548
 9246SOL    HW239367   4.739   2.194  24.543
 9247SOL     OW39368   2.997   2.615  18.205
 9247SOL    HW139369   2.909   2.647  18.226
 9247SOL    HW239370   3.052   2.693  18.207
 9248SOL     OW39371   0.370   3.825  23.471
 9248SOL    HW139372   0.383   3.766  23.545
 9248SOL    HW239373   0.276   3.836  23.466
 9249SOL     OW39374   1.576   0.339  27.306
 9249SOL    HW139375   1.521   0.279  27.356
 9249SOL    HW239376   1.625   0.283  27.247
 9250SOL     OW39377   1.044   4.523  19.093
 9250SOL    HW139378   1.052   4.618  19.093
 9250SOL    HW239379   0.983   4.504  19.021
 9251SOL     OW39380   2.899   3.856  22.450
 9251SOL    HW139381   2.809   3.888  22.453
 9251SOL    HW239382   2.893   3.771  22.406
 9252SOL     OW39383   4.664   3.619  20.306
 9252SOL    HW139384   4.614   3.678  20.248
 9252SOL    HW239385   4.735   3.673  20.339
 9253SOL     OW39386   2.079   0.690   0.008
 9253SOL    HW139387   2.112   0.653   0.091
 9253SOL    HW239388   2.156   0.693  28.474
 9254SOL     OW39389   3.031   1.031  21.180
 9254SOL    HW139390   3.111   1.057  21.135
 9254SOL    HW239391   3.013   1.102  21.242
 9255SOL     OW39392   1.351   0.699   5.204
 9255SOL    HW139393   1.303   0.768   5.159
 9255SOL    HW239394   1.403   0.657   5.135
 9256SOL     OW39395   0.309   1.378  10.057
 9256SOL    HW139396   0.312   1.376   9.962
 9256SOL    HW239397   0.225   1.418  10.079
 9257SOL     OW39398   1.091   2.003   0.666
 9257SOL    HW139399   1.009   2.044   0.641
 9257SOL    HW239400   1.112   1.944   0.594
 9258SOL     OW39401   2.192   2.310  23.365
 9258SOL    HW139402   2.184   2.248  23.437
 9258SOL    HW239403   2.167   2.260  23.287
 9259SOL     OW39404   2.217   4.634  22.623
 9259SOL    HW139405   2.309   4.657  22.638
 9259SOL    HW239406   2.169   4.716  22.633
 9260SOL     OW39407   2.981   4.434  20.198
 9260SOL    HW139408   3.030   4.477  20.269
 9260SOL    HW239409   2.906   4.395  20.243
 9261SOL     OW39410   1.357   1.526  28.109
 9261SOL    HW139411   1.406   1.575  28.175
 9261SOL    HW239412   1.424   1.490  28.051
 9262SOL     OW39413   1.303   2.204  24.075
 9262SOL    HW139414   1.319   2.150  23.997
 9262SOL    HW239415   1.380   2.191  24.130
 9263SOL     OW39416   1.625   0.915   3.391
 9263SOL    HW139417   1.550   0.881   3.441
 9263SOL    HW239418   1.676   0.963   3.455
 9264SOL     OW39419   1.483   0.714   6.789
 9264SOL    HW139420   1.466   0.800   6.751
 9264SOL    HW239421   1.498   0.657   6.714
 9265SOL     OW39422   1.461   3.249  23.829
 9265SOL    HW139423   1.478   3.263  23.736
 9265SOL    HW239424   1.465   3.336  23.868
 9266SOL     OW39425   3.339   2.659  23.327
 9266SOL    HW139426   3.365   2.697  23.411
 9266SOL    HW239427   3.255   2.616  23.345
 9267SOL     OW39428   4.751   4.141   2.610
 9267SOL    HW139429   4.773   4.069   2.668
 9267SOL    HW239430   4.753   4.103   2.522
 9268SOL     OW39431   0.871   4.627  27.331
 9268SOL    HW139432   0.789   4.672  27.354
 9268SOL    HW239433   0.893   4.660  27.244
 9269SOL     OW39434   4.638   0.498   5.989
 9269SOL    HW139435   4.642   0.435   6.061
 9269SOL    HW239436   4.566   0.466   5.933
 9270SOL     OW39437   4.082   2.543  26.607
 9270SOL    HW139438   4.058   2.452  26.622
 9270SOL    HW239439   4.141   2.541  26.532
 9271SOL     OW39440   2.486   1.292   2.958
 9271SOL    HW139441   2.394   1.315   2.949
 9271SOL    HW239442   2.486   1.198   2.977
 9272SOL     OW39443   0.933   4.252  21.934
 9272SOL    HW139444   0.868   4.182  21.930
 9272SOL    HW239445   0.969   4.256  21.845
 9273SOL     OW39446   4.372   3.748  25.109
 9273SOL    HW139447   4.388   3.673  25.053
 9273SOL    HW239448   4.363   3.822  25.049
 9274SOL     OW39449   1.595   1.967  10.936
 9274SOL    HW139450   1.573   1.886  10.982
 9274SOL    HW239451   1.689   1.963  10.923
 9275SOL     OW39452   3.081   1.282   6.752
 9275SOL    HW139453   3.137   1.349   6.792
 9275SOL    HW239454   3.023   1.331   6.693
 9276SOL     OW39455   2.797   2.879   6.124
 9276SOL    HW139456   2.785   2.812   6.057
 9276SOL    HW239457   2.708   2.902   6.151
 9277SOL     OW39458   2.324   1.339  21.312
 9277SOL    HW139459   2.236   1.372  21.293
 9277SOL    HW239460   2.383   1.406  21.277
 9278SOL     OW39461   2.914   4.469  27.556
 9278SOL    HW139462   2.854   4.498  27.487
 9278SOL    HW239463   2.998   4.511  27.534
 9279SOL     OW39464   1.218   0.807  28.180
 9279SOL    HW139465   1.135   0.852  28.194
 9279SOL    HW239466   1.284   0.876  28.183
 9280SOL     OW39467   4.312   1.864   4.424
 9280SOL    HW139468   4.251   1.915   4.371
 9280SOL    HW239469   4.333   1.788   4.369
 9281SOL     OW39470   1.974   3.835  24.840
 9281SOL    HW139471   1.994   3.918  24.797
 9281SOL    HW239472   2.036   3.830  24.913
 9282SOL     OW39473   3.310   1.217   6.448
 9282SOL    HW139474   3.232   1.256   6.410
 9282SOL    HW239475   3.360   1.292   6.481
 9283SOL     OW39476   3.309   3.365  25.988
 9283SOL    HW139477   3.386   3.310  26.002
 9283SOL    HW239478   3.339   3.453  26.011
 9284SOL     OW39479   3.394   3.689  27.757
 9284SOL    HW139480   3.381   3.597  27.734
 9284SOL    HW239481   3.478   3.690  27.803
 9285SOL     OW39482   1.793   2.388   1.223
 9285SOL    HW139483   1.788   2.294   1.205
 9285SOL    HW239484   1.711   2.408   1.268
 9286SOL     OW39485   0.266   3.037  24.836
 9286SOL    HW139486   0.319   3.075  24.906
 9286SOL    HW239487   0.302   3.076  24.755
 9287SOL     OW39488   0.238   4.771  24.235
 9287SOL    HW139489   0.251   4.676  24.243
 9287SOL    HW239490   0.302   0.017  24.168
 9288SOL     OW39491   1.397   0.974   1.189
 9288SOL    HW139492   1.429   0.889   1.158
 9288SOL    HW239493   1.470   1.010   1.239
 9289SOL     OW39494   0.044   0.832  23.966
 9289SOL    HW139495   0.127   0.880  23.973
 9289SOL    HW239496   0.035   0.813  23.873
 9290SOL     OW39497   0.810   4.075  22.534
 9290SOL    HW139498   0.841   3.987  22.557
 9290SOL    HW239499   0.718   4.063  22.514
 9291SOL     OW39500   2.740   2.557  20.685
 9291SOL    HW139501   2.780   2.559  20.598
 9291SOL    HW239502   2.801   2.606  20.741
 9292SOL     OW39503   1.979   1.736  24.463
 9292SOL    HW139504   1.931   1.780  24.393
 9292SOL    HW239505   1.910   1.704  24.522
 9293SOL     OW39506   3.008   0.304  11.321
 9293SOL    HW139507   2.914   0.311  11.341
 9293SOL    HW239508   3.049   0.373  11.373
 9294SOL     OW39509   1.435   2.109   7.607
 9294SOL    HW139510   1.441   2.020   7.573
 9294SOL    HW239511   1.349   2.113   7.649
 9295SOL     OW39512   0.997   1.201  18.536
 9295SOL    HW139513   1.034   1.214  18.448
 9295SOL    HW239514   0.903   1.212  18.524
 9296SOL     OW39515   4.209   4.128   2.791
 9296SOL    HW139516   4.288   4.121   2.738
 9296SOL    HW239517   4.239   4.115   2.881
 9297SOL     OW39518   0.717   2.627  24.773
 9297SOL    HW139519   0.736   2.582  24.691
 9297SOL    HW239520   0.712   2.719  24.750
 9298SOL     OW39521   1.938   3.961  19.851
 9298SOL    HW139522   1.894   3.880  19.877
 9298SOL    HW239523   1.887   3.993  19.777
 9299SOL     OW39524   2.883   2.556   8.173
 9299SOL    HW139525   2.926   2.641   8.159
 9299SOL    HW239526   2.792   2.572   8.149
 9300SOL     OW39527   3.454   1.628  24.586
 9300SOL    HW139528   3.476   1.607  24.677
 9300SOL    HW239529   3.362   1.604  24.577
 9301SOL     OW39530   2.089   4.393  22.571
 9301SOL    HW139531   1.997   4.410  22.552
 9301SOL    HW239532   2.127   4.480  22.583
 9302SOL     OW39533   1.952   4.383   9.748
 9302SOL    HW139534   1.965   4.345   9.835
 9302SOL    HW239535   1.912   4.468   9.764
 9303SOL     OW39536   0.806   4.065  24.798
 9303SOL    HW139537   0.806   3.970  24.791
 9303SOL    HW239538   0.717   4.087  24.825
 9304SOL     OW39539   0.331   0.245   8.707
 9304SOL    HW139540   0.425   0.263   8.706
 9304SOL    HW239541   0.319   0.173   8.646
 9305SOL     OW39542   2.112   1.755   9.311
 9305SOL    HW139543   2.073   1.717   9.390
 9305SOL    HW239544   2.049   1.734   9.242
 9306SOL     OW39545   2.571   1.901  26.889
 9306SOL    HW139546   2.662   1.902  26.919
 9306SOL    HW239547   2.554   1.810  26.865
 9307SOL     OW39548   1.827   0.354   6.769
 9307SOL    HW139549   1.741   0.367   6.810
 9307SOL    HW239550   1.839   0.259   6.770
 9308SOL     OW39551   3.717   0.316  22.190
 9308SOL    HW139552   3.626   0.343  22.201
 9308SOL    HW239553   3.761   0.346  22.269
 9309SOL     OW39554   4.703   4.256   5.823
 9309SOL    HW139555   4.672   4.335   5.868
 9309SOL    HW239556   4.762   4.289   5.755
 9310SOL     OW39557   1.351   0.222   9.874
 9310SOL    HW139558   1.427   0.189   9.827
 9310SOL    HW239559   1.381   0.232   9.964
 9311SOL     OW39560   3.427   1.851  19.512
 9311SOL    HW139561   3.465   1.930  19.473
 9311SOL    HW239562   3.439   1.863  19.606
 9312SOL     OW39563   1.986   1.726  24.074
 9312SOL    HW139564   1.942   1.750  23.992
 9312SOL    HW239565   1.980   1.630  24.077
 9313SOL     OW39566   3.835   0.215  25.353
 9313SOL    HW139567   3.864   0.283  25.413
 9313SOL    HW239568   3.776   0.160  25.405
 9314SOL     OW39569   1.554   4.145  20.982
 9314SOL    HW139570   1.648   4.155  20.965
 9314SOL    HW239571   1.515   4.226  20.949
 9315SOL     OW39572   3.975   1.988  19.685
 9315SOL    HW139573   4.067   1.961  19.679
 9315SOL    HW239574   3.925   1.913  19.654
 9316SOL     OW39575   3.664   0.346   4.524
 9316SOL    HW139576   3.595   0.397   4.566
 9316SOL    HW239577   3.673   0.384   4.436
 9317SOL     OW39578   2.995   0.962   5.105
 9317SOL    HW139579   2.984   1.048   5.064
 9317SOL    HW239580   2.932   0.906   5.061
 9318SOL     OW39581   2.226   3.709   2.452
 9318SOL    HW139582   2.289   3.654   2.406
 9318SOL    HW239583   2.148   3.708   2.397
 9319SOL     OW39584   1.321   4.704   5.943
 9319SOL    HW139585   1.375   4.776   5.911
 9319SOL    HW239586   1.360   4.626   5.903
 9320SOL     OW39587   0.956   0.110  26.089
 9320SOL    HW139588   0.912   0.026  26.077
 9320SOL    HW239589   0.978   0.112  26.182
 9321SOL     OW39590   3.312   1.289   7.140
 9321SOL    HW139591   3.361   1.216   7.102
 9321SOL    HW239592   3.270   1.332   7.066
 9322SOL     OW39593   2.377   3.115   6.898
 9322SOL    HW139594   2.303   3.061   6.870
 9322SOL    HW239595   2.337   3.194   6.933
 9323SOL     OW39596   2.203   1.288  21.556
 9323SOL    HW139597   2.211   1.381  21.576
 9323SOL    HW239598   2.232   1.281  21.465
 9324SOL     OW39599   4.735   1.280   2.531
 9324SOL    HW139600   4.684   1.215   2.482
 9324SOL    HW239601   4.724   1.361   2.481
 9325SOL     OW39602   2.685   3.406  24.658
 9325SOL    HW139603   2.598   3.412  24.695
 9325SOL    HW239604   2.698   3.489  24.612
 9326SOL     OW39605   3.400   3.877   8.708
 9326SOL    HW139606   3.372   3.919   8.626
 9326SOL    HW239607   3.318   3.862   8.756
 9327SOL     OW39608   1.959   4.569  23.762
 9327SOL    HW139609   1.924   4.616  23.686
 9327SOL    HW239610   2.009   4.497  23.726
 9328SOL     OW39611   0.256   2.398  19.667
 9328SOL    HW139612   0.338   2.440  19.639
 9328SOL    HW239613   0.226   2.350  19.589
 9329SOL     OW39614   0.674   0.265  22.365
 9329SOL    HW139615   0.701   0.176  22.387
 9329SOL    HW239616   0.672   0.267  22.270
 9330SOL     OW39617   0.860   1.470   2.468
 9330SOL    HW139618   0.801   1.540   2.497
 9330SOL    HW239619   0.948   1.505   2.480
 9331SOL     OW39620   3.221   0.140   8.945
 9331SOL    HW139621   3.173   0.222   8.956
 9331SOL    HW239622   3.174   0.078   9.001
 9332SOL     OW39623   2.907   3.376  25.639
 9332SOL    HW139624   2.935   3.396  25.729
 9332SOL    HW239625   2.825   3.424  25.628
 9333SOL     OW39626   1.632   0.058   4.929
 9333SOL    HW139627   1.674   4.756   4.904
 9333SOL    HW239628   1.647   0.065   5.023
 9334SOL     OW39629   0.457   2.051   4.315
 9334SOL    HW139630   0.418   1.998   4.246
 9334SOL    HW239631   0.387   2.110   4.343
 9335SOL     OW39632   3.699   0.200   0.458
 9335SOL    HW139633   3.713   0.208   0.364
 9335SOL    HW239634   3.605   0.187   0.467
 9336SOL     OW39635   2.577   3.416   8.450
 9336SOL    HW139636   2.504   3.369   8.489
 9336SOL    HW239637   2.650   3.403   8.511
 9337SOL     OW39638   4.670   4.037  24.137
 9337SOL    HW139639   4.663   4.056  24.043
 9337SOL    HW239640   4.698   3.945  24.141
 9338SOL     OW39641   4.693   4.230   3.148
 9338SOL    HW139642   4.665   4.160   3.089
 9338SOL    HW239643   4.677   4.194   3.236
 9339SOL     OW39644   4.452   4.311   7.944
 9339SOL    HW139645   4.406   4.289   7.863
 9339SOL    HW239646   4.505   4.388   7.922
 9340SOL     OW39647   4.242   2.133   8.651
 9340SOL    HW139648   4.153   2.154   8.678
 9340SOL    HW239649   4.272   2.210   8.603
 9341SOL     OW39650   0.301   1.456   9.771
 9341SOL    HW139651   0.251   1.511   9.710
 9341SOL    HW239652   0.318   1.376   9.722
 9342SOL     OW39653   4.455   4.082  21.666
 9342SOL    HW139654   4.441   3.989  21.684
 9342SOL    HW239655   4.550   4.094  21.677
 9343SOL     OW39656   0.450   2.497  22.027
 9343SOL    HW139657   0.426   2.574  21.974
 9343SOL    HW239658   0.373   2.482  22.082
 9344SOL     OW39659   2.038   1.926  27.849
 9344SOL    HW139660   2.055   1.891  27.936
 9344SOL    HW239661   2.119   1.972  27.826
 9345SOL     OW39662   1.550   4.506  26.015
 9345SOL    HW139663   1.459   4.484  26.035
 9345SOL    HW239664   1.551   4.517  25.920
 9346SOL     OW39665   1.137   0.018   0.695
 9346SOL    HW139666   1.081   4.726   0.668
 9346SOL    HW239667   1.226   4.764   0.692
 9347SOL     OW39668   1.613   3.542  16.615
 9347SOL    HW139669   1.659   3.537  16.532
 9347SOL    HW239670   1.537   3.484  16.605
 9348SOL     OW39671   0.764   3.845  25.308
 9348SOL    HW139672   0.772   3.753  25.285
 9348SOL    HW239673   0.679   3.872  25.274
 9349SOL     OW39674   2.734   1.556  21.872
 9349SOL    HW139675   2.806   1.596  21.921
 9349SOL    HW239676   2.738   1.463  21.895
 9350SOL     OW39677   3.747   3.352  21.943
 9350SOL    HW139678   3.712   3.427  21.894
 9350SOL    HW239679   3.800   3.391  22.012
 9351SOL     OW39680   2.298   3.551  26.821
 9351SOL    HW139681   2.317   3.458  26.823
 9351SOL    HW239682   2.321   3.582  26.909
 9352SOL     OW39683   0.666   0.616  23.933
 9352SOL    HW139684   0.597   0.678  23.909
 9352SOL    HW239685   0.725   0.666  23.989
 9353SOL     OW39686   1.053   1.058   5.007
 9353SOL    HW139687   0.990   1.097   4.946
 9353SOL    HW239688   1.083   1.131   5.061
 9354SOL     OW39689   0.719   4.393   3.573
 9354SOL    HW139690   0.678   4.478   3.590
 9354SOL    HW239691   0.719   4.385   3.478
 9355SOL     OW39692   0.787   1.970   2.023
 9355SOL    HW139693   0.759   1.884   2.055
 9355SOL    HW239694   0.843   1.951   1.948
 9356SOL     OW39695   1.350   3.136  28.188
 9356SOL    HW139696   1.321   3.187  28.264
 9356SOL    HW239697   1.432   3.177  28.162
 9357SOL     OW39698   0.647   0.322  26.703
 9357SOL    HW139699   0.630   0.416  26.701
 9357SOL    HW239700   0.742   0.315  26.713
 9358SOL     OW39701   2.095   2.765  20.653
 9358SOL    HW139702   2.042   2.727  20.722
 9358SOL    HW239703   2.117   2.853  20.684
 9359SOL     OW39704   2.176   1.565   1.070
 9359SOL    HW139705   2.198   1.639   1.014
 9359SOL    HW239706   2.231   1.493   1.038
 9360SOL     OW39707   4.771   0.281  26.958
 9360SOL    HW139708   4.681   0.257  26.981
 9360SOL    HW239709   4.772   0.281  26.863
 9361SOL     OW39710   3.301   3.944   4.961
 9361SOL    HW139711   3.385   3.951   5.007
 9361SOL    HW239712   3.320   3.887   4.886
 9362SOL     OW39713   3.109   3.770  23.099
 9362SOL    HW139714   3.076   3.816  23.176
 9362SOL    HW239715   3.046   3.698  23.085
 9363SOL     OW39716   3.234   2.917  26.206
 9363SOL    HW139717   3.242   3.006  26.240
 9363SOL    HW239718   3.235   2.927  26.111
 9364SOL     OW39719   3.343   2.472   8.626
 9364SOL    HW139720   3.271   2.447   8.568
 9364SOL    HW239721   3.329   2.565   8.643
 9365SOL     OW39722   1.444   4.297   3.643
 9365SOL    HW139723   1.354   4.264   3.643
 9365SOL    HW239724   1.496   4.225   3.607
 9366SOL     OW39725   1.066   0.953   7.508
 9366SOL    HW139726   1.127   1.007   7.458
 9366SOL    HW239727   0.980   0.991   7.489
 9367SOL     OW39728   1.710   4.585  11.577
 9367SOL    HW139729   1.772   4.525  11.534
 9367SOL    HW239730   1.740   4.589  11.667
 9368SOL     OW39731   3.716   2.521  19.208
 9368SOL    HW139732   3.784   2.536  19.273
 9368SOL    HW239733   3.657   2.457  19.249
 9369SOL     OW39734   1.827   3.558   7.031
 9369SOL    HW139735   1.763   3.556   6.959
 9369SOL    HW239736   1.789   3.500   7.097
 9370SOL     OW39737   3.313   4.336   9.629
 9370SOL    HW139738   3.321   4.342   9.725
 9370SOL    HW239739   3.403   4.324   9.598
 9371SOL     OW39740   4.081   0.727  26.236
 9371SOL    HW139741   4.026   0.776  26.174
 9371SOL    HW239742   4.034   0.732  26.319
 9372SOL     OW39743   4.451   2.539  23.612
 9372SOL    HW139744   4.461   2.572  23.523
 9372SOL    HW239745   4.420   2.615  23.663
 9373SOL     OW39746   4.395   1.411   6.227
 9373SOL    HW139747   4.338   1.414   6.303
 9373SOL    HW239748   4.337   1.427   6.152
 9374SOL     OW39749   2.659   4.491  24.280
 9374SOL    HW139750   2.637   4.401  24.307
 9374SOL    HW239751   2.685   4.534  24.361
 9375SOL     OW39752   3.500   3.674   8.206
 9375SOL    HW139753   3.449   3.598   8.177
 9375SOL    HW239754   3.485   3.741   8.139
 9376SOL     OW39755   4.245   2.792  11.644
 9376SOL    HW139756   4.302   2.836  11.582
 9376SOL    HW239757   4.245   2.847  11.722
 9377SOL     OW39758   1.415   1.858   5.970
 9377SOL    HW139759   1.392   1.765   5.976
 9377SOL    HW239760   1.507   1.858   5.946
 9378SOL     OW39761   1.994   0.861  21.345
 9378SOL    HW139762   2.012   0.954  21.331
 9378SOL    HW239763   2.016   0.820  21.261
 9379SOL     OW39764   2.951   4.041  25.720
 9379SOL    HW139765   2.890   4.012  25.788
 9379SOL    HW239766   2.902   4.107  25.671
 9380SOL     OW39767   4.662   4.584   2.903
 9380SOL    HW139768   4.572   4.552   2.902
 9380SOL    HW239769   4.696   4.557   2.988
 9381SOL     OW39770   4.130   4.601   6.555
 9381SOL    HW139771   4.225   4.609   6.541
 9381SOL    HW239772   4.121   4.587   6.649
 9382SOL     OW39773   1.575   3.962  18.429
 9382SOL    HW139774   1.637   4.018  18.382
 9382SOL    HW239775   1.489   4.001  18.411
 9383SOL     OW39776   0.856   0.356   4.616
 9383SOL    HW139777   0.799   0.431   4.595
 9383SOL    HW239778   0.827   0.286   4.558
 9384SOL     OW39779   1.993   3.366  25.615
 9384SOL    HW139780   1.913   3.411  25.587
 9384SOL    HW239781   2.020   3.413  25.693
 9385SOL     OW39782   1.776   4.389   5.121
 9385SOL    HW139783   1.690   4.413   5.086
 9385SOL    HW239784   1.761   4.306   5.166
 9386SOL     OW39785   3.779   3.669   8.223
 9386SOL    HW139786   3.685   3.681   8.212
 9386SOL    HW239787   3.803   3.727   8.295
 9387SOL     OW39788   2.981   1.552  20.575
 9387SOL    HW139789   2.911   1.542  20.509
 9387SOL    HW239790   3.004   1.463  20.599
 9388SOL     OW39791   4.764   2.821  23.584
 9388SOL    HW139792   0.012   2.899  23.632
 9388SOL    HW239793   4.751   2.851  23.494
 9389SOL     OW39794   3.260   2.668  27.006
 9389SOL    HW139795   3.229   2.613  26.933
 9389SOL    HW239796   3.275   2.754  26.966
 9390SOL     OW39797   3.502   3.783  20.291
 9390SOL    HW139798   3.432   3.845  20.311
 9390SOL    HW239799   3.526   3.800  20.200
 9391SOL     OW39800   1.498   2.708   6.247
 9391SOL    HW139801   1.541   2.764   6.182
 9391SOL    HW239802   1.568   2.682   6.307
 9392SOL     OW39803   0.170   2.345  17.439
 9392SOL    HW139804   0.143   2.390  17.359
 9392SOL    HW239805   0.180   2.253  17.413
 9393SOL     OW39806   0.150   3.765  19.721
 9393SOL    HW139807   0.119   3.848  19.756
 9393SOL    HW239808   0.243   3.780  19.704
 9394SOL     OW39809   0.467   0.580  22.717
 9394SOL    HW139810   0.437   0.663  22.755
 9394SOL    HW239811   0.555   0.568  22.752
 9395SOL     OW39812   3.812   0.819  20.509
 9395SOL    HW139813   3.870   0.864  20.448
 9395SOL    HW239814   3.867   0.796  20.583
 9396SOL     OW39815   0.791   0.116  18.560
 9396SOL    HW139816   0.704   0.095  18.526
 9396SOL    HW239817   0.846   0.043  18.533
 9397SOL     OW39818   2.995   3.478   8.529
 9397SOL    HW139819   2.936   3.545   8.493
 9397SOL    HW239820   3.041   3.523   8.600
 9398SOL     OW39821   0.508   0.480  27.065
 9398SOL    HW139822   0.505   0.395  27.109
 9398SOL    HW239823   0.436   0.477  27.002
 9399SOL     OW39824   0.879   1.889   8.165
 9399SOL    HW139825   0.861   1.983   8.156
 9399SOL    HW239826   0.835   1.864   8.247
 9400SOL     OW39827   3.462   0.075  28.482
 9400SOL    HW139828   3.513   0.035   0.029
 9400SOL    HW239829   3.372   0.046  28.498
 9401SOL     OW39830   0.966   2.689   4.905
 9401SOL    HW139831   0.902   2.676   4.835
 9401SOL    HW239832   0.996   2.601   4.928
 9402SOL     OW39833   3.257   0.190   1.806
 9402SOL    HW139834   3.191   0.126   1.782
 9402SOL    HW239835   3.317   0.192   1.732
 9403SOL     OW39836   3.024   2.174  20.709
 9403SOL    HW139837   2.962   2.153  20.640
 9403SOL    HW239838   2.985   2.249  20.754
 9404SOL     OW39839   3.123   2.079  26.028
 9404SOL    HW139840   3.200   2.027  26.008
 9404SOL    HW239841   3.138   2.111  26.117
 9405SOL     OW39842   3.055   4.416   5.044
 9405SOL    HW139843   3.100   4.333   5.028
 9405SOL    HW239844   3.098   4.478   4.986
 9406SOL     OW39845   3.327   1.855  27.372
 9406SOL    HW139846   3.306   1.791  27.440
 9406SOL    HW239847   3.413   1.889  27.398
 9407SOL     OW39848   2.784   3.805  22.000
 9407SOL    HW139849   2.855   3.869  22.003
 9407SOL    HW239850   2.740   3.822  21.916
 9408SOL     OW39851   2.143   0.942  11.092
 9408SOL    HW139852   2.152   0.934  11.187
 9408SOL    HW239853   2.075   1.007  11.080
 9409SOL     OW39854   2.150   1.348  26.023
 9409SOL    HW139855   2.158   1.432  25.979
 9409SOL    HW239856   2.057   1.326  26.017
 9410SOL     OW39857   3.552   4.114  27.272
 9410SOL    HW139858   3.536   4.051  27.343
 9410SOL    HW239859   3.539   4.199  27.312
 9411SOL     OW39860   4.044   3.227  26.416
 9411SOL    HW139861   4.016   3.188  26.499
 9411SOL    HW239862   4.126   3.183  26.396
 9412SOL     OW39863   0.002   0.362   6.242
 9412SOL    HW139864   4.748   0.316   6.319
 9412SOL    HW239865   0.095   0.375   6.262
 9413SOL     OW39866   0.869   3.655   1.694
 9413SOL    HW139867   0.847   3.686   1.782
 9413SOL    HW239868   0.962   3.676   1.684
 9414SOL     OW39869   2.710   0.009  22.013
 9414SOL    HW139870   2.737   4.733  21.941
 9414SOL    HW239871   2.642   4.741  22.059
 9415SOL     OW39872   0.168   3.665  25.856
 9415SOL    HW139873   0.248   3.694  25.811
 9415SOL    HW239874   0.155   3.729  25.926
 9416SOL     OW39875   1.181   4.227   3.685
 9416SOL    HW139876   1.093   4.242   3.721
 9416SOL    HW239877   1.167   4.216   3.591
 9417SOL     OW39878   4.257   1.933   2.560
 9417SOL    HW139879   4.209   1.879   2.498
 9417SOL    HW239880   4.300   1.870   2.618
 9418SOL     OW39881   4.313   3.894  22.832
 9418SOL    HW139882   4.277   3.894  22.743
 9418SOL    HW239883   4.268   3.822  22.875
 9419SOL     OW39884   3.075   4.228   5.572
 9419SOL    HW139885   3.134   4.300   5.549
 9419SOL    HW239886   2.987   4.265   5.564
 9420SOL     OW39887   4.381   3.999   1.959
 9420SOL    HW139888   4.346   4.005   1.870
 9420SOL    HW239889   4.453   3.937   1.954
 9421SOL     OW39890   4.680   2.168  20.678
 9421SOL    HW139891   4.593   2.191  20.711
 9421SOL    HW239892   4.704   2.089  20.727
 9422SOL     OW39893   2.719   0.148   6.553
 9422SOL    HW139894   2.668   0.070   6.577
 9422SOL    HW239895   2.677   0.179   6.472
 9423SOL     OW39896   2.094   2.608   0.036
 9423SOL    HW139897   2.027   2.578   0.097
 9423SOL    HW239898   2.100   2.538  28.493
 9424SOL     OW39899   3.571   0.223  19.500
 9424SOL    HW139900   3.634   0.167  19.545
 9424SOL    HW239901   3.579   0.308  19.543
 9425SOL     OW39902   3.336   3.413  21.329
 9425SOL    HW139903   3.294   3.364  21.258
 9425SOL    HW239904   3.408   3.460  21.287
 9426SOL     OW39905   3.793   1.888  20.930
 9426SOL    HW139906   3.792   1.870  21.024
 9426SOL    HW239907   3.798   1.984  20.924
 9427SOL     OW39908   1.247   3.897  25.758
 9427SOL    HW139909   1.163   3.939  25.776
 9427SOL    HW239910   1.237   3.861  25.670
 9428SOL     OW39911   4.633   0.392   0.827
 9428SOL    HW139912   4.605   0.439   0.749
 9428SOL    HW239913   4.571   0.419   0.895
 9429SOL     OW39914   3.345   2.999   3.201
 9429SOL    HW139915   3.377   3.021   3.114
 9429SOL    HW239916   3.262   3.045   3.209
 9430SOL     OW39917   2.603   1.793   6.811
 9430SOL    HW139918   2.526   1.848   6.820
 9430SOL    HW239919   2.673   1.841   6.856
 9431SOL     OW39920   2.107   0.417  21.170
 9431SOL    HW139921   2.127   0.399  21.261
 9431SOL    HW239922   2.148   0.502  21.153
 9432SOL     OW39923   0.116   4.447  21.491
 9432SOL    HW139924   0.201   4.490  21.500
 9432SOL    HW239925   0.066   4.505  21.433
 9433SOL     OW39926   1.168   3.117  22.247
 9433SOL    HW139927   1.245   3.111  22.191
 9433SOL    HW239928   1.118   3.038  22.227
 9434SOL     OW39929   0.529   3.805   0.969
 9434SOL    HW139930   0.435   3.792   0.971
 9434SOL    HW239931   0.560   3.776   1.055
 9435SOL     OW39932   4.055   2.129   3.391
 9435SOL    HW139933   4.086   2.045   3.425
 9435SOL    HW239934   4.114   2.194   3.430
 9436SOL     OW39935   1.782   1.564   7.435
 9436SOL    HW139936   1.732   1.505   7.493
 9436SOL    HW239937   1.719   1.631   7.410
 9437SOL     OW39938   1.956   4.612   4.310
 9437SOL    HW139939   1.990   4.693   4.348
 9437SOL    HW239940   1.902   4.640   4.236
 9438SOL     OW39941   3.217   0.960   7.047
 9438SOL    HW139942   3.174   0.886   7.091
 9438SOL    HW239943   3.276   0.996   7.113
 9439SOL     OW39944   0.597   1.715  21.662
 9439SOL    HW139945   0.622   1.661  21.587
 9439SOL    HW239946   0.605   1.656  21.737
 9440SOL     OW39947   3.999   0.735  24.231
 9440SOL    HW139948   3.955   0.818  24.253
 9440SOL    HW239949   3.955   0.706  24.151
 9441SOL     OW39950   1.782   2.138   4.472
 9441SOL    HW139951   1.754   2.229   4.482
 9441SOL    HW239952   1.701   2.089   4.458
 9442SOL     OW39953   1.428   2.777  20.388
 9442SOL    HW139954   1.424   2.873  20.390
 9442SOL    HW239955   1.415   2.751  20.479
 9443SOL     OW39956   1.326   0.713   5.988
 9443SOL    HW139957   1.304   0.699   5.896
 9443SOL    HW239958   1.421   0.709   5.992
 9444SOL     OW39959   0.840   0.557   2.166
 9444SOL    HW139960   0.755   0.557   2.124
 9444SOL    HW239961   0.848   0.644   2.205
 9445SOL     OW39962   0.901   2.731  28.494
 9445SOL    HW139963   0.911   2.739  28.399
 9445SOL    HW239964   0.837   2.799  28.516
 9446SOL     OW39965   4.060   1.729   6.208
 9446SOL    HW139966   4.120   1.774   6.148
 9446SOL    HW239967   4.100   1.741   6.295
 9447SOL     OW39968   1.501   2.535   7.731
 9447SOL    HW139969   1.564   2.602   7.756
 9447SOL    HW239970   1.541   2.453   7.758
 9448SOL     OW39971   4.335   0.845   8.496
 9448SOL    HW139972   4.381   0.805   8.570
 9448SOL    HW239973   4.244   0.819   8.508
 9449SOL     OW39974   3.911   1.665  26.698
 9449SOL    HW139975   3.917   1.691  26.790
 9449SOL    HW239976   3.828   1.617  26.692
 9450SOL     OW39977   1.954   2.917  10.585
 9450SOL    HW139978   1.919   2.897  10.672
 9450SOL    HW239979   2.011   2.843  10.564
 9451SOL     OW39980   2.640   0.844  19.331
 9451SOL    HW139981   2.558   0.835  19.283
 9451SOL    HW239982   2.614   0.860  19.422
 9452SOL     OW39983   1.625   4.333  10.094
 9452SOL    HW139984   1.684   4.407  10.107
 9452SOL    HW239985   1.631   4.283  10.175
 9453SOL     OW39986   3.989   3.325   6.205
 9453SOL    HW139987   4.083   3.324   6.221
 9453SOL    HW239988   3.967   3.417   6.191
 9454SOL     OW39989   2.711   2.456  23.202
 9454SOL    HW139990   2.633   2.416  23.162
 9454SOL    HW239991   2.682   2.544  23.228
 9455SOL     OW39992   1.018   2.303  22.515
 9455SOL    HW139993   1.001   2.381  22.569
 9455SOL    HW239994   0.964   2.235  22.554
 9456SOL     OW39995   3.876   3.015   1.723
 9456SOL    HW139996   3.898   2.922   1.720
 9456SOL    HW239997   3.838   3.033   1.637
 9457SOL     OW39998   2.334   0.076  25.687
 9457SOL    HW139999   2.293   0.141  25.743
 9457SOL    HW240000   2.345   0.120  25.602
 9458SOL     OW40001   0.245   0.061   8.497
 9458SOL    HW140002   0.227   4.749   8.486
 9458SOL    HW240003   0.299   0.085   8.422
 9459SOL     OW40004   1.682   3.589  25.904
 9459SOL    HW140005   1.631   3.539  25.968
 9459SOL    HW240006   1.622   3.657  25.873
 9460SOL     OW40007   0.923   2.214  21.500
 9460SOL    HW140008   0.834   2.184  21.514
 9460SOL    HW240009   0.915   2.292  21.445
 9461SOL     OW40010   4.430   0.721  22.113
 9461SOL    HW140011   4.397   0.802  22.151
 9461SOL    HW240012   4.522   0.739  22.094
 9462SOL     OW40013   3.571   2.631   8.027
 9462SOL    HW140014   3.546   2.678   7.948
 9462SOL    HW240015   3.548   2.690   8.099
 9463SOL     OW40016   0.928   1.329  16.435
 9463SOL    HW140017   0.842   1.298  16.464
 9463SOL    HW240018   0.915   1.352  16.343
 9464SOL     OW40019   0.169   3.346  20.374
 9464SOL    HW140020   0.154   3.404  20.299
 9464SOL    HW240021   0.200   3.264  20.337
 9465SOL     OW40022   3.214   0.218   8.224
 9465SOL    HW140023   3.145   0.229   8.289
 9465SOL    HW240024   3.296   0.224   8.274
 9466SOL     OW40025   4.465   3.812   6.413
 9466SOL    HW140026   4.485   3.723   6.384
 9466SOL    HW240027   4.548   3.858   6.409
 9467SOL     OW40028   3.840   1.061  22.342
 9467SOL    HW140029   3.846   0.994  22.273
 9467SOL    HW240030   3.815   1.012  22.421
 9468SOL     OW40031   3.721   1.618   2.132
 9468SOL    HW140032   3.682   1.640   2.048
 9468SOL    HW240033   3.760   1.531   2.119
 9469SOL     OW40034   0.466   0.843   9.495
 9469SOL    HW140035   0.556   0.820   9.476
 9469SOL    HW240036   0.462   0.938   9.484
 9470SOL     OW40037   2.884   2.567  23.564
 9470SOL    HW140038   2.899   2.493  23.621
 9470SOL    HW240039   2.789   2.567  23.550
 9471SOL     OW40040   1.104   2.911   0.198
 9471SOL    HW140041   1.059   2.830   0.173
 9471SOL    HW240042   1.153   2.937   0.121
 9472SOL     OW40043   0.701   0.110   2.147
 9472SOL    HW140044   0.729   0.162   2.223
 9472SOL    HW240045   0.682   0.175   2.080
 9473SOL     OW40046   3.072   2.717  25.062
 9473SOL    HW140047   3.095   2.762  25.143
 9473SOL    HW240048   3.083   2.624  25.082
 9474SOL     OW40049   2.313   3.093  23.426
 9474SOL    HW140050   2.310   3.142  23.345
 9474SOL    HW240051   2.363   3.148  23.486
 9475SOL     OW40052   1.290   2.580  22.343
 9475SOL    HW140053   1.265   2.511  22.282
 9475SOL    HW240054   1.301   2.535  22.427
 9476SOL     OW40055   4.317   0.312   4.672
 9476SOL    HW140056   4.290   0.384   4.614
 9476SOL    HW240057   4.238   0.292   4.723
 9477SOL     OW40058   4.717   1.283  26.124
 9477SOL    HW140059   4.698   1.258  26.033
 9477SOL    HW240060   4.662   1.360  26.139
 9478SOL     OW40061   2.387   4.127   8.544
 9478SOL    HW140062   2.460   4.085   8.589
 9478SOL    HW240063   2.337   4.054   8.506
 9479SOL     OW40064   3.465   1.555  27.601
 9479SOL    HW140065   3.521   1.487  27.564
 9479SOL    HW240066   3.519   1.634  27.601
 9480SOL     OW40067   0.678   2.605   1.132
 9480SOL    HW140068   0.727   2.524   1.147
 9480SOL    HW240069   0.589   2.584   1.159
 9481SOL     OW40070   0.608   0.981   0.939
 9481SOL    HW140071   0.602   0.887   0.953
 9481SOL    HW240072   0.646   1.015   1.020
 9482SOL     OW40073   1.516   1.307  24.264
 9482SOL    HW140074   1.480   1.232  24.311
 9482SOL    HW240075   1.564   1.269  24.191
 9483SOL     OW40076   1.611   2.635  20.835
 9483SOL    HW140077   1.627   2.705  20.772
 9483SOL    HW240078   1.618   2.677  20.920
 9484SOL     OW40079   3.736   4.499  21.159
 9484SOL    HW140080   3.744   4.592  21.138
 9484SOL    HW240081   3.655   4.472  21.116
 9485SOL     OW40082   3.250   1.915  25.828
 9485SOL    HW140083   3.269   1.821  25.837
 9485SOL    HW240084   3.156   1.919  25.815
 9486SOL     OW40085   0.345   1.064   1.919
 9486SOL    HW140086   0.352   1.114   1.837
 9486SOL    HW240087   0.428   1.080   1.963
 9487SOL     OW40088   3.272   3.510   7.161
 9487SOL    HW140089   3.219   3.562   7.101
 9487SOL    HW240090   3.251   3.545   7.248
 9488SOL     OW40091   1.268   3.785   8.961
 9488SOL    HW140092   1.280   3.751   8.873
 9488SOL    HW240093   1.173   3.787   8.973
 9489SOL     OW40094   4.532   0.303  19.419
 9489SOL    HW140095   4.515   0.393  19.446
 9489SOL    HW240096   4.601   0.310  19.352
 9490SOL     OW40097   1.582   4.315  20.722
 9490SOL    HW140098   1.494   4.344  20.748
 9490SOL    HW240099   1.568   4.227  20.686
 9491SOL     OW40100   4.602   4.492   3.386
 9491SOL    HW140101   4.655   4.499   3.307
 9491SOL    HW240102   4.537   4.424   3.365
 9492SOL     OW40103   3.091   2.913  19.107
 9492SOL    HW140104   3.024   2.856  19.069
 9492SOL    HW240105   3.041   2.975  19.161
 9493SOL     OW40106   3.943   4.706   4.207
 9493SOL    HW140107   3.975   4.696   4.118
 9493SOL    HW240108   3.925   4.617   4.236
 9494SOL     OW40109   2.872   3.987   4.708
 9494SOL    HW140110   2.883   4.005   4.801
 9494SOL    HW240111   2.900   4.068   4.665
 9495SOL     OW40112   2.445   3.871   7.334
 9495SOL    HW140113   2.372   3.899   7.278
 9495SOL    HW240114   2.523   3.895   7.285
 9496SOL     OW40115   0.617   3.035   2.802
 9496SOL    HW140116   0.600   2.960   2.859
 9496SOL    HW240117   0.712   3.041   2.798
 9497SOL     OW40118   2.910   3.740  10.337
 9497SOL    HW140119   2.953   3.817  10.373
 9497SOL    HW240120   2.944   3.733  10.248
 9498SOL     OW40121   3.347   3.321  26.891
 9498SOL    HW140122   3.277   3.316  26.826
 9498SOL    HW240123   3.392   3.236  26.884
 9499SOL     OW40124   0.206   1.854   8.980
 9499SOL    HW140125   0.256   1.780   8.946
 9499SOL    HW240126   0.236   1.865   9.070
 9500SOL     OW40127   3.257   4.004  24.852
 9500SOL    HW140128   3.176   4.037  24.890
 9500SOL    HW240129   3.232   3.923  24.808
 9501SOL     OW40130   2.837   0.961  22.755
 9501SOL    HW140131   2.926   0.994  22.761
 9501SOL    HW240132   2.841   0.874  22.794
 9502SOL     OW40133   2.828   2.841   7.056
 9502SOL    HW140134   2.738   2.840   7.088
 9502SOL    HW240135   2.855   2.749   7.057
 9503SOL     OW40136   4.394   4.392   5.155
 9503SOL    HW140137   4.351   4.454   5.096
 9503SOL    HW240138   4.326   4.329   5.177
 9504SOL     OW40139   1.289   3.358  26.408
 9504SOL    HW140140   1.353   3.429  26.399
 9504SOL    HW240141   1.306   3.300  26.334
 9505SOL     OW40142   0.445   2.602  26.718
 9505SOL    HW140143   0.390   2.650  26.656
 9505SOL    HW240144   0.460   2.663  26.790
 9506SOL     OW40145   0.361   2.144  25.020
 9506SOL    HW140146   0.381   2.055  25.047
 9506SOL    HW240147   0.280   2.166  25.065
 9507SOL     OW40148   4.333   0.625  10.194
 9507SOL    HW140149   4.304   0.608  10.104
 9507SOL    HW240150   4.273   0.574  10.248
 9508SOL     OW40151   3.133   3.119  25.146
 9508SOL    HW140152   3.167   3.105  25.057
 9508SOL    HW240153   3.156   3.210  25.166
 9509SOL     OW40154   0.993   2.132   1.170
 9509SOL    HW140155   1.048   2.064   1.130
 9509SOL    HW240156   0.930   2.155   1.102
 9510SOL     OW40157   3.221   3.883  21.166
 9510SOL    HW140158   3.227   3.792  21.137
 9510SOL    HW240159   3.128   3.896  21.184
 9511SOL     OW40160   3.641   1.972   6.725
 9511SOL    HW140161   3.716   1.974   6.785
 9511SOL    HW240162   3.646   2.055   6.678
 9512SOL     OW40163   2.480   4.543   7.441
 9512SOL    HW140164   2.386   4.562   7.436
 9512SOL    HW240165   2.495   4.480   7.370
 9513SOL     OW40166   4.205   1.466   6.005
 9513SOL    HW140167   4.148   1.445   6.080
 9513SOL    HW240168   4.176   1.552   5.977
 9514SOL     OW40169   3.711   0.218   0.170
 9514SOL    HW140170   3.709   0.296   0.115
 9514SOL    HW240171   3.796   0.178   0.152
 9515SOL     OW40172   3.209   1.033  25.981
 9515SOL    HW140173   3.196   0.938  25.985
 9515SOL    HW240174   3.235   1.050  25.891
 9516SOL     OW40175   2.306   0.071   1.782
 9516SOL    HW140176   2.395   0.051   1.812
 9516SOL    HW240177   2.294   0.016   1.705
 9517SOL     OW40178   2.681   0.292  22.538
 9517SOL    HW140179   2.634   0.209  22.533
 9517SOL    HW240180   2.624   0.349  22.588
 9518SOL     OW40181   3.109   2.512   8.890
 9518SOL    HW140182   3.107   2.455   8.813
 9518SOL    HW240183   3.057   2.588   8.864
 9519SOL     OW40184   2.593   3.313  24.092
 9519SOL    HW140185   2.567   3.322  24.184
 9519SOL    HW240186   2.634   3.227  24.087
 9520SOL     OW40187   2.064   3.945  27.339
 9520SOL    HW140188   1.970   3.955  27.348
 9520SOL    HW240189   2.088   3.878  27.403
 9521SOL     OW40190   1.524   2.915   1.131
 9521SOL    HW140191   1.552   2.963   1.053
 9521SOL    HW240192   1.598   2.858   1.152
 9522SOL     OW40193   0.000   3.291   3.896
 9522SOL    HW140194   0.014   3.378   3.934
 9522SOL    HW240195   4.699   3.261   3.934
 9523SOL     OW40196   1.268   1.845  24.178
 9523SOL    HW140197   1.261   1.936  24.208
 9523SOL    HW240198   1.362   1.826  24.178
 9524SOL     OW40199   4.156   3.042  27.608
 9524SOL    HW140200   4.186   3.130  27.633
 9524SOL    HW240201   4.139   3.049  27.514
 9525SOL     OW40202   2.892   2.689   3.316
 9525SOL    HW140203   2.874   2.616   3.376
 9525SOL    HW240204   2.932   2.647   3.240
 9526SOL     OW40205   2.354   2.380  26.835
 9526SOL    HW140206   2.411   2.309  26.865
 9526SOL    HW240207   2.294   2.395  26.907
 9527SOL     OW40208   2.651   2.803  18.808
 9527SOL    HW140209   2.643   2.895  18.831
 9527SOL    HW240210   2.584   2.759  18.860
 9528SOL     OW40211   0.046   4.036   4.724
 9528SOL    HW140212   0.127   3.999   4.759
 9528SOL    HW240213   0.063   4.130   4.719
 9529SOL     OW40214   4.626   0.063   2.968
 9529SOL    HW140215   4.629   4.749   2.958
 9529SOL    HW240216   4.638   0.097   2.880
 9530SOL     OW40217   0.758   4.219  19.001
 9530SOL    HW140218   0.689   4.178  18.948
 9530SOL    HW240219   0.785   4.295  18.950
 9531SOL     OW40220   4.611   2.455  26.856
 9531SOL    HW140221   4.618   2.542  26.818
 9531SOL    HW240222   4.578   2.400  26.784
 9532SOL     OW40223   2.588   2.702   2.171
 9532SOL    HW140224   2.562   2.625   2.223
 9532SOL    HW240225   2.663   2.738   2.218
 9533SOL     OW40226   3.849   2.773  22.182
 9533SOL    HW140227   3.777   2.828  22.212
 9533SOL    HW240228   3.809   2.688  22.164
 9534SOL     OW40229   3.426   4.759   3.309
 9534SOL    HW140230   3.376   4.678   3.319
 9534SOL    HW240231   3.480   4.743   3.232
 9535SOL     OW40232   3.450   0.533  23.086
 9535SOL    HW140233   3.443   0.614  23.137
 9535SOL    HW240234   3.360   0.515  23.059
 9536SOL     OW40235   4.537   1.184   7.209
 9536SOL    HW140236   4.606   1.140   7.259
 9536SOL    HW240237   4.577   1.200   7.124
 9537SOL     OW40238   0.500   2.935  26.711
 9537SOL    HW140239   0.522   3.022  26.678
 9537SOL    HW240240   0.424   2.908  26.658
 9538SOL     OW40241   4.727   1.249  10.565
 9538SOL    HW140242   4.676   1.322  10.600
 9538SOL    HW240243   4.693   1.172  10.611
 9539SOL     OW40244   3.568   3.100  20.419
 9539SOL    HW140245   3.504   3.169  20.436
 9539SOL    HW240246   3.547   3.031  20.482
 9540SOL     OW40247   0.787   4.188   2.647
 9540SOL    HW140248   0.821   4.202   2.735
 9540SOL    HW240249   0.716   4.252   2.638
 9541SOL     OW40250   0.419   1.704  11.066
 9541SOL    HW140251   0.389   1.673  11.152
 9541SOL    HW240252   0.338   1.717  11.016
 9542SOL     OW40253   2.694   4.392  28.200
 9542SOL    HW140254   2.736   4.368  28.282
 9542SOL    HW240255   2.751   4.459  28.162
 9543SOL     OW40256   1.393   1.690  27.410
 9543SOL    HW140257   1.472   1.697  27.462
 9543SOL    HW240258   1.338   1.763  27.439
 9544SOL     OW40259   4.582   2.677  23.852
 9544SOL    HW140260   4.634   2.757  23.851
 9544SOL    HW240261   4.611   2.628  23.775
 9545SOL     OW40262   3.948   4.322  23.686
 9545SOL    HW140263   3.875   4.370  23.647
 9545SOL    HW240264   4.016   4.324  23.619
 9546SOL     OW40265   4.752   1.790   0.824
 9546SOL    HW140266   0.008   1.833   0.747
 9546SOL    HW240267   4.662   1.823   0.829
 9547SOL     OW40268   2.209   0.628   4.344
 9547SOL    HW140269   2.204   0.670   4.258
 9547SOL    HW240270   2.292   0.658   4.381
 9548SOL     OW40271   0.881   1.565   1.859
 9548SOL    HW140272   0.976   1.570   1.863
 9548SOL    HW240273   0.851   1.613   1.937
 9549SOL     OW40274   0.313   2.797  26.569
 9549SOL    HW140275   0.278   2.733  26.506
 9549SOL    HW240276   0.235   2.838  26.607
 9550SOL     OW40277   0.497   2.301   9.808
 9550SOL    HW140278   0.582   2.344   9.818
 9550SOL    HW240279   0.465   2.291   9.897
 9551SOL     OW40280   0.209   2.037   7.879
 9551SOL    HW140281   0.236   2.090   7.955
 9551SOL    HW240282   0.274   1.967   7.875
 9552SOL     OW40283   2.584   1.810  18.579
 9552SOL    HW140284   2.525   1.743  18.544
 9552SOL    HW240285   2.669   1.789  18.541
 9553SOL     OW40286   1.279   0.683   7.844
 9553SOL    HW140287   1.214   0.698   7.775
 9553SOL    HW240288   1.326   0.605   7.816
 9554SOL     OW40289   3.702   3.404  26.295
 9554SOL    HW140290   3.748   3.338  26.243
 9554SOL    HW240291   3.697   3.480  26.238
 9555SOL     OW40292   1.773   3.031  22.748
 9555SOL    HW140293   1.824   2.978  22.687
 9555SOL    HW240294   1.682   3.014  22.724
 9556SOL     OW40295   2.528   3.605   0.044
 9556SOL    HW140296   2.472   3.612   0.122
 9556SOL    HW240297   2.509   3.518   0.009
 9557SOL     OW40298   2.619   0.251   8.992
 9557SOL    HW140299   2.700   0.234   8.943
 9557SOL    HW240300   2.553   0.264   8.924
 9558SOL     OW40301   2.267   3.280  21.495
 9558SOL    HW140302   2.247   3.192  21.525
 9558SOL    HW240303   2.317   3.320  21.566
 9559SOL     OW40304   1.310   0.812   9.141
 9559SOL    HW140305   1.317   0.764   9.223
 9559SOL    HW240306   1.399   0.842   9.123
 9560SOL     OW40307   1.175   1.694   8.617
 9560SOL    HW140308   1.186   1.749   8.539
 9560SOL    HW240309   1.174   1.756   8.690
 9561SOL     OW40310   0.262   3.709  25.077
 9561SOL    HW140311   0.174   3.712  25.115
 9561SOL    HW240312   0.261   3.776  25.009
 9562SOL     OW40313   0.691   0.364  28.461
 9562SOL    HW140314   0.622   0.321  28.512
 9562SOL    HW240315   0.645   0.400  28.384
 9563SOL     OW40316   1.207   2.084   3.447
 9563SOL    HW140317   1.185   2.051   3.360
 9563SOL    HW240318   1.255   2.011   3.488
 9564SOL     OW40319   1.536   3.768   4.747
 9564SOL    HW140320   1.452   3.803   4.718
 9564SOL    HW240321   1.601   3.827   4.708
 9565SOL     OW40322   0.259   4.268   1.584
 9565SOL    HW140323   0.172   4.273   1.622
 9565SOL    HW240324   0.316   4.314   1.647
 9566SOL     OW40325   1.266   4.724  21.204
 9566SOL    HW140326   1.191   0.001  21.219
 9566SOL    HW240327   1.303   4.710  21.291
 9567SOL     OW40328   0.597   0.049   0.584
 9567SOL    HW140329   0.551   0.125   0.619
 9567SOL    HW240330   0.528   4.764   0.572
 9568SOL     OW40331   1.228   4.368  11.077
 9568SOL    HW140332   1.259   4.378  11.167
 9568SOL    HW240333   1.202   4.275  11.071
 9569SOL     OW40334   1.501   1.458   2.105
 9569SOL    HW140335   1.535   1.368   2.101
 9569SOL    HW240336   1.410   1.448   2.131
 9570SOL     OW40337   0.450   1.631   0.255
 9570SOL    HW140338   0.442   1.553   0.201
 9570SOL    HW240339   0.542   1.631   0.283
 9571SOL     OW40340   1.626   0.526  26.146
 9571SOL    HW140341   1.706   0.514  26.196
 9571SOL    HW240342   1.557   0.530  26.212
 9572SOL     OW40343   3.860   3.110  21.871
 9572SOL    HW140344   3.950   3.127  21.899
 9572SOL    HW240345   3.810   3.184  21.906
 9573SOL     OW40346   0.761   1.431  25.291
 9573SOL    HW140347   0.835   1.371  25.281
 9573SOL    HW240348   0.799   1.518  25.280
 9574SOL     OW40349   3.513   3.114  23.259
 9574SOL    HW140350   3.424   3.147  23.268
 9574SOL    HW240351   3.565   3.192  23.236
 9575SOL     OW40352   0.007   3.041  21.799
 9575SOL    HW140353   0.040   3.125  21.767
 9575SOL    HW240354   4.696   3.039  21.772
 9576SOL     OW40355   0.499   2.878  20.489
 9576SOL    HW140356   0.450   2.949  20.447
 9576SOL    HW240357   0.590   2.909  20.488
 9577SOL     OW40358   0.655   4.518   7.609
 9577SOL    HW140359   0.603   4.438   7.608
 9577SOL    HW240360   0.604   4.580   7.556
 9578SOL     OW40361   3.056   1.722  22.590
 9578SOL    HW140362   3.060   1.786  22.519
 9578SOL    HW240363   3.147   1.709  22.616
 9579SOL     OW40364   1.463   3.854  18.907
 9579SOL    HW140365   1.516   3.776  18.889
 9579SOL    HW240366   1.506   3.924  18.858
 9580SOL     OW40367   0.415   4.195  26.660
 9580SOL    HW140368   0.321   4.208  26.673
 9580SOL    HW240369   0.425   4.100  26.654
 9581SOL     OW40370   4.659   3.721  25.402
 9581SOL    HW140371   4.578   3.772  25.395
 9581SOL    HW240372   4.654   3.680  25.488
 9582SOL     OW40373   2.125   2.067   2.245
 9582SOL    HW140374   2.181   2.014   2.188
 9582SOL    HW240375   2.109   2.012   2.322
 9583SOL     OW40376   4.448   0.522   8.116
 9583SOL    HW140377   4.479   0.607   8.146
 9583SOL    HW240378   4.527   0.479   8.082
 9584SOL     OW40379   4.422   3.356  18.200
 9584SOL    HW140380   4.417   3.358  18.104
 9584SOL    HW240381   4.340   3.314  18.227
 9585SOL     OW40382   2.781   2.738   0.669
 9585SOL    HW140383   2.849   2.806   0.668
 9585SOL    HW240384   2.769   2.714   0.577
 9586SOL     OW40385   0.530   0.558   3.755
 9586SOL    HW140386   0.456   0.538   3.812
 9586SOL    HW240387   0.553   0.474   3.715
 9587SOL     OW40388   4.635   3.688  28.521
 9587SOL    HW140389   4.625   3.705   0.093
 9587SOL    HW240390   4.666   3.598  28.516
 9588SOL     OW40391   0.173   4.095   6.964
 9588SOL    HW140392   0.266   4.115   6.958
 9588SOL    HW240393   0.166   4.005   6.932
 9589SOL     OW40394   2.918   2.003  27.582
 9589SOL    HW140395   2.941   1.913  27.557
 9589SOL    HW240396   2.858   2.032  27.513
 9590SOL     OW40397   2.332   0.353  12.557
 9590SOL    HW140398   2.257   0.320  12.507
 9590SOL    HW240399   2.354   0.436  12.515
 9591SOL     OW40400   1.561   4.189  22.763
 9591SOL    HW140401   1.583   4.264  22.707
 9591SOL    HW240402   1.469   4.204  22.787
 9592SOL     OW40403   3.506   3.423   3.094
 9592SOL    HW140404   3.524   3.328   3.095
 9592SOL    HW240405   3.584   3.461   3.053
 9593SOL     OW40406   2.101   0.152   6.812
 9593SOL    HW140407   2.131   0.224   6.757
 9593SOL    HW240408   2.093   0.191   6.900
 9594SOL     OW40409   2.830   3.016  20.887
 9594SOL    HW140410   2.920   3.039  20.909
 9594SOL    HW240411   2.784   3.099  20.886
 9595SOL     OW40412   2.345   4.318   3.096
 9595SOL    HW140413   2.282   4.353   3.160
 9595SOL    HW240414   2.294   4.257   3.044
 9596SOL     OW40415   0.500   4.225   3.746
 9596SOL    HW140416   0.554   4.288   3.698
 9596SOL    HW240417   0.481   4.268   3.829
 9597SOL     OW40418   4.256   2.163  19.100
 9597SOL    HW140419   4.332   2.221  19.103
 9597SOL    HW240420   4.203   2.197  19.028
 9598SOL     OW40421   3.874   2.003   6.452
 9598SOL    HW140422   3.955   2.019   6.404
 9598SOL    HW240423   3.805   2.027   6.390
 9599SOL     OW40424   4.405   2.453  25.490
 9599SOL    HW140425   4.320   2.415  25.511
 9599SOL    HW240426   4.413   2.529  25.549
 9600SOL     OW40427   1.684   2.534   2.782
 9600SOL    HW140428   1.779   2.526   2.794
 9600SOL    HW240429   1.660   2.609   2.836
 9601SOL     OW40430   4.319   2.026  24.747
 9601SOL    HW140431   4.344   1.947  24.698
 9601SOL    HW240432   4.261   2.073  24.687
 9602SOL     OW40433   3.175   2.425  23.596
 9602SOL    HW140434   3.216   2.407  23.511
 9602SOL    HW240435   3.201   2.352  23.651
 9603SOL     OW40436   1.915   3.635  27.186
 9603SOL    HW140437   1.915   3.544  27.157
 9603SOL    HW240438   1.856   3.680  27.126
 9604SOL     OW40439   4.361   2.664  17.112
 9604SOL    HW140440   4.328   2.582  17.148
 9604SOL    HW240441   4.285   2.705  17.070
 9605SOL     OW40442   2.299   1.065  23.341
 9605SOL    HW140443   2.240   1.136  23.366
 9605SOL    HW240444   2.288   1.056  23.246
 9606SOL     OW40445   1.987   0.987   6.384
 9606SOL    HW140446   1.976   0.989   6.479
 9606SOL    HW240447   1.898   0.991   6.349
 9607SOL     OW40448   3.845   3.695  19.864
 9607SOL    HW140449   3.835   3.782  19.824
 9607SOL    HW240450   3.766   3.684  19.916
 9608SOL     OW40451   2.304   1.639  19.263
 9608SOL    HW140452   2.220   1.656  19.306
 9608SOL    HW240453   2.363   1.704  19.301
 9609SOL     OW40454   2.862   3.913   6.182
 9609SOL    HW140455   2.937   3.854   6.182
 9609SOL    HW240456   2.790   3.861   6.146
 9610SOL     OW40457   4.722   2.440  19.832
 9610SOL    HW140458   4.780   2.515  19.825
 9610SOL    HW240459   4.743   2.401  19.917
 9611SOL     OW40460   4.492   0.183  23.746
 9611SOL    HW140461   4.399   0.185  23.768
 9611SOL    HW240462   4.537   0.172  23.830
 9612SOL     OW40463   4.519   2.744  20.539
 9612SOL    HW140464   4.583   2.801  20.581
 9612SOL    HW240465   4.557   2.656  20.545
 9613SOL     OW40466   2.380   0.199   6.577
 9613SOL    HW140467   2.326   0.129   6.539
 9613SOL    HW240468   2.434   0.154   6.642
 9614SOL     OW40469   1.016   1.950  20.444
 9614SOL    HW140470   1.070   1.940  20.523
 9614SOL    HW240471   0.933   1.985  20.476
 9615SOL     OW40472   2.859   3.412   5.208
 9615SOL    HW140473   2.769   3.431   5.234
 9615SOL    HW240474   2.911   3.480   5.250
 9616SOL     OW40475   1.300   0.726  12.406
 9616SOL    HW140476   1.283   0.686  12.491
 9616SOL    HW240477   1.215   0.723  12.361
 9617SOL     OW40478   1.191   2.434  27.947
 9617SOL    HW140479   1.167   2.516  27.991
 9617SOL    HW240480   1.124   2.423  27.879
 9618SOL     OW40481   0.428   1.355  28.051
 9618SOL    HW140482   0.384   1.393  28.127
 9618SOL    HW240483   0.426   1.425  27.985
 9619SOL     OW40484   4.023   4.100  11.017
 9619SOL    HW140485   4.087   4.046  11.063
 9619SOL    HW240486   3.946   4.101  11.075
 9620SOL     OW40487   3.229   4.687   1.734
 9620SOL    HW140488   3.231   4.619   1.667
 9620SOL    HW240489   3.137   4.711   1.742
 9621SOL     OW40490   3.182   0.226  23.865
 9621SOL    HW140491   3.118   0.231  23.794
 9621SOL    HW240492   3.176   0.136  23.896
 9622SOL     OW40493   4.142   1.521  22.200
 9622SOL    HW140494   4.119   1.592  22.261
 9622SOL    HW240495   4.104   1.443  22.239
 9623SOL     OW40496   1.541   0.254  27.017
 9623SOL    HW140497   1.625   0.297  27.031
 9623SOL    HW240498   1.477   0.325  27.020
 9624SOL     OW40499   3.783   2.227  23.348
 9624SOL    HW140500   3.692   2.247  23.367
 9624SOL    HW240501   3.786   2.132  23.341
 9625SOL     OW40502   3.148   2.087   2.405
 9625SOL    HW140503   3.223   2.143   2.389
 9625SOL    HW240504   3.157   2.015   2.343
 9626SOL     OW40505   2.062   2.709  20.183
 9626SOL    HW140506   1.988   2.694  20.124
 9626SOL    HW240507   2.021   2.729  20.267
 9627SOL     OW40508   1.360   2.184  25.001
 9627SOL    HW140509   1.438   2.132  25.025
 9627SOL    HW240510   1.287   2.133  25.035
 9628SOL     OW40511   0.541   3.214  26.713
 9628SOL    HW140512   0.635   3.223  26.698
 9628SOL    HW240513   0.502   3.280  26.656
 9629SOL     OW40514   0.680   0.865   7.675
 9629SOL    HW140515   0.748   0.823   7.623
 9629SOL    HW240516   0.600   0.853   7.625
 9630SOL     OW40517   3.805   0.823   6.327
 9630SOL    HW140518   3.719   0.858   6.304
 9630SOL    HW240519   3.837   0.883   6.395
 9631SOL     OW40520   4.567   0.005   6.570
 9631SOL    HW140521   4.499   4.719   6.576
 9631SOL    HW240522   4.538   0.074   6.630
 9632SOL     OW40523   0.669   1.420  18.287
 9632SOL    HW140524   0.584   1.395  18.251
 9632SOL    HW240525   0.694   1.345  18.341
 9633SOL     OW40526   3.619   1.786  11.324
 9633SOL    HW140527   3.688   1.852  11.330
 9633SOL    HW240528   3.544   1.832  11.287
 9634SOL     OW40529   0.191   0.288   1.339
 9634SOL    HW140530   0.147   0.212   1.375
 9634SOL    HW240531   0.160   0.361   1.392
 9635SOL     OW40532   1.572   1.800   0.936
 9635SOL    HW140533   1.619   1.723   0.968
 9635SOL    HW240534   1.545   1.847   1.015
 9636SOL     OW40535   3.937   1.238  11.882
 9636SOL    HW140536   3.856   1.192  11.902
 9636SOL    HW240537   4.002   1.199  11.939
 9637SOL     OW40538   2.888   3.701  22.227
 9637SOL    HW140539   2.832   3.716  22.151
 9637SOL    HW240540   2.967   3.660  22.192
 9638SOL     OW40541   0.368   4.654   4.078
 9638SOL    HW140542   0.438   4.637   4.015
 9638SOL    HW240543   0.381   4.589   4.147
 9639SOL     OW40544   0.824   0.570  23.537
 9639SOL    HW140545   0.797   0.548  23.626
 9639SOL    HW240546   0.869   0.491  23.506
 9640SOL     OW40547   1.210   4.029  21.523
 9640SOL    HW140548   1.189   4.025  21.430
 9640SOL    HW240549   1.245   3.942  21.544
 9641SOL     OW40550   3.319   0.261  19.756
 9641SOL    HW140551   3.398   0.207  19.767
 9641SOL    HW240552   3.332   0.334  19.817
 9642SOL     OW40553   0.105   0.613  18.423
 9642SOL    HW140554   0.033   0.551  18.414
 9642SOL    HW240555   0.116   0.650  18.335
 9643SOL     OW40556   4.464   4.532  21.450
 9643SOL    HW140557   4.401   4.564  21.515
 9643SOL    HW240558   4.454   4.437  21.452
 9644SOL     OW40559   1.226   4.616  24.863
 9644SOL    HW140560   1.182   4.690  24.905
 9644SOL    HW240561   1.157   4.572  24.813
 9645SOL     OW40562   4.518   1.653   6.295
 9645SOL    HW140563   4.583   1.677   6.229
 9645SOL    HW240564   4.481   1.571   6.263
 9646SOL     OW40565   0.420   0.665  23.057
 9646SOL    HW140566   0.428   0.686  23.150
 9646SOL    HW240567   0.454   0.576  23.050
 9647SOL     OW40568   3.284   0.702   0.090
 9647SOL    HW140569   3.300   0.762   0.017
 9647SOL    HW240570   3.211   0.648   0.061
 9648SOL     OW40571   4.542   1.681  26.335
 9648SOL    HW140572   4.634   1.704  26.320
 9648SOL    HW240573   4.536   1.671  26.430
 9649SOL     OW40574   4.497   2.934  17.102
 9649SOL    HW140575   4.408   2.965  17.113
 9649SOL    HW240576   4.540   3.001  17.049
 9650SOL     OW40577   1.222   1.335   2.090
 9650SOL    HW140578   1.215   1.256   2.037
 9650SOL    HW240579   1.180   1.311   2.173
 9651SOL     OW40580   1.714   3.435   3.817
 9651SOL    HW140581   1.781   3.503   3.819
 9651SOL    HW240582   1.758   3.360   3.778
 9652SOL     OW40583   0.872   1.953   1.773
 9652SOL    HW140584   0.949   1.902   1.749
 9652SOL    HW240585   0.898   2.044   1.757
 9653SOL     OW40586   4.636   2.795   8.774
 9653SOL    HW140587   4.590   2.788   8.691
 9653SOL    HW240588   4.644   2.890   8.789
 9654SOL     OW40589   2.478   1.143  21.784
 9654SOL    HW140590   2.563   1.124  21.824
 9654SOL    HW240591   2.415   1.134  21.855
 9655SOL     OW40592   4.041   0.568   7.708
 9655SOL    HW140593   4.107   0.632   7.731
 9655SOL    HW240594   4.088   0.484   7.708
 9656SOL     OW40595   4.518   1.554  19.150
 9656SOL    HW140596   4.540   1.639  19.186
 9656SOL    HW240597   4.583   1.494  19.188
 9657SOL     OW40598   1.535   3.126  26.014
 9657SOL    HW140599   1.607   3.190  26.013
 9657SOL    HW240600   1.491   3.138  25.930
 9658SOL     OW40601   2.944   2.121   2.088
 9658SOL    HW140602   2.883   2.092   2.020
 9658SOL    HW240603   3.031   2.107   2.050
 9659SOL     OW40604   1.902   0.250  24.689
 9659SOL    HW140605   1.815   0.280  24.663
 9659SOL    HW240606   1.886   0.171  24.741
 9660SOL     OW40607   1.783   4.031  20.846
 9660SOL    HW140608   1.804   4.008  20.756
 9660SOL    HW240609   1.820   4.119  20.858
 9661SOL     OW40610   3.204   3.368   5.615
 9661SOL    HW140611   3.203   3.319   5.697
 9661SOL    HW240612   3.278   3.429   5.625
 9662SOL     OW40613   0.430   2.984   8.474
 9662SOL    HW140614   0.434   2.939   8.558
 9662SOL    HW240615   0.486   3.060   8.485
 9663SOL     OW40616   0.279   3.015   5.078
 9663SOL    HW140617   0.284   2.966   5.160
 9663SOL    HW240618   0.305   3.104   5.102
 9664SOL     OW40619   2.226   2.086  23.622
 9664SOL    HW140620   2.257   2.058  23.708
 9664SOL    HW240621   2.138   2.119  23.637
 9665SOL     OW40622   4.540   2.335   0.225
 9665SOL    HW140623   4.477   2.323   0.296
 9665SOL    HW240624   4.610   2.272   0.244
 9666SOL     OW40625   0.158   1.156   3.224
 9666SOL    HW140626   0.182   1.086   3.284
 9666SOL    HW240627   0.226   1.222   3.236
 9667SOL     OW40628   1.063   3.202  20.811
 9667SOL    HW140629   1.001   3.142  20.851
 9667SOL    HW240630   1.015   3.242  20.739
 9668SOL     OW40631   2.105   4.157  20.165
 9668SOL    HW140632   2.092   4.063  20.159
 9668SOL    HW240633   2.026   4.190  20.207
 9669SOL     OW40634   2.524   2.821   6.797
 9669SOL    HW140635   2.616   2.796   6.800
 9669SOL    HW240636   2.526   2.915   6.777
 9670SOL     OW40637   0.208   0.212   7.131
 9670SOL    HW140638   0.146   0.153   7.174
 9670SOL    HW240639   0.154   0.274   7.083
 9671SOL     OW40640   1.303   3.259  24.092
 9671SOL    HW140641   1.306   3.246  23.997
 9671SOL    HW240642   1.260   3.181  24.126
 9672SOL     OW40643   2.521   0.052   6.757
 9672SOL    HW140644   2.524   0.105   6.837
 9672SOL    HW240645   2.592   4.770   6.767
 9673SOL     OW40646   4.306   2.697   5.866
 9673SOL    HW140647   4.267   2.784   5.883
 9673SOL    HW240648   4.231   2.638   5.862
 9674SOL     OW40649   2.168   1.765   1.839
 9674SOL    HW140650   2.191   1.673   1.831
 9674SOL    HW240651   2.111   1.783   1.764
 9675SOL     OW40652   0.757   3.467  20.204
 9675SOL    HW140653   0.723   3.541  20.253
 9675SOL    HW240654   0.746   3.491  20.112
 9676SOL     OW40655   1.384   4.447   2.603
 9676SOL    HW140656   1.323   4.376   2.623
 9676SOL    HW240657   1.459   4.431   2.661
 9677SOL     OW40658   0.589   2.890  10.287
 9677SOL    HW140659   0.631   2.824  10.342
 9677SOL    HW240660   0.657   2.955  10.271
 9678SOL     OW40661   1.332   3.127   7.583
 9678SOL    HW140662   1.408   3.156   7.633
 9678SOL    HW240663   1.269   3.099   7.649
 9679SOL     OW40664   1.706   2.731   7.717
 9679SOL    HW140665   1.673   2.815   7.747
 9679SOL    HW240666   1.713   2.741   7.622
 9680SOL     OW40667   0.212   4.361  25.091
 9680SOL    HW140668   0.155   4.436  25.106
 9680SOL    HW240669   0.163   4.306  25.030
 9681SOL     OW40670   2.444   0.024   2.554
 9681SOL    HW140671   2.495   4.761   2.485
 9681SOL    HW240672   2.510   0.058   2.614
 9682SOL     OW40673   2.569   1.383  28.080
 9682SOL    HW140674   2.651   1.337  28.057
 9682SOL    HW240675   2.518   1.382  27.999
 9683SOL     OW40676   2.938   0.993   1.398
 9683SOL    HW140677   2.944   0.950   1.483
 9683SOL    HW240678   2.989   1.074   1.409
 9684SOL     OW40679   1.632   4.208   1.687
 9684SOL    HW140680   1.678   4.235   1.766
 9684SOL    HW240681   1.637   4.112   1.689
 9685SOL     OW40682   2.166   1.729  27.227
 9685SOL    HW140683   2.168   1.635  27.208
 9685SOL    HW240684   2.166   1.734  27.322
 9686SOL     OW40685   4.531   0.700   9.410
 9686SOL    HW140686   4.556   0.720   9.500
 9686SOL    HW240687   4.439   0.673   9.416
 9687SOL     OW40688   3.408   0.282   5.567
 9687SOL    HW140689   3.316   0.258   5.560
 9687SOL    HW240690   3.424   0.337   5.490
 9688SOL     OW40691   0.113   0.948   7.696
 9688SOL    HW140692   0.186   0.905   7.741
 9688SOL    HW240693   0.045   0.880   7.690
 9689SOL     OW40694   2.501   0.550  25.178
 9689SOL    HW140695   2.495   0.612  25.251
 9689SOL    HW240696   2.445   0.589  25.110
 9690SOL     OW40697   1.086   0.218   2.638
 9690SOL    HW140698   1.097   0.164   2.560
 9690SOL    HW240699   1.013   0.276   2.616
 9691SOL     OW40700   3.371   0.833  20.706
 9691SOL    HW140701   3.387   0.835  20.800
 9691SOL    HW240702   3.277   0.845  20.697
 9692SOL     OW40703   0.312   0.106  25.591
 9692SOL    HW140704   0.378   0.160  25.633
 9692SOL    HW240705   0.293   0.151  25.509
 9693SOL     OW40706   3.270   3.869  22.251
 9693SOL    HW140707   3.254   3.839  22.341
 9693SOL    HW240708   3.236   3.958  22.249
 9694SOL     OW40709   0.112   0.751  22.581
 9694SOL    HW140710   0.111   0.835  22.626
 9694SOL    HW240711   0.171   0.763  22.507
 9695SOL     OW40712   0.485   2.550  22.794
 9695SOL    HW140713   0.391   2.537  22.780
 9695SOL    HW240714   0.497   2.645  22.784
 9696SOL     OW40715   1.034   3.773   0.992
 9696SOL    HW140716   1.074   3.689   1.017
 9696SOL    HW240717   1.094   3.809   0.927
 9697SOL     OW40718   4.450   4.133   2.671
 9697SOL    HW140719   4.459   4.229   2.672
 9697SOL    HW240720   4.463   4.110   2.579
 9698SOL     OW40721   1.457   3.549  26.694
 9698SOL    HW140722   1.429   3.541  26.603
 9698SOL    HW240723   1.386   3.599  26.736
 9699SOL     OW40724   2.907   2.976   9.789
 9699SOL    HW140725   2.907   2.907   9.722
 9699SOL    HW240726   2.940   2.933   9.867
 9700SOL     OW40727   0.357   0.811  28.338
 9700SOL    HW140728   0.294   0.829  28.267
 9700SOL    HW240729   0.424   0.756  28.298
 9701SOL     OW40730   2.518   0.038   7.469
 9701SOL    HW140731   2.553   0.052   7.381
 9701SOL    HW240732   2.513   4.724   7.478
 9702SOL     OW40733   4.289   0.005   6.827
 9702SOL    HW140734   4.358   4.735   6.869
 9702SOL    HW240735   4.335   0.076   6.783
 9703SOL     OW40736   4.687   1.243  25.095
 9703SOL    HW140737   4.685   1.266  25.002
 9703SOL    HW240738   4.595   1.234  25.120
 9704SOL     OW40739   0.815   1.503  18.579
 9704SOL    HW140740   0.841   1.462  18.661
 9704SOL    HW240741   0.775   1.433  18.528
 9705SOL     OW40742   1.835   3.385  20.474
 9705SOL    HW140743   1.840   3.293  20.447
 9705SOL    HW240744   1.864   3.384  20.565
 9706SOL     OW40745   0.846   2.892  24.199
 9706SOL    HW140746   0.921   2.944  24.170
 9706SOL    HW240747   0.797   2.874  24.119
 9707SOL     OW40748   3.167   1.552  27.651
 9707SOL    HW140749   3.247   1.501  27.640
 9707SOL    HW240750   3.171   1.584  27.741
 9708SOL     OW40751   0.505   4.193  20.112
 9708SOL    HW140752   0.452   4.175  20.034
 9708SOL    HW240753   0.468   4.274  20.147
 9709SOL     OW40754   4.678   3.900   6.588
 9709SOL    HW140755   4.652   3.855   6.668
 9709SOL    HW240756   4.684   3.992   6.613
 9710SOL     OW40757   0.044   0.859  27.043
 9710SOL    HW140758   0.070   0.791  26.981
 9710SOL    HW240759   4.740   0.829  27.078
 9711SOL     OW40760   1.472   0.230  27.673
 9711SOL    HW140761   1.454   0.311  27.625
 9711SOL    HW240762   1.441   0.246  27.762
 9712SOL     OW40763   1.079   0.527   0.043
 9712SOL    HW140764   1.010   0.569   0.094
 9712SOL    HW240765   1.107   0.594  28.503
 9713SOL     OW40766   4.757   4.490   3.165
 9713SOL    HW140767   0.055   4.487   3.219
 9713SOL    HW240768   4.737   4.399   3.146
 9714SOL     OW40769   1.870   4.047   7.940
 9714SOL    HW140770   1.868   4.141   7.923
 9714SOL    HW240771   1.909   4.039   8.027
 9715SOL     OW40772   0.488   4.615  15.993
 9715SOL    HW140773   0.548   4.683  15.964
 9715SOL    HW240774   0.542   4.537  16.004
 9716SOL     OW40775   2.964   3.567  27.033
 9716SOL    HW140776   2.871   3.574  27.014
 9716SOL    HW240777   3.007   3.580  26.949
 9717SOL     OW40778   4.071   1.046   2.731
 9717SOL    HW140779   4.057   0.960   2.769
 9717SOL    HW240780   4.119   1.029   2.650
 9718SOL     OW40781   4.616   2.710   1.226
 9718SOL    HW140782   4.562   2.755   1.161
 9718SOL    HW240783   4.594   2.752   1.309
 9719SOL     OW40784   2.111   2.763  17.209
 9719SOL    HW140785   2.096   2.709  17.287
 9719SOL    HW240786   2.199   2.738  17.179
 9720SOL     OW40787   2.998   3.193  22.459
 9720SOL    HW140788   3.045   3.112  22.478
 9720SOL    HW240789   2.905   3.169  22.464
 9721SOL     OW40790   2.290   4.357   3.527
 9721SOL    HW140791   2.316   4.314   3.608
 9721SOL    HW240792   2.349   4.321   3.461
 9722SOL     OW40793   4.637   3.671  28.141
 9722SOL    HW140794   4.717   3.624  28.119
 9722SOL    HW240795   4.656   3.716  28.223
 9723SOL     OW40796   0.100   4.706   4.335
 9723SOL    HW140797   0.097   4.625   4.284
 9723SOL    HW240798   0.188   4.741   4.322
 9724SOL     OW40799   3.640   3.207   3.318
 9724SOL    HW140800   3.590   3.256   3.383
 9724SOL    HW240801   3.705   3.270   3.286
 9725SOL     OW40802   2.769   3.592  25.672
 9725SOL    HW140803   2.815   3.656  25.726
 9725SOL    HW240804   2.767   3.632  25.585
 9726SOL     OW40805   0.010   2.123  27.153
 9726SOL    HW140806   4.712   2.111  27.100
 9726SOL    HW240807   0.053   2.199  27.114
 9727SOL     OW40808   3.760   4.309   8.204
 9727SOL    HW140809   3.841   4.306   8.256
 9727SOL    HW240810   3.693   4.336   8.267
 9728SOL     OW40811   0.302   1.192   5.715
 9728SOL    HW140812   0.328   1.256   5.649
 9728SOL    HW240813   0.304   1.108   5.668
 9729SOL     OW40814   4.779   4.519   1.915
 9729SOL    HW140815   4.744   4.482   1.996
 9729SOL    HW240816   0.092   4.527   1.931
 9730SOL     OW40817   0.833   1.131  24.849
 9730SOL    HW140818   0.770   1.203  24.840
 9730SOL    HW240819   0.783   1.058  24.883
 9731SOL     OW40820   2.074   1.513   7.793
 9731SOL    HW140821   2.145   1.512   7.857
 9731SOL    HW240822   2.083   1.429   7.747
 9732SOL     OW40823   4.761   2.474  21.822
 9732SOL    HW140824   4.667   2.469  21.804
 9732SOL    HW240825   4.780   2.568  21.824
 9733SOL     OW40826   2.035   2.733   6.380
 9733SOL    HW140827   1.961   2.685   6.418
 9733SOL    HW240828   2.008   2.825   6.385
 9734SOL     OW40829   1.818   3.792  27.417
 9734SOL    HW140830   1.853   3.718  27.368
 9734SOL    HW240831   1.768   3.752  27.488
 9735SOL     OW40832   1.195   2.948   2.308
 9735SOL    HW140833   1.273   2.939   2.252
 9735SOL    HW240834   1.165   2.858   2.322
 9736SOL     OW40835   2.390   4.686   4.724
 9736SOL    HW140836   2.458   4.716   4.785
 9736SOL    HW240837   2.420   4.600   4.695
 9737SOL     OW40838   4.244   1.822   4.969
 9737SOL    HW140839   4.154   1.792   4.984
 9737SOL    HW240840   4.239   1.873   4.888
 9738SOL     OW40841   4.372   3.636   7.600
 9738SOL    HW140842   4.425   3.712   7.576
 9738SOL    HW240843   4.399   3.568   7.538
 9739SOL     OW40844   4.616   2.860  25.272
 9739SOL    HW140845   4.577   2.938  25.313
 9739SOL    HW240846   4.550   2.832  25.208
 9740SOL     OW40847   0.778   0.553   3.296
 9740SOL    HW140848   0.755   0.646   3.302
 9740SOL    HW240849   0.808   0.541   3.206
 9741SOL     OW40850   0.443   0.104  16.221
 9741SOL    HW140851   0.473   0.147  16.301
 9741SOL    HW240852   0.516   0.115  16.159
 9742SOL     OW40853   2.110   3.515   7.449
 9742SOL    HW140854   2.189   3.536   7.399
 9742SOL    HW240855   2.119   3.564   7.530
 9743SOL     OW40856   0.427   0.774  23.898
 9743SOL    HW140857   0.361   0.818  23.845
 9743SOL    HW240858   0.407   0.680  23.888
 9744SOL     OW40859   1.090   0.950   1.256
 9744SOL    HW140860   1.165   0.976   1.202
 9744SOL    HW240861   1.125   0.880   1.312
 9745SOL     OW40862   2.557   0.611  28.238
 9745SOL    HW140863   2.579   0.561  28.159
 9745SOL    HW240864   2.622   0.681  28.241
 9746SOL     OW40865   1.231   0.698   8.919
 9746SOL    HW140866   1.260   0.721   9.007
 9746SOL    HW240867   1.217   0.603   8.923
 9747SOL     OW40868   0.551   2.981  20.093
 9747SOL    HW140869   0.489   2.909  20.082
 9747SOL    HW240870   0.510   3.056  20.049
 9748SOL     OW40871   3.721   2.671  27.138
 9748SOL    HW140872   3.801   2.722  27.152
 9748SOL    HW240873   3.675   2.718  27.068
 9749SOL     OW40874   0.549   0.246   3.454
 9749SOL    HW140875   0.570   0.239   3.361
 9749SOL    HW240876   0.630   0.280   3.494
 9750SOL     OW40877   1.561   3.645   2.580
 9750SOL    HW140878   1.470   3.653   2.610
 9750SOL    HW240879   1.613   3.645   2.660
 9751SOL     OW40880   1.578   1.785  21.795
 9751SOL    HW140881   1.627   1.710  21.761
 9751SOL    HW240882   1.610   1.859  21.743
 9752SOL     OW40883   0.521   4.367  20.451
 9752SOL    HW140884   0.436   4.385  20.491
 9752SOL    HW240885   0.513   4.398  20.361
 9753SOL     OW40886   4.028   0.704   5.330
 9753SOL    HW140887   4.043   0.715   5.236
 9753SOL    HW240888   3.980   0.621   5.337
 9754SOL     OW40889   2.627   0.881   1.514
 9754SOL    HW140890   2.536   0.899   1.537
 9754SOL    HW240891   2.625   0.862   1.420
 9755SOL     OW40892   1.396   3.350  25.527
 9755SOL    HW140893   1.345   3.430  25.522
 9755SOL    HW240894   1.411   3.325  25.436
 9756SOL     OW40895   2.171   0.505  11.452
 9756SOL    HW140896   2.221   0.435  11.494
 9756SOL    HW240897   2.092   0.462  11.419
 9757SOL     OW40898   0.879   4.428   6.405
 9757SOL    HW140899   0.948   4.433   6.339
 9757SOL    HW240900   0.919   4.382   6.479
 9758SOL     OW40901   2.590   1.753  21.116
 9758SOL    HW140902   2.661   1.817  21.125
 9758SOL    HW240903   2.568   1.755  21.023
 9759SOL     OW40904   1.836   4.035   1.563
 9759SOL    HW140905   1.892   3.960   1.586
 9759SOL    HW240906   1.747   3.999   1.563
 9760SOL     OW40907   1.331   0.195   9.336
 9760SOL    HW140908   1.259   0.154   9.287
 9760SOL    HW240909   1.351   0.132   9.406
 9761SOL     OW40910   4.743   1.792  23.196
 9761SOL    HW140911   4.651   1.769  23.211
 9761SOL    HW240912   4.744   1.888  23.198
 9762SOL     OW40913   1.503   2.418   1.087
 9762SOL    HW140914   1.510   2.422   1.182
 9762SOL    HW240915   1.421   2.464   1.067
 9763SOL     OW40916   4.248   3.001   0.527
 9763SOL    HW140917   4.273   3.074   0.469
 9763SOL    HW240918   4.325   2.944   0.526
 9764SOL     OW40919   2.649   0.457   2.728
 9764SOL    HW140920   2.652   0.490   2.638
 9764SOL    HW240921   2.738   0.424   2.743
 9765SOL     OW40922   0.617   4.544  23.368
 9765SOL    HW140923   0.636   4.629  23.329
 9765SOL    HW240924   0.695   4.523  23.420
 9766SOL     OW40925   4.535   3.150  20.724
 9766SOL    HW140926   4.528   3.192  20.638
 9766SOL    HW240927   4.444   3.133  20.749
 9767SOL     OW40928   2.220   2.731   7.158
 9767SOL    HW140929   2.260   2.774   7.234
 9767SOL    HW240930   2.127   2.728   7.178
 9768SOL     OW40931   1.547   3.162   4.944
 9768SOL    HW140932   1.570   3.244   4.986
 9768SOL    HW240933   1.544   3.098   5.016
 9769SOL     OW40934   3.794   4.027   5.820
 9769SOL    HW140935   3.738   3.977   5.761
 9769SOL    HW240936   3.734   4.074   5.877
 9770SOL     OW40937   1.125   2.908  26.626
 9770SOL    HW140938   1.204   2.881  26.579
 9770SOL    HW240939   1.157   2.930  26.714
 9771SOL     OW40940   3.769   4.433  24.166
 9771SOL    HW140941   3.754   4.466  24.255
 9771SOL    HW240942   3.825   4.357  24.179
 9772SOL     OW40943   2.578   1.558   9.967
 9772SOL    HW140944   2.547   1.553  10.058
 9772SOL    HW240945   2.526   1.492   9.921
 9773SOL     OW40946   4.553   2.371  21.362
 9773SOL    HW140947   4.570   2.314  21.436
 9773SOL    HW240948   4.592   2.455  21.385
 9774SOL     OW40949   2.543   0.136  23.160
 9774SOL    HW140950   2.515   0.079  23.088
 9774SOL    HW240951   2.463   0.182  23.186
 9775SOL     OW40952   0.063   2.844   8.162
 9775SOL    HW140953   0.150   2.883   8.153
 9775SOL    HW240954   0.030   2.880   8.244
 9776SOL     OW40955   2.031   0.061   9.592
 9776SOL    HW140956   2.016   0.074   9.499
 9776SOL    HW240957   2.008   0.145   9.632
 9777SOL     OW40958   0.170   1.233  27.952
 9777SOL    HW140959   0.256   1.274  27.956
 9777SOL    HW240960   0.187   1.139  27.962
 9778SOL     OW40961   4.296   2.117   5.887
 9778SOL    HW140962   4.341   2.174   5.949
 9778SOL    HW240963   4.350   2.119   5.808
 9779SOL     OW40964   1.864   4.756   7.792
 9779SOL    HW140965   1.959   4.756   7.780
 9779SOL    HW240966   1.853   4.740   7.886
 9780SOL     OW40967   2.661   4.281  23.301
 9780SOL    HW140968   2.742   4.236  23.277
 9780SOL    HW240969   2.592   4.219  23.280
 9781SOL     OW40970   0.337   0.584  25.464
 9781SOL    HW140971   0.245   0.562  25.472
 9781SOL    HW240972   0.370   0.583  25.554
 9782SOL     OW40973   2.544   3.280   0.620
 9782SOL    HW140974   2.520   3.188   0.635
 9782SOL    HW240975   2.560   3.286   0.526
 9783SOL     OW40976   2.808   1.539  26.275
 9783SOL    HW140977   2.807   1.473  26.205
 9783SOL    HW240978   2.735   1.597  26.253
 9784SOL     OW40979   2.739   1.391   9.675
 9784SOL    HW140980   2.818   1.375   9.727
 9784SOL    HW240981   2.683   1.315   9.691
 9785SOL     OW40982   3.350   0.178   1.209
 9785SOL    HW140983   3.395   0.094   1.215
 9785SOL    HW240984   3.356   0.215   1.298
 9786SOL     OW40985   2.421   3.755   9.155
 9786SOL    HW140986   2.420   3.844   9.190
 9786SOL    HW240987   2.484   3.708   9.210
 9787SOL     OW40988   3.999   0.591  25.795
 9787SOL    HW140989   4.076   0.640  25.765
 9787SOL    HW240990   3.928   0.620  25.737
 9788SOL     OW40991   2.696   2.643  22.945
 9788SOL    HW140992   2.768   2.697  22.977
 9788SOL    HW240993   2.738   2.571  22.898
 9789SOL     OW40994   1.919   2.129  26.413
 9789SOL    HW140995   1.858   2.179  26.466
 9789SOL    HW240996   2.000   2.128  26.463
 9790SOL     OW40997   2.066   0.714   1.717
 9790SOL    HW140998   2.012   0.640   1.744
 9790SOL    HW240999   2.053   0.779   1.786
 9791SOL     OW41000   2.002   3.536  17.833
 9791SOL    HW141001   1.916   3.573  17.855
 9791SOL    HW241002   2.047   3.606  17.786
 9792SOL     OW41003   1.146   1.078   1.967
 9792SOL    HW141004   1.086   1.139   1.925
 9792SOL    HW241005   1.094   0.999   1.980
 9793SOL     OW41006   0.316   1.590  10.368
 9793SOL    HW141007   0.281   1.529  10.432
 9793SOL    HW241008   0.268   1.571  10.287
 9794SOL     OW41009   4.542   0.750   2.383
 9794SOL    HW141010   4.635   0.743   2.362
 9794SOL    HW241011   4.503   0.792   2.306
 9795SOL     OW41012   4.052   2.938  25.538
 9795SOL    HW141013   3.967   2.924  25.581
 9795SOL    HW241014   4.033   3.000  25.468
 9796SOL     OW41015   0.481   3.181  19.922
 9796SOL    HW141016   0.459   3.197  19.830
 9796SOL    HW241017   0.567   3.220  19.934
 9797SOL     OW41018   0.221   1.244  27.623
 9797SOL    HW141019   0.288   1.312  27.635
 9797SOL    HW241020   0.268   1.162  27.631
 9798SOL     OW41021   4.136   4.565   5.340
 9798SOL    HW141022   4.154   4.555   5.434
 9798SOL    HW241023   4.137   4.476   5.306
 9799SOL     OW41024   2.882   1.093  20.711
 9799SOL    HW141025   2.928   1.176  20.703
 9799SOL    HW241026   2.858   1.071  20.621
 9800SOL     OW41027   2.963   4.416  11.571
 9800SOL    HW141028   3.057   4.401  11.560
 9800SOL    HW241029   2.957   4.504  11.606
 9801SOL     OW41030   1.261   1.669  26.126
 9801SOL    HW141031   1.293   1.749  26.168
 9801SOL    HW241032   1.337   1.635  26.078
 9802SOL     OW41033   1.786   3.833   5.503
 9802SOL    HW141034   1.806   3.800   5.416
 9802SOL    HW241035   1.828   3.771   5.563
 9803SOL     OW41036   3.747   4.574   7.232
 9803SOL    HW141037   3.704   4.656   7.260
 9803SOL    HW241038   3.705   4.506   7.285
 9804SOL     OW41039   0.755   1.986   0.636
 9804SOL    HW141040   0.739   1.976   0.542
 9804SOL    HW241041   0.699   1.919   0.677
 9805SOL     OW41042   2.946   1.340  21.160
 9805SOL    HW141043   2.882   1.400  21.124
 9805SOL    HW241044   2.995   1.392  21.223
 9806SOL     OW41045   2.129   0.618  20.166
 9806SOL    HW141046   2.164   0.672  20.237
 9806SOL    HW241047   2.065   0.561  20.208
 9807SOL     OW41048   4.078   1.268   0.916
 9807SOL    HW141049   4.121   1.335   0.863
 9807SOL    HW241050   4.038   1.209   0.852
 9808SOL     OW41051   0.454   0.816  21.094
 9808SOL    HW141052   0.399   0.738  21.081
 9808SOL    HW241053   0.540   0.780  21.119
 9809SOL     OW41054   2.119   2.970  21.047
 9809SOL    HW141055   2.084   3.058  21.062
 9809SOL    HW241056   2.094   2.921  21.126
 9810SOL     OW41057   4.573   1.219   0.512
 9810SOL    HW141058   4.512   1.292   0.519
 9810SOL    HW241059   4.646   1.243   0.569
 9811SOL     OW41060   2.174   2.260   3.955
 9811SOL    HW141061   2.190   2.195   3.887
 9811SOL    HW241062   2.259   2.301   3.971
 9812SOL     OW41063   0.977   0.699   0.314
 9812SOL    HW141064   0.936   0.777   0.352
 9812SOL    HW241065   0.915   0.629   0.332
 9813SOL     OW41066   1.910   0.630   0.598
 9813SOL    HW141067   1.888   0.683   0.521
 9813SOL    HW241068   1.836   0.569   0.606
 9814SOL     OW41069   3.014   0.773  17.351
 9814SOL    HW141070   3.024   0.859  17.310
 9814SOL    HW241071   2.925   0.774  17.386
 9815SOL     OW41072   4.593   1.267   5.285
 9815SOL    HW141073   4.504   1.269   5.322
 9815SOL    HW241074   4.650   1.261   5.361
 9816SOL     OW41075   4.018   4.569   3.254
 9816SOL    HW141076   4.042   4.661   3.242
 9816SOL    HW241077   3.924   4.572   3.273
 9817SOL     OW41078   0.289   2.348  19.212
 9817SOL    HW141079   0.294   2.443  19.199
 9817SOL    HW241080   0.245   2.316  19.133
 9818SOL     OW41081   0.132   1.600  23.831
 9818SOL    HW141082   0.159   1.566  23.746
 9818SOL    HW241083   0.182   1.680  23.843
 9819SOL     OW41084   2.775   1.713  19.302
 9819SOL    HW141085   2.753   1.803  19.325
 9819SOL    HW241086   2.707   1.660  19.344
 9820SOL     OW41087   3.025   2.739  21.143
 9820SOL    HW141088   3.051   2.713  21.231
 9820SOL    HW241089   3.077   2.818  21.125
 9821SOL     OW41090   4.031   1.246   1.234
 9821SOL    HW141091   4.029   1.152   1.253
 9821SOL    HW241092   4.109   1.258   1.179
 9822SOL     OW41093   3.717   1.622  28.060
 9822SOL    HW141094   3.799   1.612  28.108
 9822SOL    HW241095   3.679   1.702  28.094
 9823SOL     OW41096   4.347   0.958   0.100
 9823SOL    HW141097   4.421   0.898   0.114
 9823SOL    HW241098   4.271   0.909   0.131
 9824SOL     OW41099   2.960   4.771  27.238
 9824SOL    HW141100   2.979   0.006  27.146
 9824SOL    HW241101   2.988   4.681  27.253
 9825SOL     OW41102   2.050   4.463   5.071
 9825SOL    HW141103   2.093   4.423   5.147
 9825SOL    HW241104   1.961   4.429   5.074
 9826SOL     OW41105   3.681   2.391   5.411
 9826SOL    HW141106   3.598   2.439   5.417
 9826SOL    HW241107   3.747   2.454   5.441
 9827SOL     OW41108   3.176   0.336   2.843
 9827SOL    HW141109   3.263   0.296   2.841
 9827SOL    HW241110   3.180   0.400   2.914
 9828SOL     OW41111   2.463   2.413   5.696
 9828SOL    HW141112   2.400   2.345   5.672
 9828SOL    HW241113   2.450   2.426   5.790
 9829SOL     OW41114   2.228   4.371  25.474
 9829SOL    HW141115   2.234   4.343  25.566
 9829SOL    HW241116   2.319   4.391  25.450
 9830SOL     OW41117   1.974   0.513   1.887
 9830SOL    HW141118   2.029   0.437   1.907
 9830SOL    HW241119   1.896   0.500   1.941
 9831SOL     OW41120   2.961   4.109   0.036
 9831SOL    HW141121   2.940   4.020   0.008
 9831SOL    HW241122   3.056   4.109   0.047
 9832SOL     OW41123   2.308   0.818   7.489
 9832SOL    HW141124   2.379   0.785   7.434
 9832SOL    HW241125   2.237   0.754   7.478
 9833SOL     OW41126   4.617   0.349   3.362
 9833SOL    HW141127   4.703   0.307   3.367
 9833SOL    HW241128   4.612   0.381   3.272
 9834SOL     OW41129   2.832   3.288  22.138
 9834SOL    HW141130   2.838   3.209  22.191
 9834SOL    HW241131   2.880   3.354  22.188
 9835SOL     OW41132   0.077   1.347   5.880
 9835SOL    HW141133   0.165   1.326   5.850
 9835SOL    HW241134   0.021   1.281   5.838
 9836SOL     OW41135   0.307   1.899   1.740
 9836SOL    HW141136   0.335   1.890   1.649
 9836SOL    HW241137   0.382   1.870   1.791
 9837SOL     OW41138   1.576   4.356   6.329
 9837SOL    HW141139   1.665   4.321   6.333
 9837SOL    HW241140   1.557   4.361   6.235
 9838SOL     OW41141   0.882   2.147  17.851
 9838SOL    HW141142   0.873   2.242  17.845
 9838SOL    HW241143   0.900   2.119  17.761
 9839SOL     OW41144   2.382   2.509  23.204
 9839SOL    HW141145   2.374   2.549  23.291
 9839SOL    HW241146   2.378   2.415  23.221
 9840SOL     OW41147   1.331   0.583  28.075
 9840SOL    HW141148   1.292   0.667  28.098
 9840SOL    HW241149   1.256   0.523  28.069
 9841SOL     OW41150   2.963   2.389   0.993
 9841SOL    HW141151   3.027   2.420   0.929
 9841SOL    HW241152   2.930   2.468   1.034
 9842SOL     OW41153   0.069   0.388   0.285
 9842SOL    HW141154   0.102   0.379   0.374
 9842SOL    HW241155   4.766   0.342   0.285
 9843SOL     OW41156   4.320   0.664   0.346
 9843SOL    HW141157   4.277   0.591   0.302
 9843SOL    HW241158   4.392   0.687   0.287
 9844SOL     OW41159   3.008   4.158   8.571
 9844SOL    HW141160   3.093   4.188   8.538
 9844SOL    HW241161   2.973   4.104   8.501
 9845SOL     OW41162   4.395   2.315   0.449
 9845SOL    HW141163   4.305   2.296   0.422
 9845SOL    HW241164   4.398   2.410   0.460
 9846SOL     OW41165   2.854   4.647  25.440
 9846SOL    HW141166   2.949   4.637  25.445
 9846SOL    HW241167   2.828   4.668  25.530
 9847SOL     OW41168   2.708   3.836   1.817
 9847SOL    HW141169   2.683   3.912   1.869
 9847SOL    HW241170   2.775   3.870   1.757
 9848SOL     OW41171   1.844   4.322   6.652
 9848SOL    HW141172   1.895   4.244   6.673
 9848SOL    HW241173   1.895   4.367   6.585
 9849SOL     OW41174   2.401   1.023   7.637
 9849SOL    HW141175   2.378   0.947   7.584
 9849SOL    HW241176   2.423   1.091   7.574
 9850SOL     OW41177   2.986   0.869   1.150
 9850SOL    HW141178   2.974   0.934   1.081
 9850SOL    HW241179   2.953   0.911   1.229
 9851SOL     OW41180   2.537   2.872   5.342
 9851SOL    HW141181   2.515   2.791   5.388
 9851SOL    HW241182   2.455   2.921   5.337
 9852SOL     OW41183   3.506   2.236  22.579
 9852SOL    HW141184   3.427   2.287  22.558
 9852SOL    HW241185   3.480   2.145  22.563
 9853SOL     OW41186   3.983   1.674   1.298
 9853SOL    HW141187   3.961   1.628   1.217
 9853SOL    HW241188   4.025   1.607   1.353
 9854SOL     OW41189   2.086   1.319   3.837
 9854SOL    HW141190   2.085   1.247   3.774
 9854SOL    HW241191   1.994   1.331   3.861
 9855SOL     OW41192   2.331   4.388  18.406
 9855SOL    HW141193   2.391   4.360  18.336
 9855SOL    HW241194   2.244   4.370  18.370
 9856SOL     OW41195   0.611   1.684  18.235
 9856SOL    HW141196   0.569   1.750  18.290
 9856SOL    HW241197   0.634   1.613  18.295
 9857SOL     OW41198   2.916   3.189  27.469
 9857SOL    HW141199   2.901   3.158  27.379
 9857SOL    HW241200   2.888   3.281  27.467
 9858SOL     OW41201   1.934   0.857  22.633
 9858SOL    HW141202   1.927   0.905  22.551
 9858SOL    HW241203   1.882   0.908  22.695
 9859SOL     OW41204   2.083   1.478  20.579
 9859SOL    HW141205   2.125   1.516  20.502
 9859SOL    HW241206   2.013   1.422  20.543
 9860SOL     OW41207   4.175   3.355  20.977
 9860SOL    HW141208   4.159   3.447  20.996
 9860SOL    HW241209   4.181   3.350  20.882
 9861SOL     OW41210   4.417   1.170  22.419
 9861SOL    HW141211   4.502   1.213  22.434
 9861SOL    HW241212   4.352   1.235  22.446
 9862SOL     OW41213   4.717   1.031   4.226
 9862SOL    HW141214   0.018   1.027   4.177
 9862SOL    HW241215   4.687   0.940   4.230
 9863SOL     OW41216   1.370   2.608   7.994
 9863SOL    HW141217   1.446   2.576   8.043
 9863SOL    HW241218   1.317   2.530   7.977
 9864SOL     OW41219   0.435   3.075  24.082
 9864SOL    HW141220   0.437   3.138  24.010
 9864SOL    HW241221   0.358   3.098  24.133
 9865SOL     OW41222   1.710   0.912  24.130
 9865SOL    HW141223   1.779   0.851  24.105
 9865SOL    HW241224   1.644   0.857  24.173
 9866SOL     OW41225   1.460   4.352  22.483
 9866SOL    HW141226   1.496   4.293  22.417
 9866SOL    HW241227   1.366   4.357  22.464
 9867SOL     OW41228   2.811   0.570   4.194
 9867SOL    HW141229   2.860   0.517   4.130
 9867SOL    HW241230   2.762   0.633   4.142
 9868SOL     OW41231   2.969   4.442   8.962
 9868SOL    HW141232   2.924   4.429   8.878
 9868SOL    HW241233   2.929   4.379   9.021
 9869SOL     OW41234   3.249   0.049  21.249
 9869SOL    HW141235   3.299   0.024  21.171
 9869SOL    HW241236   3.294   0.127  21.282
 9870SOL     OW41237   0.965   1.425  10.703
 9870SOL    HW141238   1.007   1.373  10.772
 9870SOL    HW241239   0.945   1.509  10.744
 9871SOL     OW41240   0.098   0.800  26.176
 9871SOL    HW141241   0.013   0.792  26.220
 9871SOL    HW241242   0.160   0.817  26.248
 9872SOL     OW41243   4.199   1.327  24.044
 9872SOL    HW141244   4.259   1.365  23.980
 9872SOL    HW241245   4.151   1.401  24.079
 9873SOL     OW41246   1.376   3.452  20.549
 9873SOL    HW141247   1.377   3.394  20.626
 9873SOL    HW241248   1.412   3.399  20.479
 9874SOL     OW41249   0.576   0.938   6.056
 9874SOL    HW141250   0.578   1.027   6.090
 9874SOL    HW241251   0.655   0.931   6.002
 9875SOL     OW41252   0.205   4.026   3.392
 9875SOL    HW141253   0.258   4.098   3.357
 9875SOL    HW241254   0.195   4.046   3.485
 9876SOL     OW41255   2.248   0.290   0.857
 9876SOL    HW141256   2.271   0.289   0.765
 9876SOL    HW241257   2.163   0.334   0.860
 9877SOL     OW41258   2.244   0.507  20.878
 9877SOL    HW141259   2.315   0.572  20.880
 9877SOL    HW241260   2.166   0.557  20.901
 9878SOL     OW41261   4.207   2.714   8.888
 9878SOL    HW141262   4.178   2.626   8.868
 9878SOL    HW241263   4.298   2.703   8.917
 9879SOL     OW41264   0.858   1.466   7.278
 9879SOL    HW141265   0.902   1.421   7.350
 9879SOL    HW241266   0.895   1.554   7.278
 9880SOL     OW41267   0.124   0.022  22.525
 9880SOL    HW141268   0.114   0.115  22.507
 9880SOL    HW241269   0.072   0.006  22.604
 9881SOL     OW41270   2.578   1.550  23.155
 9881SOL    HW141271   2.524   1.535  23.078
 9881SOL    HW241272   2.536   1.624  23.199
 9882SOL     OW41273   2.180   4.220   9.898
 9882SOL    HW141274   2.253   4.229   9.959
 9882SOL    HW241275   2.118   4.287   9.924
 9883SOL     OW41276   4.265   0.816  24.387
 9883SOL    HW141277   4.328   0.756  24.427
 9883SOL    HW241278   4.180   0.781  24.413
 9884SOL     OW41279   2.428   4.452  23.158
 9884SOL    HW141280   2.370   4.456  23.235
 9884SOL    HW241281   2.516   4.448  23.195
 9885SOL     OW41282   0.556   1.928   2.676
 9885SOL    HW141283   0.526   1.939   2.586
 9885SOL    HW241284   0.522   2.005   2.722
 9886SOL     OW41285   4.550   0.586  22.488
 9886SOL    HW141286   4.629   0.549  22.448
 9886SOL    HW241287   4.495   0.510  22.506
 9887SOL     OW41288   2.058   3.711  25.650
 9887SOL    HW141289   2.000   3.668  25.587
 9887SOL    HW241290   2.049   3.659  25.730
 9888SOL     OW41291   2.813   0.909   0.477
 9888SOL    HW141292   2.848   0.876   0.394
 9888SOL    HW241293   2.760   0.985   0.452
 9889SOL     OW41294   2.616   2.518   4.597
 9889SOL    HW141295   2.584   2.531   4.686
 9889SOL    HW241296   2.581   2.432   4.572
 9890SOL     OW41297   3.462   4.045   5.332
 9890SOL    HW141298   3.373   4.060   5.364
 9890SOL    HW241299   3.477   4.117   5.270
 9891SOL     OW41300   2.610   1.810  21.580
 9891SOL    HW141301   2.554   1.796  21.504
 9891SOL    HW241302   2.552   1.801  21.656
 9892SOL     OW41303   4.589   4.013   4.101
 9892SOL    HW141304   4.531   3.976   4.035
 9892SOL    HW241305   4.537   4.012   4.182
 9893SOL     OW41306   2.972   3.930  23.294
 9893SOL    HW141307   2.934   4.008  23.255
 9893SOL    HW241308   3.047   3.961  23.345
 9894SOL     OW41309   4.521   0.007  20.716
 9894SOL    HW141310   4.515   4.718  20.651
 9894SOL    HW241311   4.592   0.063  20.684
 9895SOL     OW41312   4.142   1.992  24.986
 9895SOL    HW141313   4.110   2.049  25.056
 9895SOL    HW241314   4.157   2.050  24.912
 9896SOL     OW41315   1.373   3.222   5.969
 9896SOL    HW141316   1.330   3.143   6.004
 9896SOL    HW241317   1.382   3.280   6.044
 9897SOL     OW41318   3.905   2.727  19.908
 9897SOL    HW141319   3.834   2.752  19.968
 9897SOL    HW241320   3.972   2.794  19.922
 9898SOL     OW41321   3.969   0.397   0.550
 9898SOL    HW141322   3.965   0.321   0.607
 9898SOL    HW241323   3.956   0.362   0.462
 9899SOL     OW41324   0.424   3.583   3.430
 9899SOL    HW141325   0.340   3.629   3.429
 9899SOL    HW241326   0.487   3.650   3.456
 9900SOL     OW41327   2.997   1.862   2.660
 9900SOL    HW141328   2.906   1.839   2.637
 9900SOL    HW241329   3.050   1.805   2.605
 9901SOL     OW41330   1.843   1.809  23.847
 9901SOL    HW141331   1.836   1.885  23.790
 9901SOL    HW241332   1.754   1.794  23.878
 9902SOL     OW41333   2.020   0.893  25.722
 9902SOL    HW141334   1.926   0.897  25.706
 9902SOL    HW241335   2.053   0.831  25.657
 9903SOL     OW41336   1.533   3.779   6.931
 9903SOL    HW141337   1.440   3.756   6.922
 9903SOL    HW241338   1.580   3.709   6.886
 9904SOL     OW41339   4.432   3.445  21.612
 9904SOL    HW141340   4.436   3.417  21.520
 9904SOL    HW241341   4.468   3.534  21.611
 9905SOL     OW41342   2.589   1.146  27.748
 9905SOL    HW141343   2.560   1.237  27.741
 9905SOL    HW241344   2.509   1.096  27.763
 9906SOL     OW41345   3.134   0.195   5.475
 9906SOL    HW141346   3.103   0.285   5.490
 9906SOL    HW241347   3.072   0.159   5.412
 9907SOL     OW41348   3.229   1.044   4.672
 9907SOL    HW141349   3.223   0.994   4.591
 9907SOL    HW241350   3.210   0.980   4.741
 9908SOL     OW41351   1.095   0.347   2.933
 9908SOL    HW141352   1.115   0.280   2.867
 9908SOL    HW241353   1.150   0.324   3.008
 9909SOL     OW41354   2.659   1.814   2.195
 9909SOL    HW141355   2.725   1.809   2.265
 9909SOL    HW241356   2.620   1.901   2.204
 9910SOL     OW41357   3.119   2.018   9.306
 9910SOL    HW141358   3.205   1.976   9.301
 9910SOL    HW241359   3.066   1.972   9.241
 9911SOL     OW41360   2.960   2.040   7.764
 9911SOL    HW141361   3.026   2.027   7.833
 9911SOL    HW241362   2.983   1.976   7.697
 9912SOL     OW41363   3.994   3.700  10.557
 9912SOL    HW141364   3.978   3.608  10.576
 9912SOL    HW241365   3.983   3.745  10.641
 9913SOL     OW41366   0.094   2.103  18.166
 9913SOL    HW141367   0.013   2.076  18.209
 9913SOL    HW241368   0.141   2.021  18.151
 9914SOL     OW41369   1.060   1.139   2.918
 9914SOL    HW141370   1.007   1.081   2.863
 9914SOL    HW241371   1.151   1.113   2.900
 9915SOL     OW41372   1.084   0.826   5.144
 9915SOL    HW141373   1.070   0.902   5.088
 9915SOL    HW241374   1.052   0.853   5.230
 9916SOL     OW41375   1.435   2.709   1.419
 9916SOL    HW141376   1.402   2.719   1.330
 9916SOL    HW241377   1.527   2.733   1.413
 9917SOL     OW41378   3.041   2.282  22.079
 9917SOL    HW141379   3.054   2.268  21.985
 9917SOL    HW241380   3.065   2.374  22.093
 9918SOL     OW41381   3.736   3.237  22.263
 9918SOL    HW141382   3.816   3.279  22.233
 9918SOL    HW241383   3.668   3.272  22.206
 9919SOL     OW41384   4.135   3.064   7.787
 9919SOL    HW141385   4.223   3.090   7.816
 9919SOL    HW241386   4.099   3.143   7.747
 9920SOL     OW41387   3.759   0.862  22.546
 9920SOL    HW141388   3.705   0.787  22.520
 9920SOL    HW241389   3.846   0.825  22.562
 9921SOL     OW41390   3.678   1.454   6.226
 9921SOL    HW141391   3.739   1.521   6.257
 9921SOL    HW241392   3.708   1.431   6.138
 9922SOL     OW41393   1.818   4.603   7.268
 9922SOL    HW141394   1.817   4.695   7.240
 9922SOL    HW241395   1.867   4.558   7.200
 9923SOL     OW41396   2.489   0.189   6.996
 9923SOL    HW141397   2.553   0.219   7.060
 9923SOL    HW241398   2.432   0.130   7.044
 9924SOL     OW41399   1.303   3.685  24.699
 9924SOL    HW141400   1.351   3.623  24.755
 9924SOL    HW241401   1.216   3.645  24.689
 9925SOL     OW41402   1.066   0.492  25.411
 9925SOL    HW141403   1.155   0.488  25.446
 9925SOL    HW241404   1.025   0.564  25.458
 9926SOL     OW41405   1.361   2.837  26.545
 9926SOL    HW141406   1.421   2.800  26.480
 9926SOL    HW241407   1.418   2.877  26.611
 9927SOL     OW41408   3.192   1.792   6.950
 9927SOL    HW141409   3.112   1.834   6.919
 9927SOL    HW241410   3.254   1.865   6.961
 9928SOL     OW41411   1.443   2.846  21.447
 9928SOL    HW141412   1.441   2.938  21.421
 9928SOL    HW241413   1.353   2.815  21.435
 9929SOL     OW41414   1.746   3.764  18.272
 9929SOL    HW141415   1.696   3.835  18.311
 9929SOL    HW241416   1.777   3.799  18.188
 9930SOL     OW41417   2.035   2.166   0.029
 9930SOL    HW141418   2.035   2.258   0.001
 9930SOL    HW241419   2.106   2.160   0.092
 9931SOL     OW41420   1.851   2.502  11.442
 9931SOL    HW141421   1.830   2.513  11.535
 9931SOL    HW241422   1.938   2.463  11.441
 9932SOL     OW41423   2.244   3.316   2.394
 9932SOL    HW141424   2.154   3.289   2.412
 9932SOL    HW241425   2.283   3.240   2.351
 9933SOL     OW41426   3.613   4.368  19.720
 9933SOL    HW141427   3.661   4.401  19.644
 9933SOL    HW241428   3.669   4.387  19.795
 9934SOL     OW41429   0.360   0.281   5.292
 9934SOL    HW141430   0.274   0.246   5.268
 9934SOL    HW241431   0.388   0.227   5.366
 9935SOL     OW41432   4.085   3.284   4.714
 9935SOL    HW141433   4.129   3.363   4.685
 9935SOL    HW241434   3.992   3.305   4.708
 9936SOL     OW41435   0.286   2.046   7.472
 9936SOL    HW141436   0.266   2.108   7.401
 9936SOL    HW241437   0.292   2.101   7.550
 9937SOL     OW41438   4.339   2.318  27.030
 9937SOL    HW141439   4.274   2.313  27.099
 9937SOL    HW241440   4.365   2.410  27.027
 9938SOL     OW41441   1.240   1.375  25.716
 9938SOL    HW141442   1.150   1.359  25.687
 9938SOL    HW241443   1.231   1.397  25.809
 9939SOL     OW41444   1.156   1.151  28.439
 9939SOL    HW141445   1.172   1.228  28.383
 9939SOL    HW241446   1.180   1.076  28.384
 9940SOL     OW41447   4.174   0.468   3.854
 9940SOL    HW141448   4.171   0.460   3.949
 9940SOL    HW241449   4.207   0.383   3.824
 9941SOL     OW41450   4.226   4.571   0.517
 9941SOL    HW141451   4.191   4.524   0.442
 9941SOL    HW241452   4.314   4.598   0.490
 9942SOL     OW41453   1.671   0.698   0.773
 9942SOL    HW141454   1.668   0.656   0.687
 9942SOL    HW241455   1.760   0.733   0.781
 9943SOL     OW41456   0.568   1.892   2.332
 9943SOL    HW141457   0.529   1.966   2.379
 9943SOL    HW241458   0.529   1.896   2.245
 9944SOL     OW41459   2.855   1.579  21.592
 9944SOL    HW141460   2.827   1.600  21.681
 9944SOL    HW241461   2.820   1.492  21.576
 9945SOL     OW41462   1.671   2.251   0.376
 9945SOL    HW141463   1.643   2.271   0.286
 9945SOL    HW241464   1.590   2.251   0.427
 9946SOL     OW41465   2.906   4.525  10.620
 9946SOL    HW141466   2.961   4.457  10.580
 9946SOL    HW241467   2.858   4.479  10.689
 9947SOL     OW41468   0.982   4.059  23.995
 9947SOL    HW141469   0.976   4.154  23.988
 9947SOL    HW241470   1.075   4.040  23.983
 9948SOL     OW41471   4.647   4.132  28.381
 9948SOL    HW141472   4.631   4.161  28.291
 9948SOL    HW241473   4.698   4.052  28.371
 9949SOL     OW41474   4.398   4.044  22.586
 9949SOL    HW141475   4.395   3.964  22.533
 9949SOL    HW241476   4.483   4.083  22.565
 9950SOL     OW41477   2.396   0.592  26.860
 9950SOL    HW141478   2.382   0.668  26.916
 9950SOL    HW241479   2.363   0.518  26.911
 9951SOL     OW41480   4.633   3.159   0.919
 9951SOL    HW141481   4.726   3.144   0.936
 9951SOL    HW241482   4.629   3.178   0.825
 9952SOL     OW41483   1.047   3.461  23.693
 9952SOL    HW141484   1.057   3.440  23.786
 9952SOL    HW241485   1.123   3.420  23.651
 9953SOL     OW41486   2.557   0.404  25.840
 9953SOL    HW141487   2.612   0.350  25.784
 9953SOL    HW241488   2.608   0.414  25.921
 9954SOL     OW41489   0.575   1.183   4.322
 9954SOL    HW141490   0.563   1.278   4.313
 9954SOL    HW241491   0.623   1.173   4.404
 9955SOL     OW41492   3.838   2.121  24.169
 9955SOL    HW141493   3.866   2.034  24.196
 9955SOL    HW241494   3.898   2.145  24.098
 9956SOL     OW41495   2.416   2.744  21.085
 9956SOL    HW141496   2.336   2.697  21.061
 9956SOL    HW241497   2.486   2.679  21.076
 9957SOL     OW41498   4.684   4.439   1.380
 9957SOL    HW141499   4.647   4.527   1.379
 9957SOL    HW241500   4.631   4.391   1.443
 9958SOL     OW41501   2.573   0.101   8.450
 9958SOL    HW141502   2.652   0.110   8.397
 9958SOL    HW241503   2.600   0.124   8.538
 9959SOL     OW41504   1.352   1.660   8.108
 9959SOL    HW141505   1.308   1.576   8.121
 9959SOL    HW241506   1.298   1.724   8.155
 9960SOL     OW41507   2.197   4.017  22.543
 9960SOL    HW141508   2.143   4.040  22.468
 9960SOL    HW241509   2.240   4.099  22.568
 9961SOL     OW41510   1.171   2.144  25.824
 9961SOL    HW141511   1.086   2.183  25.805
 9961SOL    HW241512   1.219   2.149  25.742
 9962SOL     OW41513   4.379   1.360  28.015
 9962SOL    HW141514   4.284   1.354  28.025
 9962SOL    HW241515   4.414   1.288  28.067
 9963SOL     OW41516   2.032   1.532   0.457
 9963SOL    HW141517   1.973   1.573   0.520
 9963SOL    HW241518   2.078   1.605   0.416
 9964SOL     OW41519   4.600   3.412  23.580
 9964SOL    HW141520   4.574   3.439  23.492
 9964SOL    HW241521   4.576   3.319  23.585
 9965SOL     OW41522   2.877   2.158  22.865
 9965SOL    HW141523   2.928   2.239  22.865
 9965SOL    HW241524   2.911   2.108  22.939
 9966SOL     OW41525   0.962   4.471  18.346
 9966SOL    HW141526   0.929   4.441  18.261
 9966SOL    HW241527   0.971   4.392  18.398
 9967SOL     OW41528   3.254   1.341  10.269
 9967SOL    HW141529   3.191   1.294  10.323
 9967SOL    HW241530   3.282   1.415  10.324
 9968SOL     OW41531   1.088   1.596  21.135
 9968SOL    HW141532   1.062   1.516  21.180
 9968SOL    HW241533   1.070   1.579  21.042
 9969SOL     OW41534   4.455   3.715   2.511
 9969SOL    HW141535   4.532   3.736   2.459
 9969SOL    HW241536   4.476   3.631   2.553
 9970SOL     OW41537   4.670   0.833   3.893
 9970SOL    HW141538   4.765   0.830   3.880
 9970SOL    HW241539   4.646   0.742   3.912
 9971SOL     OW41540   4.269   0.114   1.699
 9971SOL    HW141541   4.302   0.157   1.620
 9971SOL    HW241542   4.294   0.023   1.688
 9972SOL     OW41543   4.453   4.383   0.425
 9972SOL    HW141544   4.400   4.325   0.371
 9972SOL    HW241545   4.415   4.375   0.513
 9973SOL     OW41546   0.916   0.792   9.816
 9973SOL    HW141547   0.860   0.719   9.791
 9973SOL    HW241548   0.968   0.759   9.889
 9974SOL     OW41549   3.014   3.765  25.766
 9974SOL    HW141550   3.071   3.718  25.706
 9974SOL    HW241551   2.994   3.847  25.720
 9975SOL     OW41552   3.093   2.378   9.559
 9975SOL    HW141553   3.166   2.354   9.617
 9975SOL    HW241554   3.031   2.422   9.617
 9976SOL     OW41555   2.200   2.760  22.770
 9976SOL    HW141556   2.141   2.708  22.824
 9976SOL    HW241557   2.152   2.773  22.688
 9977SOL     OW41558   1.767   3.812   7.335
 9977SOL    HW141559   1.834   3.842   7.397
 9977SOL    HW241560   1.787   3.719   7.323
 9978SOL     OW41561   2.670   4.584  19.151
 9978SOL    HW141562   2.581   4.617  19.159
 9978SOL    HW241563   2.685   4.576  19.057
 9979SOL     OW41564   1.248   4.404  24.311
 9979SOL    HW141565   1.254   4.359  24.395
 9979SOL    HW241566   1.339   4.424  24.288
 9980SOL     OW41567   2.528   1.624  22.364
 9980SOL    HW141568   2.624   1.617  22.362
 9980SOL    HW241569   2.507   1.678  22.288
 9981SOL     OW41570   4.487   1.715  23.236
 9981SOL    HW141571   4.454   1.744  23.151
 9981SOL    HW241572   4.415   1.663  23.272
 9982SOL     OW41573   2.722   1.361   7.554
 9982SOL    HW141574   2.634   1.352   7.519
 9982SOL    HW241575   2.711   1.408   7.637
 9983SOL     OW41576   3.110   2.819  18.619
 9983SOL    HW141577   3.043   2.754  18.639
 9983SOL    HW241578   3.063   2.903  18.623
 9984SOL     OW41579   2.224   0.382   8.969
 9984SOL    HW141580   2.317   0.363   8.957
 9984SOL    HW241581   2.180   0.330   8.901
 9985SOL     OW41582   1.647   1.102   3.876
 9985SOL    HW141583   1.739   1.120   3.896
 9985SOL    HW241584   1.629   1.019   3.920
 9986SOL     OW41585   0.218   3.578  20.214
 9986SOL    HW141586   0.129   3.566  20.180
 9986SOL    HW241587   0.269   3.604  20.137
 9987SOL     OW41588   4.192   1.636  10.917
 9987SOL    HW141589   4.112   1.686  10.934
 9987SOL    HW241590   4.172   1.583  10.840
 9988SOL     OW41591   1.533   2.243   4.741
 9988SOL    HW141592   1.503   2.181   4.674
 9988SOL    HW241593   1.570   2.316   4.692
 9989SOL     OW41594   3.015   0.207  10.450
 9989SOL    HW141595   3.022   0.147  10.376
 9989SOL    HW241596   2.972   0.157  10.518
 9990SOL     OW41597   3.138   1.562   9.873
 9990SOL    HW141598   3.205   1.533   9.810
 9990SOL    HW241599   3.182   1.558   9.957
 9991SOL     OW41600   0.605   0.474  24.462
 9991SOL    HW141601   0.559   0.407  24.411
 9991SOL    HW241602   0.694   0.440  24.473
 9992SOL     OW41603   1.636   3.988  20.446
 9992SOL    HW141604   1.668   4.078  20.436
 9992SOL    HW241605   1.559   3.984  20.390
 9993SOL     OW41606   3.771   3.916  24.226
 9993SOL    HW141607   3.828   3.962  24.288
 9993SOL    HW241608   3.803   3.826  24.225
 9994SOL     OW41609   3.443   2.739   7.818
 9994SOL    HW141610   3.394   2.761   7.738
 9994SOL    HW241611   3.389   2.674   7.862
 9995SOL     OW41612   1.739   3.045  27.365
 9995SOL    HW141613   1.769   3.083  27.447
 9995SOL    HW241614   1.663   3.098  27.340
 9996SOL     OW41615   0.682   4.709  24.806
 9996SOL    HW141616   0.592   4.739  24.789
 9996SOL    HW241617   0.735   0.007  24.800
 9997SOL     OW41618   0.439   0.638   6.649
 9997SOL    HW141619   0.400   0.572   6.591
 9997SOL    HW241620   0.478   0.702   6.589
 9998SOL     OW41621   4.356   1.936   2.114
 9998SOL    HW141622   4.288   1.869   2.105
 9998SOL    HW241623   4.427   1.906   2.057
 9999SOL     OW41624   4.416   4.747   8.770
 9999SOL    HW141625   4.471   4.768   8.846
 9999SOL    HW241626   4.387   0.052   8.738
10000SOL     OW41627   3.642   1.406   0.322
10000SOL    HW141628   3.605   1.318   0.330
10000SOL    HW241629   3.599   1.444   0.245
10001SOL     OW41630   3.974   3.092  11.609
10001SOL    HW141631   3.919   3.129  11.678
10001SOL    HW241632   4.062   3.091  11.646
10002SOL     OW41633   3.078   2.059  11.171
10002SOL    HW141634   3.131   2.096  11.242
10002SOL    HW241635   3.138   2.003  11.123
10003SOL     OW41636   0.780   0.662   6.015
10003SOL    HW141637   0.693   0.668   6.053
10003SOL    HW241638   0.783   0.731   5.950
10004SOL     OW41639   1.072   4.200   0.022
10004SOL    HW141640   1.013   4.266  28.507
10004SOL    HW241641   1.095   4.234   0.108
10005SOL     OW41642   0.741   1.207  25.737
10005SOL    HW141643   0.707   1.275  25.678
10005SOL    HW241644   0.692   1.128  25.712
10006SOL     OW41645   1.797   2.504  21.957
10006SOL    HW141646   1.882   2.516  21.999
10006SOL    HW241647   1.764   2.422  21.994
10007SOL     OW41648   3.395   4.193  23.388
10007SOL    HW141649   3.371   4.256  23.320
10007SOL    HW241650   3.455   4.132  23.343
10008SOL     OW41651   1.332   4.432  21.409
10008SOL    HW141652   1.302   4.399  21.324
10008SOL    HW241653   1.274   4.506  21.428
10009SOL     OW41654   3.797   4.535  23.588
10009SOL    HW141655   3.847   4.587  23.526
10009SOL    HW241656   3.707   4.568  23.581
10010SOL     OW41657   3.423   0.601   6.019
10010SOL    HW141658   3.374   0.661   5.962
10010SOL    HW241659   3.386   0.614   6.106
10011SOL     OW41660   0.722   2.477   6.248
10011SOL    HW141661   0.779   2.457   6.322
10011SOL    HW241662   0.639   2.504   6.288
10012SOL     OW41663   3.521   2.325   1.160
10012SOL    HW141664   3.515   2.278   1.077
10012SOL    HW241665   3.430   2.339   1.187
10013SOL     OW41666   0.251   4.544   6.198
10013SOL    HW141667   0.198   4.517   6.274
10013SOL    HW241668   0.198   4.517   6.122
10014SOL     OW41669   4.290   1.079  18.750
10014SOL    HW141670   4.196   1.100  18.754
10014SOL    HW241671   4.316   1.065  18.841
10015SOL     OW41672   0.830   0.645   7.553
10015SOL    HW141673   0.784   0.562   7.541
10015SOL    HW241674   0.839   0.680   7.465
10016SOL     OW41675   0.350   3.800  28.145
10016SOL    HW141676   0.443   3.820  28.142
10016SOL    HW241677   0.310   3.861  28.083
10017SOL     OW41678   1.834   3.250  22.117
10017SOL    HW141679   1.837   3.158  22.090
10017SOL    HW241680   1.923   3.269  22.147
10018SOL     OW41681   3.928   2.474  22.980
10018SOL    HW141682   3.932   2.472  22.884
10018SOL    HW241683   4.013   2.508  23.008
10019SOL     OW41684   0.236   2.896   9.161
10019SOL    HW141685   0.175   2.846   9.107
10019SOL    HW241686   0.289   2.945   9.098
10020SOL     OW41687   3.805   4.639  17.340
10020SOL    HW141688   3.877   4.585  17.306
10020SOL    HW241689   3.766   4.587  17.409
10021SOL     OW41690   2.802   0.197   4.169
10021SOL    HW141691   2.885   0.212   4.123
10021SOL    HW241692   2.736   0.208   4.101
10022SOL     OW41693   3.215   1.642  25.792
10022SOL    HW141694   3.255   1.619  25.876
10022SOL    HW241695   3.235   1.568  25.735
10023SOL     OW41696   2.127   2.764  26.279
10023SOL    HW141697   2.188   2.692  26.294
10023SOL    HW241698   2.155   2.802  26.195
10024SOL     OW41699   4.274   2.643  18.302
10024SOL    HW141700   4.293   2.704  18.231
10024SOL    HW241701   4.193   2.599  18.276
10025SOL     OW41702   2.895   4.776  27.954
10025SOL    HW141703   2.940   0.032  27.878
10025SOL    HW241704   2.844   0.067  27.990
10026SOL     OW41705   1.983   0.938  19.450
10026SOL    HW141706   2.043   1.011  19.438
10026SOL    HW241707   2.026   0.881  19.513
10027SOL     OW41708   4.604   3.974  10.029
10027SOL    HW141709   4.531   4.000  10.085
10027SOL    HW241710   4.663   3.927  10.088
10028SOL     OW41711   3.438   3.432   1.610
10028SOL    HW141712   3.532   3.443   1.625
10028SOL    HW241713   3.397   3.506   1.655
10029SOL     OW41714   0.301   0.353   3.454
10029SOL    HW141715   0.367   0.284   3.447
10029SOL    HW241716   0.293   0.370   3.547
10030SOL     OW41717   3.228   1.028  22.062
10030SOL    HW141718   3.236   0.990  22.149
10030SOL    HW241719   3.268   1.115  22.069
10031SOL     OW41720   2.853   1.705   6.322
10031SOL    HW141721   2.840   1.610   6.333
10031SOL    HW241722   2.904   1.731   6.398
10032SOL     OW41723   0.037   0.546   7.181
10032SOL    HW141724   0.069   0.605   7.113
10032SOL    HW241725   4.744   0.500   7.140
10033SOL     OW41726   2.433   4.564   6.841
10033SOL    HW141727   2.481   4.489   6.807
10033SOL    HW241728   2.458   4.637   6.784
10034SOL     OW41729   1.514   2.734   2.918
10034SOL    HW141730   1.444   2.670   2.909
10034SOL    HW241731   1.483   2.796   2.985
10035SOL     OW41732   3.885   4.352   6.221
10035SOL    HW141733   3.879   4.427   6.279
10035SOL    HW241734   3.968   4.310   6.244
10036SOL     OW41735   4.366   3.660  24.088
10036SOL    HW141736   4.365   3.574  24.128
10036SOL    HW241737   4.416   3.649  24.007
10037SOL     OW41738   0.791   1.737   3.943
10037SOL    HW141739   0.777   1.694   3.859
10037SOL    HW241740   0.791   1.830   3.923
10038SOL     OW41741   3.954   1.824   5.133
10038SOL    HW141742   3.905   1.882   5.076
10038SOL    HW241743   3.953   1.739   5.088
10039SOL     OW41744   3.035   2.379   2.767
10039SOL    HW141745   3.059   2.462   2.809
10039SOL    HW241746   3.119   2.341   2.742
10040SOL     OW41747   3.046   2.349  18.287
10040SOL    HW141748   3.013   2.432  18.255
10040SOL    HW241749   3.099   2.372  18.364
10041SOL     OW41750   2.713   2.856   1.292
10041SOL    HW141751   2.794   2.900   1.318
10041SOL    HW241752   2.701   2.882   1.200
10042SOL     OW41753   0.982   1.867  21.073
10042SOL    HW141754   0.951   1.908  21.154
10042SOL    HW241755   1.006   1.778  21.099
10043SOL     OW41756   0.583   2.372  25.927
10043SOL    HW141757   0.665   2.340  25.964
10043SOL    HW241758   0.605   2.396  25.837
10044SOL     OW41759   0.755   0.116  27.556
10044SOL    HW141760   0.694   0.110  27.629
10044SOL    HW241761   0.720   0.056  27.490
10045SOL     OW41762   2.746   2.468   5.759
10045SOL    HW141763   2.750   2.518   5.840
10045SOL    HW241764   2.659   2.429   5.759
10046SOL     OW41765   0.400   3.306  26.040
10046SOL    HW141766   0.441   3.227  26.074
10046SOL    HW241767   0.473   3.363  26.017
10047SOL     OW41768   4.677   0.412  21.293
10047SOL    HW141769   4.749   0.431  21.353
10047SOL    HW241770   4.720   0.374  21.216
10048SOL     OW41771   0.547   0.185  21.594
10048SOL    HW141772   0.527   0.119  21.527
10048SOL    HW241773   0.461   0.216  21.623
10049SOL     OW41774   1.530   1.059  27.147
10049SOL    HW141775   1.506   1.048  27.055
10049SOL    HW241776   1.622   1.031  27.150
10050SOL     OW41777   2.837   2.932   6.438
10050SOL    HW141778   2.814   2.901   6.351
10050SOL    HW241779   2.864   3.023   6.426
10051SOL     OW41780   3.232   1.724  23.053
10051SOL    HW141781   3.238   1.629  23.044
10051SOL    HW241782   3.281   1.759  22.979
10052SOL     OW41783   2.851   0.648  21.668
10052SOL    HW141784   2.907   0.619  21.595
10052SOL    HW241785   2.792   0.574  21.683
10053SOL     OW41786   3.219   3.632  25.649
10053SOL    HW141787   3.312   3.647  25.661
10053SOL    HW241788   3.214   3.547  25.605
10054SOL     OW41789   0.470   2.260   1.754
10054SOL    HW141790   0.379   2.278   1.728
10054SOL    HW241791   0.521   2.328   1.710
10055SOL     OW41792   1.437   3.093  20.034
10055SOL    HW141793   1.367   3.037  20.067
10055SOL    HW241794   1.483   3.038  19.971
10056SOL     OW41795   1.992   0.404   0.172
10056SOL    HW141796   2.062   0.468   0.190
10056SOL    HW241797   2.008   0.376   0.082
10057SOL     OW41798   1.899   1.576  26.386
10057SOL    HW141799   1.954   1.638  26.434
10057SOL    HW241800   1.919   1.591  26.294
10058SOL     OW41801   0.800   2.686   3.226
10058SOL    HW141802   0.880   2.660   3.271
10058SOL    HW241803   0.825   2.690   3.133
10059SOL     OW41804   4.721   1.101   1.077
10059SOL    HW141805   4.691   1.178   1.125
10059SOL    HW241806   4.651   1.036   1.090
10060SOL     OW41807   2.951   4.010  27.737
10060SOL    HW141808   2.856   4.015  27.744
10060SOL    HW241809   2.969   4.014  27.643
10061SOL     OW41810   1.907   2.203  25.586
10061SOL    HW141811   1.846   2.233  25.653
10061SOL    HW241812   1.863   2.129  25.544
10062SOL     OW41813   2.798   3.932   5.789
10062SOL    HW141814   2.824   3.850   5.831
10062SOL    HW241815   2.866   3.995   5.814
10063SOL     OW41816   4.205   4.727   7.347
10063SOL    HW141817   4.232   0.037   7.353
10063SOL    HW241818   4.267   4.680   7.402
10064SOL     OW41819   3.653   0.314  25.198
10064SOL    HW141820   3.731   0.288  25.248
10064SOL    HW241821   3.686   0.376  25.133
10065SOL     OW41822   3.418   1.192   4.543
10065SOL    HW141823   3.349   1.138   4.582
10065SOL    HW241824   3.466   1.132   4.487
10066SOL     OW41825   0.652   1.285   0.597
10066SOL    HW141826   0.637   1.355   0.660
10066SOL    HW241827   0.726   1.316   0.544
10067SOL     OW41828   4.542   1.559  19.734
10067SOL    HW141829   4.520   1.556  19.827
10067SOL    HW241830   4.501   1.481  19.697
10068SOL     OW41831   3.333   0.858   9.385
10068SOL    HW141832   3.302   0.942   9.421
10068SOL    HW241833   3.278   0.844   9.308
10069SOL     OW41834   2.849   4.557   7.035
10069SOL    HW141835   2.914   4.496   6.997
10069SOL    HW241836   2.901   4.617   7.087
10070SOL     OW41837   4.186   4.473  26.193
10070SOL    HW141838   4.173   4.537  26.123
10070SOL    HW241839   4.097   4.454  26.224
10071SOL     OW41840   1.174   4.184   9.197
10071SOL    HW141841   1.079   4.195   9.190
10071SOL    HW241842   1.197   4.125   9.125
10072SOL     OW41843   0.422   1.876  22.927
10072SOL    HW141844   0.477   1.943  22.969
10072SOL    HW241845   0.346   1.868  22.984
10073SOL     OW41846   2.364   1.749  28.273
10073SOL    HW141847   2.275   1.741  28.306
10073SOL    HW241848   2.373   1.841  28.249
10074SOL     OW41849   2.204   0.451   2.608
10074SOL    HW141850   2.291   0.429   2.642
10074SOL    HW241851   2.158   0.367   2.604
10075SOL     OW41852   4.166   0.010   8.608
10075SOL    HW141853   4.179   0.073   8.679
10075SOL    HW241854   4.246   4.738   8.608
10076SOL     OW41855   4.551   3.726   0.261
10076SOL    HW141856   4.577   3.818   0.259
10076SOL    HW241857   4.471   3.725   0.313
10077SOL     OW41858   3.509   1.678  18.717
10077SOL    HW141859   3.423   1.698  18.680
10077SOL    HW241860   3.551   1.763  18.727
10078SOL     OW41861   0.648   0.277   8.714
10078SOL    HW141862   0.677   0.348   8.657
10078SOL    HW241863   0.670   0.197   8.667
10079SOL     OW41864   1.498   1.634   4.355
10079SOL    HW141865   1.495   1.611   4.262
10079SOL    HW241866   1.447   1.566   4.398
10080SOL     OW41867   0.099   2.726  20.210
10080SOL    HW141868   0.085   2.779  20.288
10080SOL    HW241869   0.012   2.700  20.183
10081SOL     OW41870   3.039   4.392   6.939
10081SOL    HW141871   3.092   4.407   6.861
10081SOL    HW241872   3.103   4.375   7.009
10082SOL     OW41873   0.482   4.565  26.088
10082SOL    HW141874   0.543   4.628  26.126
10082SOL    HW241875   0.493   4.573  25.994
10083SOL     OW41876   4.106   1.035   0.734
10083SOL    HW141877   4.195   1.012   0.761
10083SOL    HW241878   4.053   0.959   0.756
10084SOL     OW41879   3.734   0.013   8.241
10084SOL    HW141880   3.755   4.722   8.181
10084SOL    HW241881   3.805   0.012   8.305
10085SOL     OW41882   2.694   4.022  26.340
10085SOL    HW141883   2.721   4.053  26.253
10085SOL    HW241884   2.717   4.094  26.399
10086SOL     OW41885   1.867   4.579   6.247
10086SOL    HW141886   1.957   4.565   6.276
10086SOL    HW241887   1.847   4.502   6.193
10087SOL     OW41888   1.628   2.595  20.502
10087SOL    HW141889   1.579   2.654  20.445
10087SOL    HW241890   1.676   2.653  20.560
10088SOL     OW41891   4.140   0.508  27.466
10088SOL    HW141892   4.069   0.446  27.452
10088SOL    HW241893   4.210   0.478  27.408
10089SOL     OW41894   1.765   3.590   5.934
10089SOL    HW141895   1.783   3.632   6.018
10089SOL    HW241896   1.673   3.565   5.939
10090SOL     OW41897   2.935   1.376   0.134
10090SOL    HW141898   3.013   1.348   0.085
10090SOL    HW241899   2.964   1.453   0.183
10091SOL     OW41900   3.197   0.619  27.837
10091SOL    HW141901   3.186   0.530  27.870
10091SOL    HW241902   3.192   0.610  27.741
10092SOL     OW41903   3.035   0.958   2.031
10092SOL    HW141904   2.973   0.966   2.104
10092SOL    HW241905   2.996   0.891   1.975
10093SOL     OW41906   4.707   0.532  19.034
10093SOL    HW141907   4.721   0.513  18.942
10093SOL    HW241908   4.622   0.577  19.038
10094SOL     OW41909   3.514   2.231   8.649
10094SOL    HW141910   3.484   2.322   8.649
10094SOL    HW241911   3.567   2.224   8.728
10095SOL     OW41912   4.585   1.227  21.158
10095SOL    HW141913   4.650   1.185  21.102
10095SOL    HW241914   4.591   1.320  21.136
10096SOL     OW41915   4.532   0.173  25.875
10096SOL    HW141916   4.622   0.154  25.847
10096SOL    HW241917   4.480   0.102  25.837
10097SOL     OW41918   1.184   2.595  24.924
10097SOL    HW141919   1.220   2.564  24.841
10097SOL    HW241920   1.096   2.626  24.901
10098SOL     OW41921   2.104   2.106  28.257
10098SOL    HW141922   2.120   2.200  28.242
10098SOL    HW241923   2.023   2.104  28.308
10099SOL     OW41924   2.251   2.844  20.062
10099SOL    HW141925   2.273   2.774  20.000
10099SOL    HW241926   2.175   2.811  20.110
10100SOL     OW41927   2.595   0.624  27.168
10100SOL    HW141928   2.632   0.643  27.082
10100SOL    HW241929   2.585   0.529  27.171
10101SOL     OW41930   2.898   3.981   1.682
10101SOL    HW141931   2.980   3.996   1.729
10101SOL    HW241932   2.922   3.987   1.590
10102SOL     OW41933   1.435   0.532  10.087
10102SOL    HW141934   1.427   0.607  10.146
10102SOL    HW241935   1.524   0.538  10.052
10103SOL     OW41936   0.837   0.461  22.472
10103SOL    HW141937   0.917   0.408  22.469
10103SOL    HW241938   0.768   0.401  22.443
10104SOL     OW41939   4.343   2.046   8.901
10104SOL    HW141940   4.398   2.036   8.824
10104SOL    HW241941   4.305   2.134   8.892
10105SOL     OW41942   1.209   0.383   3.366
10105SOL    HW141943   1.226   0.442   3.292
10105SOL    HW241944   1.161   0.437   3.428
10106SOL     OW41945   2.881   4.213  19.448
10106SOL    HW141946   2.831   4.295  19.445
10106SOL    HW241947   2.927   4.210  19.364
10107SOL     OW41948   2.821   2.374  22.569
10107SOL    HW141949   2.815   2.438  22.498
10107SOL    HW241950   2.874   2.416  22.636
10108SOL     OW41951   4.172   3.002  24.288
10108SOL    HW141952   4.143   3.083  24.245
10108SOL    HW241953   4.220   3.032  24.365
10109SOL     OW41954   4.416   2.741   1.425
10109SOL    HW141955   4.354   2.794   1.473
10109SOL    HW241956   4.372   2.721   1.342
10110SOL     OW41957   0.651   2.032   6.665
10110SOL    HW141958   0.566   2.062   6.633
10110SOL    HW241959   0.707   2.031   6.587
10111SOL     OW41960   1.682   0.438   4.902
10111SOL    HW141961   1.692   0.525   4.942
10111SOL    HW241962   1.615   0.395   4.955
10112SOL     OW41963   2.058   4.244  27.208
10112SOL    HW141964   2.112   4.181  27.255
10112SOL    HW241965   2.105   4.327  27.216
10113SOL     OW41966   0.963   4.022   3.249
10113SOL    HW141967   0.875   4.019   3.212
10113SOL    HW241968   1.018   3.976   3.185
10114SOL     OW41969   4.278   1.361  21.167
10114SOL    HW141970   4.291   1.440  21.115
10114SOL    HW241971   4.272   1.392  21.257
10115SOL     OW41972   4.221   0.795   2.865
10115SOL    HW141973   4.126   0.806   2.872
10115SOL    HW241974   4.239   0.802   2.772
10116SOL     OW41975   4.090   4.441  25.319
10116SOL    HW141976   4.000   4.454  25.350
10116SOL    HW241977   4.109   4.519  25.267
10117SOL     OW41978   4.652   3.028   9.110
10117SOL    HW141979   4.612   2.947   9.142
10117SOL    HW241980   4.745   3.018   9.130
10118SOL     OW41981   2.388   1.524   8.975
10118SOL    HW141982   2.393   1.493   9.065
10118SOL    HW241983   2.302   1.566   8.968
10119SOL     OW41984   4.157   3.611   7.221
10119SOL    HW141985   4.124   3.609   7.131
10119SOL    HW241986   4.216   3.536   7.227
10120SOL     OW41987   1.492   1.442   6.930
10120SOL    HW141988   1.483   1.378   7.000
10120SOL    HW241989   1.533   1.518   6.971
10121SOL     OW41990   0.385   2.377  21.630
10121SOL    HW141991   0.468   2.337  21.654
10121SOL    HW241992   0.403   2.422  21.547
10122SOL     OW41993   1.499   3.300   8.015
10122SOL    HW141994   1.443   3.373   8.042
10122SOL    HW241995   1.523   3.322   7.925
10123SOL     OW41996   4.361   2.498   8.074
10123SOL    HW141997   4.375   2.593   8.066
10123SOL    HW241998   4.449   2.461   8.066
10124SOL     OW41999   4.019   3.743   8.068
10124SOL    HW142000   3.959   3.784   8.006
10124SOL    HW242001   3.962   3.693   8.126
10125SOL     OW42002   3.488   0.365   1.085
10125SOL    HW142003   3.437   0.296   1.128
10125SOL    HW242004   3.430   0.440   1.081
10126SOL     OW42005   1.744   1.964   0.752
10126SOL    HW142006   1.673   1.911   0.790
10126SOL    HW242007   1.703   2.048   0.732
10127SOL     OW42008   4.071   2.882   1.183
10127SOL    HW142009   4.059   2.970   1.218
10127SOL    HW242010   3.989   2.863   1.137
10128SOL     OW42011   1.582   3.630  23.232
10128SOL    HW142012   1.495   3.639  23.193
10128SOL    HW242013   1.641   3.629  23.157
10129SOL     OW42014   4.226   1.086   8.389
10129SOL    HW142015   4.185   1.032   8.322
10129SOL    HW242016   4.254   1.024   8.457
10130SOL     OW42017   4.514   2.838  21.014
10130SOL    HW142018   4.553   2.869  21.096
10130SOL    HW242019   4.473   2.916  20.977
10131SOL     OW42020   1.892   2.636   7.020
10131SOL    HW142021   1.907   2.707   7.083
10131SOL    HW242022   1.980   2.600   7.004
10132SOL     OW42023   2.340   1.781   3.284
10132SOL    HW142024   2.355   1.730   3.205
10132SOL    HW242025   2.387   1.863   3.269
10133SOL     OW42026   0.027   2.778   9.023
10133SOL    HW142027   4.780   2.695   9.062
10133SOL    HW242028   4.750   2.790   8.947
10134SOL     OW42029   0.583   4.646  19.740
10134SOL    HW142030   0.542   4.590  19.675
10134SOL    HW242031   0.529   4.725  19.742
10135SOL     OW42032   0.491   1.047   2.813
10135SOL    HW142033   0.502   1.105   2.739
10135SOL    HW242034   0.403   1.067   2.847
10136SOL     OW42035   4.136   2.461   2.494
10136SOL    HW142036   4.069   2.500   2.439
10136SOL    HW242037   4.154   2.527   2.561
10137SOL     OW42038   2.612   2.790   5.921
10137SOL    HW142039   2.632   2.802   5.828
10137SOL    HW242040   2.517   2.782   5.924
10138SOL     OW42041   0.105   4.433  28.305
10138SOL    HW142042   0.163   4.470  28.239
10138SOL    HW242043   0.089   4.344  28.276
10139SOL     OW42044   0.591   3.610   7.143
10139SOL    HW142045   0.562   3.542   7.081
10139SOL    HW242046   0.511   3.641   7.184
10140SOL     OW42047   4.579   2.896  22.012
10140SOL    HW142048   4.651   2.863  22.067
10140SOL    HW242049   4.531   2.818  21.986
10141SOL     OW42050   1.825   2.509   8.357
10141SOL    HW142051   1.787   2.422   8.369
10141SOL    HW242052   1.767   2.551   8.293
10142SOL     OW42053   2.183   3.917   5.382
10142SOL    HW142054   2.251   3.974   5.345
10142SOL    HW242055   2.215   3.828   5.364
10143SOL     OW42056   3.188   3.380  27.756
10143SOL    HW142057   3.190   3.307  27.694
10143SOL    HW242058   3.110   3.430  27.732
10144SOL     OW42059   1.134   1.005  21.138
10144SOL    HW142060   1.129   1.072  21.206
10144SOL    HW242061   1.043   0.984  21.118
10145SOL     OW42062   2.423   2.032   3.520
10145SOL    HW142063   2.395   2.026   3.429
10145SOL    HW242064   2.509   1.989   3.521
10146SOL     OW42065   1.015   2.706  20.512
10146SOL    HW142066   1.070   2.650  20.457
10146SOL    HW242067   1.027   2.673  20.600
10147SOL     OW42068   1.819   0.693   6.269
10147SOL    HW142069   1.752   0.656   6.327
10147SOL    HW242070   1.863   0.617   6.231
10148SOL     OW42071   3.520   2.308   9.049
10148SOL    HW142072   3.496   2.378   8.989
10148SOL    HW242073   3.450   2.308   9.114
10149SOL     OW42074   2.697   2.304  20.851
10149SOL    HW142075   2.708   2.245  20.776
10149SOL    HW242076   2.716   2.391  20.815
10150SOL     OW42077   0.558   0.586   1.692
10150SOL    HW142078   0.485   0.524   1.683
10150SOL    HW242079   0.637   0.532   1.686
10151SOL     OW42080   3.857   0.304  22.459
10151SOL    HW142081   3.849   0.216  22.494
10151SOL    HW242082   3.951   0.321  22.456
10152SOL     OW42083   1.993   1.122   1.046
10152SOL    HW142084   2.008   1.065   1.121
10152SOL    HW242085   1.938   1.193   1.080
10153SOL     OW42086   3.773   2.202   2.169
10153SOL    HW142087   3.735   2.116   2.181
10153SOL    HW242088   3.820   2.219   2.251
10154SOL     OW42089   4.411   1.544  11.110
10154SOL    HW142090   4.415   1.485  11.186
10154SOL    HW242091   4.318   1.561  11.097
10155SOL     OW42092   3.762   0.860   8.106
10155SOL    HW142093   3.790   0.868   8.197
10155SOL    HW242094   3.844   0.861   8.056
10156SOL     OW42095   0.005   4.675   8.691
10156SOL    HW142096   4.725   4.602   8.692
10156SOL    HW242097   0.003   4.711   8.779
10157SOL     OW42098   2.599   2.124  26.627
10157SOL    HW142099   2.623   2.032  26.615
10157SOL    HW242100   2.675   2.173  26.595
10158SOL     OW42101   4.659   1.648   4.521
10158SOL    HW142102   4.610   1.566   4.510
10158SOL    HW242103   4.596   1.716   4.498
10159SOL     OW42104   3.056   3.528  24.785
10159SOL    HW142105   3.015   3.554  24.702
10159SOL    HW242106   3.032   3.436  24.795
10160SOL     OW42107   4.486   0.191   6.743
10160SOL    HW142108   4.459   0.230   6.826
10160SOL    HW242109   4.495   0.265   6.683
10161SOL     OW42110   1.961   1.150  11.037
10161SOL    HW142111   1.993   1.237  11.059
10161SOL    HW242112   1.955   1.149  10.942
10162SOL     OW42113   3.862   2.148  12.171
10162SOL    HW142114   3.868   2.064  12.216
10162SOL    HW242115   3.806   2.201  12.228
10163SOL     OW42116   3.163   2.469   0.818
10163SOL    HW142117   3.140   2.540   0.757
10163SOL    HW242118   3.221   2.511   0.882
10164SOL     OW42119   2.494   2.068  23.572
10164SOL    HW142120   2.530   2.144  23.617
10164SOL    HW242121   2.405   2.095  23.547
10165SOL     OW42122   4.566   1.038   6.679
10165SOL    HW142123   4.483   0.995   6.656
10165SOL    HW242124   4.608   1.055   6.595
10166SOL     OW42125   0.048   4.454  26.186
10166SOL    HW142126   0.007   4.514  26.124
10166SOL    HW242127   0.023   4.487  26.273
10167SOL     OW42128   3.960   1.443  21.359
10167SOL    HW142129   3.920   1.418  21.275
10167SOL    HW242130   3.895   1.501  21.399
10168SOL     OW42131   2.243   2.535   6.485
10168SOL    HW142132   2.195   2.609   6.449
10168SOL    HW242133   2.188   2.459   6.466
10169SOL     OW42134   4.516   0.905   7.470
10169SOL    HW142135   4.607   0.893   7.446
10169SOL    HW242136   4.516   0.982   7.528
10170SOL     OW42137   3.011   0.205  20.452
10170SOL    HW142138   3.035   0.162  20.533
10170SOL    HW242139   3.086   0.191  20.394
10171SOL     OW42140   2.879   4.539  25.711
10171SOL    HW142141   2.831   4.457  25.703
10171SOL    HW242142   2.971   4.513  25.717
10172SOL     OW42143   3.546   2.871   3.854
10172SOL    HW142144   3.617   2.889   3.793
10172SOL    HW242145   3.565   2.784   3.889
10173SOL     OW42146   4.770   3.850  26.805
10173SOL    HW142147   4.729   3.769  26.836
10173SOL    HW242148   0.015   3.896  26.885
10174SOL     OW42149   3.684   4.317   4.149
10174SOL    HW142150   3.588   4.327   4.149
10174SOL    HW242151   3.697   4.222   4.138
10175SOL     OW42152   2.711   2.892   7.602
10175SOL    HW142153   2.738   2.961   7.662
10175SOL    HW242154   2.776   2.893   7.532
10176SOL     OW42155   2.521   2.741   7.473
10176SOL    HW142156   2.573   2.693   7.408
10176SOL    HW242157   2.583   2.802   7.513
10177SOL     OW42158   0.503   2.723   1.316
10177SOL    HW142159   0.518   2.688   1.403
10177SOL    HW242160   0.502   2.818   1.328
10178SOL     OW42161   1.810   0.401  12.205
10178SOL    HW142162   1.879   0.436  12.262
10178SOL    HW242163   1.809   0.307  12.223
10179SOL     OW42164   2.682   0.546  11.480
10179SOL    HW142165   2.634   0.625  11.457
10179SOL    HW242166   2.692   0.551  11.575
10180SOL     OW42167   1.923   2.888  25.592
10180SOL    HW142168   1.954   2.968  25.635
10180SOL    HW242169   1.981   2.819  25.625
10181SOL     OW42170   4.104   1.873   9.410
10181SOL    HW142171   4.131   1.964   9.400
10181SOL    HW242172   4.013   1.878   9.440
10182SOL     OW42173   0.644   1.240   6.525
10182SOL    HW142174   0.689   1.248   6.608
10182SOL    HW242175   0.699   1.181   6.473
10183SOL     OW42176   4.633   3.430  22.541
10183SOL    HW142177   4.697   3.499  22.524
10183SOL    HW242178   4.680   3.349  22.522
10184SOL     OW42179   1.559   4.038   2.458
10184SOL    HW142180   1.555   3.944   2.443
10184SOL    HW242181   1.523   4.077   2.378
10185SOL     OW42182   2.456   3.880   0.794
10185SOL    HW142183   2.374   3.905   0.751
10185SOL    HW242184   2.505   3.962   0.801
10186SOL     OW42185   2.230   2.081  19.043
10186SOL    HW142186   2.156   2.093  19.103
10186SOL    HW242187   2.303   2.056  19.099
10187SOL     OW42188   1.749   2.737  25.876
10187SOL    HW142189   1.808   2.728  25.801
10187SOL    HW242190   1.763   2.658  25.927
10188SOL     OW42191   3.767   0.256  24.518
10188SOL    HW142192   3.785   0.167  24.489
10188SOL    HW242193   3.749   0.247  24.612
10189SOL     OW42194   1.701   1.893   4.938
10189SOL    HW142195   1.656   1.970   4.972
10189SOL    HW242196   1.639   1.856   4.875
10190SOL     OW42197   3.910   4.057  22.027
10190SOL    HW142198   3.883   4.148  22.017
10190SOL    HW242199   3.985   4.060  22.085
10191SOL     OW42200   2.982   2.082  26.472
10191SOL    HW142201   3.001   2.136  26.548
10191SOL    HW242202   2.921   2.015  26.504
10192SOL     OW42203   0.091   0.251   3.321
10192SOL    HW142204   0.104   0.255   3.227
10192SOL    HW242205   0.165   0.299   3.358
10193SOL     OW42206   4.002   4.708  24.738
10193SOL    HW142207   3.987   0.005  24.792
10193SOL    HW242208   4.065   4.737  24.672
10194SOL     OW42209   2.609   4.242   5.962
10194SOL    HW142210   2.548   4.228   6.035
10194SOL    HW242211   2.688   4.277   6.004
10195SOL     OW42212   0.667   1.490   2.290
10195SOL    HW142213   0.744   1.502   2.346
10195SOL    HW242214   0.639   1.400   2.309
10196SOL     OW42215   1.531   1.769   4.753
10196SOL    HW142216   1.554   1.679   4.774
10196SOL    HW242217   1.436   1.772   4.764
10197SOL     OW42218   0.897   3.812   7.088
10197SOL    HW142219   0.974   3.774   7.129
10197SOL    HW242220   0.879   3.891   7.139
10198SOL     OW42221   1.234   3.963   4.920
10198SOL    HW142222   1.245   3.869   4.909
10198SOL    HW242223   1.268   4.001   4.839
10199SOL     OW42224   2.024   4.359   0.972
10199SOL    HW142225   1.974   4.361   1.054
10199SOL    HW242226   1.969   4.308   0.912
10200SOL     OW42227   0.104   4.658  23.502
10200SOL    HW142228   0.041   4.695  23.563
10200SOL    HW242229   0.057   4.649  23.420
10201SOL     OW42230   4.214   1.062  28.098
10201SOL    HW142231   4.301   1.045  28.062
10201SOL    HW242232   4.176   1.128  28.040
10202SOL     OW42233   0.910   0.065   1.402
10202SOL    HW142234   0.848   0.041   1.470
10202SOL    HW242235   0.861   0.057   1.320
10203SOL     OW42236   0.694   4.063  23.227
10203SOL    HW142237   0.600   4.058  23.208
10203SOL    HW242238   0.709   3.998  23.295
10204SOL     OW42239   2.041   3.169   6.110
10204SOL    HW142240   1.960   3.118   6.114
10204SOL    HW242241   2.102   3.122   6.166
10205SOL     OW42242   0.999   0.978  13.295
10205SOL    HW142243   1.092   0.980  13.271
10205SOL    HW242244   0.988   0.894  13.339
10206SOL     OW42245   0.167   4.468   4.209
10206SOL    HW142246   0.122   4.460   4.125
10206SOL    HW242247   0.117   4.412   4.269
10207SOL     OW42248   2.937   1.992  27.848
10207SOL    HW142249   2.906   1.905  27.870
10207SOL    HW242250   2.949   1.991  27.753
10208SOL     OW42251   2.088   1.196  25.663
10208SOL    HW142252   2.118   1.122  25.716
10208SOL    HW242253   2.003   1.168  25.629
10209SOL     OW42254   1.583   2.970   5.149
10209SOL    HW142255   1.650   2.926   5.096
10209SOL    HW242256   1.627   2.989   5.232
10210SOL     OW42257   2.668   2.756   5.040
10210SOL    HW142258   2.708   2.699   5.106
10210SOL    HW242259   2.732   2.759   4.969
10211SOL     OW42260   0.599   0.550   0.842
10211SOL    HW142261   0.641   0.583   0.762
10211SOL    HW242262   0.662   0.487   0.878
10212SOL     OW42263   1.080   3.725  26.300
10212SOL    HW142264   1.086   3.776  26.219
10212SOL    HW242265   1.003   3.670  26.287
10213SOL     OW42266   0.346   3.021  25.539
10213SOL    HW142267   0.262   2.978  25.523
10213SOL    HW242268   0.322   3.109  25.570
10214SOL     OW42269   0.109   1.519  26.915
10214SOL    HW142270   0.166   1.567  26.974
10214SOL    HW242271   0.084   1.583  26.848
10215SOL     OW42272   3.678   4.344  20.646
10215SOL    HW142273   3.687   4.271  20.707
10215SOL    HW242274   3.651   4.303  20.563
10216SOL     OW42275   2.276   1.807  24.106
10216SOL    HW142276   2.201   1.849  24.147
10216SOL    HW242277   2.241   1.727  24.067
10217SOL     OW42278   1.215   2.246  27.116
10217SOL    HW142279   1.165   2.269  27.194
10217SOL    HW242280   1.306   2.252  27.143
10218SOL     OW42281   1.238   2.491   7.711
10218SOL    HW142282   1.328   2.509   7.741
10218SOL    HW242283   1.201   2.577   7.692
10219SOL     OW42284   1.554   0.112   5.926
10219SOL    HW142285   1.498   0.127   6.002
10219SOL    HW242286   1.618   0.048   5.956
10220SOL     OW42287   2.080   1.726   4.318
10220SOL    HW142288   2.017   1.762   4.380
10220SOL    HW242289   2.134   1.666   4.369
10221SOL     OW42290   0.475   2.544  11.107
10221SOL    HW142291   0.454   2.560  11.015
10221SOL    HW242292   0.545   2.606  11.127
10222SOL     OW42293   0.563   4.474  10.892
10222SOL    HW142294   0.531   4.389  10.921
10222SOL    HW242295   0.653   4.477  10.922
10223SOL     OW42296   3.856   2.148  24.846
10223SOL    HW142297   3.838   2.240  24.824
10223SOL    HW242298   3.851   2.145  24.941
10224SOL     OW42299   4.563   1.457  21.014
10224SOL    HW142300   4.493   1.503  21.060
10224SOL    HW242301   4.559   1.490  20.924
10225SOL     OW42302   3.022   1.739   3.930
10225SOL    HW142303   3.003   1.777   4.016
10225SOL    HW242304   3.117   1.726   3.931
10226SOL     OW42305   3.707   0.450  28.515
10226SOL    HW142306   3.642   0.507   0.034
10226SOL    HW242307   3.657   0.402  28.449
10227SOL     OW42308   4.702   0.102  22.074
10227SOL    HW142309   4.661   0.107  21.988
10227SOL    HW242310   4.639   0.056  22.129
10228SOL     OW42311   0.125   2.453   4.834
10228SOL    HW142312   0.157   2.368   4.804
10228SOL    HW242313   0.031   2.452   4.814
10229SOL     OW42314   3.643   4.726   1.612
10229SOL    HW142315   3.677   0.033   1.626
10229SOL    HW242316   3.633   4.690   1.700
10230SOL     OW42317   1.350   0.130   6.424
10230SOL    HW142318   1.391   0.078   6.493
10230SOL    HW242319   1.320   0.066   6.360
10231SOL     OW42320   0.945   2.076   0.059
10231SOL    HW142321   1.033   2.056   0.026
10231SOL    HW242322   0.959   2.143   0.126
10232SOL     OW42323   4.251   2.912  21.412
10232SOL    HW142324   4.171   2.863  21.392
10232SOL    HW242325   4.222   3.003  21.419
10233SOL     OW42326   0.316   0.213  24.968
10233SOL    HW142327   0.253   0.143  24.955
10233SOL    HW242328   0.291   0.281  24.905
10234SOL     OW42329   3.619   1.873   3.816
10234SOL    HW142330   3.524   1.882   3.804
10234SOL    HW242331   3.653   1.868   3.727
10235SOL     OW42332   2.403   3.435  22.358
10235SOL    HW142333   2.435   3.377  22.427
10235SOL    HW242334   2.321   3.471  22.392
10236SOL     OW42335   0.944   0.916  25.155
10236SOL    HW142336   0.862   0.892  25.112
10236SOL    HW242337   0.918   0.971  25.229
10237SOL     OW42338   0.686   3.749  23.679
10237SOL    HW142339   0.731   3.776  23.759
10237SOL    HW242340   0.731   3.669  23.652
10238SOL     OW42341   1.293   1.052  23.222
10238SOL    HW142342   1.276   1.067  23.129
10238SOL    HW242343   1.207   1.033  23.259
10239SOL     OW42344   0.633   2.657  22.337
10239SOL    HW142345   0.553   2.633  22.383
10239SOL    HW242346   0.607   2.667  22.245
10240SOL     OW42347   0.704   2.393   1.497
10240SOL    HW142348   0.646   2.469   1.491
10240SOL    HW242349   0.778   2.416   1.441
10241SOL     OW42350   2.055   2.126  24.456
10241SOL    HW142351   1.995   2.090  24.522
10241SOL    HW242352   2.124   2.061  24.448
10242SOL     OW42353   4.425   3.159  21.628
10242SOL    HW142354   4.403   3.250  21.645
10242SOL    HW242355   4.515   3.162  21.595
10243SOL     OW42356   1.522   0.958   6.057
10243SOL    HW142357   1.480   0.963   5.971
10243SOL    HW242358   1.614   0.977   6.040
10244SOL     OW42359   3.160   0.043  27.422
10244SOL    HW142360   3.219   0.007  27.356
10244SOL    HW242361   3.076   0.052  27.378
10245SOL     OW42362   0.190   2.019  21.690
10245SOL    HW142363   0.099   2.007  21.665
10245SOL    HW242364   0.187   2.036  21.784
10246SOL     OW42365   4.427   1.631   4.295
10246SOL    HW142366   4.485   1.630   4.219
10246SOL    HW242367   4.452   1.554   4.346
10247SOL     OW42368   3.371   3.984  20.732
10247SOL    HW142369   3.395   4.028  20.814
10247SOL    HW242370   3.331   4.053  20.679
10248SOL     OW42371   0.628   0.922   7.010
10248SOL    HW142372   0.606   1.000   7.062
10248SOL    HW242373   0.595   0.941   6.922
10249SOL     OW42374   3.353   4.146  27.042
10249SOL    HW142375   3.356   4.078  26.975
10249SOL    HW242376   3.418   4.119  27.107
10250SOL     OW42377   3.382   1.919   3.085
10250SOL    HW142378   3.290   1.910   3.059
10250SOL    HW242379   3.407   1.831   3.114
10251SOL     OW42380   0.889   4.691  25.119
10251SOL    HW142381   0.913   4.727  25.033
10251SOL    HW242382   0.870   4.599  25.102
10252SOL     OW42383   3.904   4.741   5.320
10252SOL    HW142384   3.929   0.018   5.249
10252SOL    HW242385   3.954   4.660   5.305
10253SOL     OW42386   0.432   1.580  19.303
10253SOL    HW142387   0.454   1.556  19.213
10253SOL    HW242388   0.470   1.511  19.356
10254SOL     OW42389   1.853   1.641  26.141
10254SOL    HW142390   1.923   1.669  26.082
10254SOL    HW242391   1.788   1.711  26.135
10255SOL     OW42392   3.934   3.792  22.704
10255SOL    HW142393   3.906   3.739  22.630
10255SOL    HW242394   4.028   3.805  22.691
10256SOL     OW42395   1.330   1.928  20.165
10256SOL    HW142396   1.251   1.881  20.139
10256SOL    HW242397   1.298   2.007  20.208
10257SOL     OW42398   1.598   3.617  24.145
10257SOL    HW142399   1.564   3.534  24.176
10257SOL    HW242400   1.652   3.650  24.217
10258SOL     OW42401   0.832   4.619  19.832
10258SOL    HW142402   0.840   4.527  19.806
10258SOL    HW242403   0.753   4.650  19.788
10259SOL     OW42404   1.126   3.013  19.962
10259SOL    HW142405   1.119   3.078  19.892
10259SOL    HW242406   1.096   3.059  20.040
10260SOL     OW42407   1.643   4.710   8.454
10260SOL    HW142408   1.578   4.712   8.524
10260SOL    HW242409   1.610   4.645   8.392
10261SOL     OW42410   4.080   3.637   2.307
10261SOL    HW142411   4.111   3.670   2.391
10261SOL    HW242412   4.160   3.612   2.260
10262SOL     OW42413   1.594   0.744  21.284
10262SOL    HW142414   1.661   0.812  21.294
10262SOL    HW242415   1.641   0.672  21.241
10263SOL     OW42416   2.835   1.233   8.197
10263SOL    HW142417   2.916   1.263   8.238
10263SOL    HW242418   2.784   1.313   8.183
10264SOL     OW42419   0.728   4.321  22.295
10264SOL    HW142420   0.733   4.228  22.272
10264SOL    HW242421   0.772   4.366  22.222
10265SOL     OW42422   1.214   3.762   0.790
10265SOL    HW142423   1.261   3.800   0.715
10265SOL    HW242424   1.164   3.690   0.752
10266SOL     OW42425   2.816   3.582   6.343
10266SOL    HW142426   2.806   3.519   6.414
10266SOL    HW242427   2.738   3.637   6.348
10267SOL     OW42428   0.520   2.940   2.071
10267SOL    HW142429   0.481   2.890   1.999
10267SOL    HW242430   0.606   2.965   2.039
10268SOL     OW42431   1.285   0.370   1.601
10268SOL    HW142432   1.260   0.315   1.526
10268SOL    HW242433   1.257   0.458   1.576
10269SOL     OW42434   3.126   1.814   8.161
10269SOL    HW142435   3.150   1.857   8.078
10269SOL    HW242436   3.204   1.764   8.185
10270SOL     OW42437   2.404   3.508   3.112
10270SOL    HW142438   2.478   3.504   3.172
10270SOL    HW242439   2.331   3.538   3.166
10271SOL     OW42440   0.762   1.664   2.936
10271SOL    HW142441   0.775   1.598   3.004
10271SOL    HW242442   0.837   1.653   2.877
10272SOL     OW42443   4.243   1.460  28.508
10272SOL    HW142444   4.279   1.418   0.063
10272SOL    HW242445   4.183   1.395  28.471
10273SOL     OW42446   3.479   4.098   3.445
10273SOL    HW142447   3.439   4.090   3.359
10273SOL    HW242448   3.422   4.048   3.503
10274SOL     OW42449   2.960   2.997   8.741
10274SOL    HW142450   3.012   3.069   8.775
10274SOL    HW242451   2.949   3.017   8.648
10275SOL     OW42452   3.398   3.542  20.122
10275SOL    HW142453   3.418   3.616  20.179
10275SOL    HW242454   3.482   3.497  20.112
10276SOL     OW42455   1.088   1.887   2.759
10276SOL    HW142456   1.131   1.842   2.686
10276SOL    HW242457   1.002   1.910   2.726
10277SOL     OW42458   3.653   4.195  21.360
10277SOL    HW142459   3.604   4.119  21.393
10277SOL    HW242460   3.658   4.181  21.266
10278SOL     OW42461   3.010   1.417   1.034
10278SOL    HW142462   3.046   1.445   0.950
10278SOL    HW242463   2.933   1.474   1.047
10279SOL     OW42464   4.495   3.952   0.758
10279SOL    HW142465   4.588   3.960   0.737
10279SOL    HW242466   4.451   4.012   0.698
10280SOL     OW42467   2.545   2.162  23.172
10280SOL    HW142468   2.561   2.094  23.238
10280SOL    HW242469   2.570   2.121  23.089
10281SOL     OW42470   2.046   2.014   3.615
10281SOL    HW142471   2.037   2.093   3.561
10281SOL    HW242472   2.118   2.035   3.675
10282SOL     OW42473   2.725   1.881   9.280
10282SOL    HW142474   2.671   1.803   9.265
10282SOL    HW242475   2.739   1.882   9.375
10283SOL     OW42476   0.929   4.295   9.268
10283SOL    HW142477   0.944   4.389   9.276
10283SOL    HW242478   0.837   4.287   9.243
10284SOL     OW42479   0.170   1.099  12.375
10284SOL    HW142480   0.077   1.086  12.394
10284SOL    HW242481   0.206   1.010  12.372
10285SOL     OW42482   0.266   0.411  27.954
10285SOL    HW142483   0.344   0.437  27.904
10285SOL    HW242484   0.208   0.372  27.889
10286SOL     OW42485   0.278   4.492   9.595
10286SOL    HW142486   0.277   4.588   9.594
10286SOL    HW242487   0.302   4.470   9.686
10287SOL     OW42488   0.968   4.634  11.693
10287SOL    HW142489   0.941   4.545  11.714
10287SOL    HW242490   1.064   4.631  11.695
10288SOL     OW42491   3.438   0.178  10.689
10288SOL    HW142492   3.501   0.249  10.702
10288SOL    HW242493   3.439   0.129  10.771
10289SOL     OW42494   4.516   1.351  28.304
10289SOL    HW142495   4.558   1.288  28.245
10289SOL    HW242496   4.476   1.297  28.372
10290SOL     OW42497   1.479   1.127  22.310
10290SOL    HW142498   1.493   1.181  22.389
10290SOL    HW242499   1.498   1.187  22.238
10291SOL     OW42500   1.530   1.769  19.094
10291SOL    HW142501   1.573   1.720  19.164
10291SOL    HW242502   1.558   1.724  19.014
10292SOL     OW42503   2.159   3.621  23.870
10292SOL    HW142504   2.143   3.704  23.914
10292SOL    HW242505   2.080   3.570  23.886
10293SOL     OW42506   2.236   4.004   1.692
10293SOL    HW142507   2.210   4.096   1.679
10293SOL    HW242508   2.164   3.954   1.653
10294SOL     OW42509   3.538   0.440   7.124
10294SOL    HW142510   3.471   0.508   7.132
10294SOL    HW242511   3.589   0.447   7.205
10295SOL     OW42512   4.283   2.675  12.401
10295SOL    HW142513   4.223   2.601  12.392
10295SOL    HW242514   4.227   2.752  12.396
10296SOL     OW42515   1.612   1.410   8.730
10296SOL    HW142516   1.606   1.350   8.655
10296SOL    HW242517   1.671   1.365   8.791
10297SOL     OW42518   1.674   2.376   2.334
10297SOL    HW142519   1.671   2.414   2.421
10297SOL    HW242520   1.733   2.433   2.284
10298SOL     OW42521   4.668   2.569  22.479
10298SOL    HW142522   4.726   2.641  22.456
10298SOL    HW242523   4.581   2.598  22.452
10299SOL     OW42524   4.223   2.312  18.693
10299SOL    HW142525   4.172   2.314  18.774
10299SOL    HW242526   4.271   2.229  18.698
10300SOL     OW42527   3.928   0.597   6.301
10300SOL    HW142528   3.871   0.673   6.303
10300SOL    HW242529   3.893   0.542   6.230
10301SOL     OW42530   4.688   0.484  24.745
10301SOL    HW142531   4.769   0.534  24.756
10301SOL    HW242532   4.624   0.547  24.713
10302SOL     OW42533   3.995   1.533  27.625
10302SOL    HW142534   4.082   1.520  27.663
10302SOL    HW242535   3.942   1.461  27.660
10303SOL     OW42536   0.658   1.369   3.599
10303SOL    HW142537   0.635   1.454   3.562
10303SOL    HW242538   0.691   1.389   3.686
10304SOL     OW42539   1.357   3.731  28.486
10304SOL    HW142540   1.427   3.733   0.029
10304SOL    HW242541   1.314   3.817  28.495
10305SOL     OW42542   3.576   1.238   8.184
10305SOL    HW142543   3.552   1.301   8.117
10305SOL    HW242544   3.631   1.287   8.245
10306SOL     OW42545   1.807   2.033  11.446
10306SOL    HW142546   1.762   2.020  11.530
10306SOL    HW242547   1.777   1.959  11.392
10307SOL     OW42548   0.569   3.412  28.429
10307SOL    HW142549   0.583   3.467  28.352
10307SOL    HW242550   0.656   3.401  28.468
10308SOL     OW42551   4.100   4.145  22.223
10308SOL    HW142552   4.189   4.116  22.204
10308SOL    HW242553   4.103   4.240  22.212
10309SOL     OW42554   3.154   1.294  23.292
10309SOL    HW142555   3.078   1.243  23.267
10309SOL    HW242556   3.145   1.306  23.387
10310SOL     OW42557   1.903   0.963   9.321
10310SOL    HW142558   1.843   0.914   9.265
10310SOL    HW242559   1.849   1.032   9.359
10311SOL     OW42560   2.103   4.174  19.905
10311SOL    HW142561   2.029   4.114  19.901
10311SOL    HW242562   2.119   4.188  19.999
10312SOL     OW42563   2.235   0.768   1.025
10312SOL    HW142564   2.201   0.728   0.945
10312SOL    HW242565   2.261   0.856   0.997
10313SOL     OW42566   2.885   3.358   6.962
10313SOL    HW142567   2.852   3.270   6.981
10313SOL    HW242568   2.975   3.358   6.993
10314SOL     OW42569   3.560   1.443  25.353
10314SOL    HW142570   3.568   1.535  25.328
10314SOL    HW242571   3.541   1.446  25.447
10315SOL     OW42572   0.911   4.233  28.223
10315SOL    HW142573   0.927   4.307  28.282
10315SOL    HW242574   0.998   4.203  28.197
10316SOL     OW42575   0.714   3.093   1.090
10316SOL    HW142576   0.760   3.045   1.159
10316SOL    HW242577   0.779   3.102   1.020
10317SOL     OW42578   1.226   3.752   9.485
10317SOL    HW142579   1.159   3.691   9.453
10317SOL    HW242580   1.267   3.787   9.406
10318SOL     OW42581   0.854   4.663   5.771
10318SOL    HW142582   0.882   4.656   5.863
10318SOL    HW242583   0.933   4.690   5.724
10319SOL     OW42584   0.962   4.332   2.500
10319SOL    HW142585   0.898   4.395   2.467
10319SOL    HW242586   0.914   4.282   2.566
10320SOL     OW42587   2.322   1.222  25.289
10320SOL    HW142588   2.315   1.222  25.193
10320SOL    HW242589   2.314   1.313  25.315
10321SOL     OW42590   4.347   2.154  27.349
10321SOL    HW142591   4.431   2.186  27.317
10321SOL    HW242592   4.333   2.202  27.431
10322SOL     OW42593   2.461   3.526  21.918
10322SOL    HW142594   2.396   3.595  21.901
10322SOL    HW242595   2.523   3.566  21.978
10323SOL     OW42596   3.458   0.406  25.403
10323SOL    HW142597   3.521   0.388  25.333
10323SOL    HW242598   3.511   0.407  25.483
10324SOL     OW42599   0.929   3.054   8.481
10324SOL    HW142600   0.992   3.062   8.410
10324SOL    HW242601   0.976   3.007   8.550
10325SOL     OW42602   0.980   3.708   8.742
10325SOL    HW142603   0.918   3.775   8.713
10325SOL    HW242604   1.066   3.743   8.717
10326SOL     OW42605   2.657   4.195   2.511
10326SOL    HW142606   2.644   4.157   2.598
10326SOL    HW242607   2.745   4.233   2.515
10327SOL     OW42608   2.927   4.353  10.325
10327SOL    HW142609   2.888   4.269  10.301
10327SOL    HW242610   2.994   4.331  10.389
10328SOL     OW42611   0.017   0.452  22.355
10328SOL    HW142612   0.111   0.446  22.339
10328SOL    HW242613   4.758   0.420  22.274
10329SOL     OW42614   3.413   2.184   7.405
10329SOL    HW142615   3.373   2.166   7.490
10329SOL    HW242616   3.501   2.147   7.412
10330SOL     OW42617   3.544   1.818  16.955
10330SOL    HW142618   3.518   1.843  16.866
10330SOL    HW242619   3.603   1.888  16.983
10331SOL     OW42620   0.633   1.371  23.660
10331SOL    HW142621   0.636   1.444  23.721
10331SOL    HW242622   0.547   1.331  23.675
10332SOL     OW42623   1.126   3.233   6.907
10332SOL    HW142624   1.037   3.220   6.875
10332SOL    HW242625   1.116   3.288   6.984
10333SOL     OW42626   1.926   0.622   4.162
10333SOL    HW142627   1.957   0.665   4.242
10333SOL    HW242628   1.972   0.666   4.091
10334SOL     OW42629   2.002   2.911  23.203
10334SOL    HW142630   2.046   2.943  23.282
10334SOL    HW242631   2.002   2.816  23.213
10335SOL     OW42632   3.892   0.161   3.740
10335SOL    HW142633   3.980   0.162   3.702
10335SOL    HW242634   3.838   0.120   3.673
10336SOL     OW42635   4.050   3.909   2.145
10336SOL    HW142636   4.134   3.876   2.176
10336SOL    HW242637   4.020   3.968   2.214
10337SOL     OW42638   2.366   3.304   4.225
10337SOL    HW142639   2.461   3.300   4.237
10337SOL    HW242640   2.333   3.226   4.269
10338SOL     OW42641   3.760   2.110  18.533
10338SOL    HW142642   3.735   2.160  18.455
10338SOL    HW242643   3.853   2.091  18.521
10339SOL     OW42644   4.615   2.494  22.987
10339SOL    HW142645   4.624   2.563  22.922
10339SOL    HW242646   4.521   2.486  23.001
10340SOL     OW42647   3.410   2.612  24.953
10340SOL    HW142648   3.410   2.530  24.904
10340SOL    HW242649   3.479   2.664  24.912
10341SOL     OW42650   1.500   4.762   8.698
10341SOL    HW142651   1.432   4.766   8.766
10341SOL    HW242652   1.467   0.038   8.628
10342SOL     OW42653   4.744   1.017   6.054
10342SOL    HW142654   4.700   1.094   6.020
10342SOL    HW242655   4.713   0.945   5.998
10343SOL     OW42656   3.021   0.475   0.181
10343SOL    HW142657   3.068   0.438   0.255
10343SOL    HW242658   2.959   0.407   0.155
10344SOL     OW42659   2.938   4.618  21.860
10344SOL    HW142660   2.972   4.702  21.831
10344SOL    HW242661   3.015   4.571  21.893
10345SOL     OW42662   2.961   2.430  21.689
10345SOL    HW142663   2.996   2.351  21.729
10345SOL    HW242664   3.033   2.465  21.636
10346SOL     OW42665   1.325   3.410   6.843
10346SOL    HW142666   1.250   3.359   6.874
10346SOL    HW242667   1.394   3.346   6.828
10347SOL     OW42668   0.116   1.654  22.738
10347SOL    HW142669   0.079   1.695  22.816
10347SOL    HW242670   0.139   1.727  22.681
10348SOL     OW42671   2.848   4.370   2.740
10348SOL    HW142672   2.900   4.419   2.676
10348SOL    HW242673   2.758   4.401   2.727
10349SOL     OW42674   3.040   0.091  28.210
10349SOL    HW142675   2.946   0.092  28.191
10349SOL    HW242676   3.081   0.131  28.133
10350SOL     OW42677   3.321   3.426  19.397
10350SOL    HW142678   3.358   3.482  19.329
10350SOL    HW242679   3.259   3.370  19.350
10351SOL     OW42680   4.659   4.589   1.000
10351SOL    HW142681   4.744   4.603   0.958
10351SOL    HW242682   4.670   4.507   1.048
10352SOL     OW42683   2.400   3.995   2.776
10352SOL    HW142684   2.493   3.988   2.755
10352SOL    HW242685   2.369   3.905   2.774
10353SOL     OW42686   3.969   0.369  26.787
10353SOL    HW142687   3.979   0.463  26.805
10353SOL    HW242688   3.876   0.353  26.797
10354SOL     OW42689   4.597   1.870  18.408
10354SOL    HW142690   4.509   1.832  18.400
10354SOL    HW242691   4.656   1.798  18.387
10355SOL     OW42692   1.955   4.002   1.956
10355SOL    HW142693   2.007   4.025   2.033
10355SOL    HW242694   1.865   3.999   1.988
10356SOL     OW42695   3.055   0.233   9.788
10356SOL    HW142696   3.124   0.295   9.766
10356SOL    HW242697   3.048   0.177   9.711
10357SOL     OW42698   4.467   4.311  24.693
10357SOL    HW142699   4.373   4.329  24.681
10357SOL    HW242700   4.492   4.365  24.767
10358SOL     OW42701   3.946   3.071   1.973
10358SOL    HW142702   3.925   3.164   1.963
10358SOL    HW242703   3.932   3.034   1.886
10359SOL     OW42704   0.776   3.376   1.641
10359SOL    HW142705   0.783   3.333   1.726
10359SOL    HW242706   0.808   3.465   1.656
10360SOL     OW42707   0.701   0.658  20.136
10360SOL    HW142708   0.734   0.710  20.063
10360SOL    HW242709   0.751   0.689  20.212
10361SOL     OW42710   2.721   2.389  12.446
10361SOL    HW142711   2.635   2.347  12.456
10361SOL    HW242712   2.720   2.460  12.511
10362SOL     OW42713   2.231   2.397   3.335
10362SOL    HW142714   2.199   2.308   3.347
10362SOL    HW242715   2.300   2.408   3.401
10363SOL     OW42716   1.206   4.613   5.305
10363SOL    HW142717   1.297   4.613   5.277
10363SOL    HW242718   1.160   4.665   5.239
10364SOL     OW42719   1.519   2.549  23.761
10364SOL    HW142720   1.524   2.643  23.742
10364SOL    HW242721   1.427   2.526  23.747
10365SOL     OW42722   2.503   2.897  25.705
10365SOL    HW142723   2.437   2.934  25.647
10365SOL    HW242724   2.466   2.814  25.734
10366SOL     OW42725   1.275   1.722  23.526
10366SOL    HW142726   1.244   1.797  23.576
10366SOL    HW242727   1.302   1.658  23.592
10367SOL     OW42728   0.580   1.367   8.850
10367SOL    HW142729   0.620   1.323   8.775
10367SOL    HW242730   0.649   1.423   8.886
10368SOL     OW42731   3.914   2.449  20.576
10368SOL    HW142732   3.901   2.401  20.658
10368SOL    HW242733   4.009   2.453  20.564
10369SOL     OW42734   4.358   0.099  23.325
10369SOL    HW142735   4.367   0.031  23.258
10369SOL    HW242736   4.321   0.054  23.401
10370SOL     OW42737   4.589   0.445  25.967
10370SOL    HW142738   4.500   0.463  25.937
10370SOL    HW242739   4.612   0.363  25.924
10371SOL     OW42740   4.366   2.977   5.971
10371SOL    HW142741   4.427   3.018   6.033
10371SOL    HW242742   4.304   2.931   6.027
10372SOL     OW42743   3.487   3.236   7.497
10372SOL    HW142744   3.548   3.303   7.530
10372SOL    HW242745   3.401   3.266   7.525
10373SOL     OW42746   4.640   1.393  21.370
10373SOL    HW142747   4.599   1.393  21.456
10373SOL    HW242748   4.629   1.304  21.337
10374SOL     OW42749   1.536   0.027  28.122
10374SOL    HW142750   1.601   4.738  28.116
10374SOL    HW242751   1.578   0.103  28.081
10375SOL     OW42752   1.222   2.259  21.659
10375SOL    HW142753   1.133   2.286  21.636
10375SOL    HW242754   1.277   2.333  21.632
10376SOL     OW42755   2.064   3.635   8.463
10376SOL    HW142756   2.154   3.610   8.442
10376SOL    HW242757   2.034   3.567   8.524
10377SOL     OW42758   3.184   3.572  20.522
10377SOL    HW142759   3.251   3.572  20.591
10377SOL    HW242760   3.188   3.661  20.486
10378SOL     OW42761   3.269   3.358   6.733
10378SOL    HW142762   3.204   3.288   6.736
10378SOL    HW242763   3.318   3.349   6.815
10379SOL     OW42764   1.031   1.742  27.839
10379SOL    HW142765   1.040   1.657  27.880
10379SOL    HW242766   1.096   1.797  27.884
10380SOL     OW42767   0.081   4.283   4.927
10380SOL    HW142768   0.120   4.363   4.891
10380SOL    HW242769   4.771   4.306   4.943
10381SOL     OW42770   2.830   3.214  25.410
10381SOL    HW142771   2.875   3.244  25.489
10381SOL    HW242772   2.800   3.294  25.367
10382SOL     OW42773   3.183   3.855   1.056
10382SOL    HW142774   3.149   3.863   0.966
10382SOL    HW242775   3.195   3.761   1.069
10383SOL     OW42776   0.356   2.707  21.866
10383SOL    HW142777   0.267   2.717  21.835
10383SOL    HW242778   0.411   2.726  21.790
10384SOL     OW42779   0.945   2.997   6.444
10384SOL    HW142780   0.994   3.022   6.365
10384SOL    HW242781   0.866   2.955   6.410
10385SOL     OW42782   0.748   3.970   5.048
10385SOL    HW142783   0.768   4.015   5.131
10385SOL    HW242784   0.831   3.971   5.000
10386SOL     OW42785   2.302   2.820  26.010
10386SOL    HW142786   2.368   2.820  26.079
10386SOL    HW242787   2.329   2.750  25.951
10387SOL     OW42788   2.306   3.345   3.951
10387SOL    HW142789   2.336   3.340   4.042
10387SOL    HW242790   2.226   3.292   3.950
10388SOL     OW42791   3.224   1.602   8.618
10388SOL    HW142792   3.157   1.661   8.583
10388SOL    HW242793   3.232   1.626   8.710
10389SOL     OW42794   2.198   4.180   7.333
10389SOL    HW142795   2.242   4.223   7.260
10389SOL    HW242796   2.167   4.097   7.297
10390SOL     OW42797   2.669   3.058   1.821
10390SOL    HW142798   2.602   3.126   1.812
10390SOL    HW242799   2.622   2.976   1.812
10391SOL     OW42800   2.614   0.656   7.964
10391SOL    HW142801   2.531   0.672   8.009
10391SOL    HW242802   2.676   0.715   8.007
10392SOL     OW42803   1.469   2.236  19.533
10392SOL    HW142804   1.462   2.332  19.536
10392SOL    HW242805   1.383   2.205  19.561
10393SOL     OW42806   4.420   4.543  10.759
10393SOL    HW142807   4.359   4.473  10.735
10393SOL    HW242808   4.459   4.513  10.841
10394SOL     OW42809   3.045   0.228  25.654
10394SOL    HW142810   3.078   0.313  25.626
10394SOL    HW242811   3.005   0.245  25.739
10395SOL     OW42812   2.403   1.827  27.720
10395SOL    HW142813   2.477   1.804  27.777
10395SOL    HW242814   2.443   1.838  27.633
10396SOL     OW42815   0.057   0.243  20.129
10396SOL    HW142816   4.767   0.216  20.071
10396SOL    HW242817   0.127   0.271  20.070
10397SOL     OW42818   1.904   2.888  28.038
10397SOL    HW142819   1.989   2.873  27.997
10397SOL    HW242820   1.846   2.824  27.997
10398SOL     OW42821   1.010   0.086   2.384
10398SOL    HW142822   0.937   0.143   2.360
10398SOL    HW242823   0.970   0.000   2.398
10399SOL     OW42824   1.830   1.107  25.115
10399SOL    HW142825   1.825   1.200  25.134
10399SOL    HW242826   1.923   1.088  25.106
10400SOL     OW42827   4.376   3.926   1.482
10400SOL    HW142828   4.377   3.893   1.392
10400SOL    HW242829   4.418   3.857   1.533
10401SOL     OW42830   0.026   3.500   4.788
10401SOL    HW142831   0.012   3.430   4.852
10401SOL    HW242832   0.109   3.478   4.746
10402SOL     OW42833   3.416   4.716   6.589
10402SOL    HW142834   3.412   0.028   6.612
10402SOL    HW242835   3.324   4.690   6.578
10403SOL     OW42836   3.966   3.374   0.757
10403SOL    HW142837   4.005   3.373   0.844
10403SOL    HW242838   3.957   3.281   0.734
10404SOL     OW42839   1.756   3.953  25.505
10404SOL    HW142840   1.688   3.951  25.438
10404SOL    HW242841   1.788   4.043  25.504
10405SOL     OW42842   2.206   2.055  26.441
10405SOL    HW142843   2.253   2.127  26.484
10405SOL    HW242844   2.216   1.981  26.502
10406SOL     OW42845   3.031   3.864   1.464
10406SOL    HW142846   3.118   3.903   1.463
10406SOL    HW242847   3.023   3.820   1.379
10407SOL     OW42848   2.769   1.118   2.848
10407SOL    HW142849   2.714   1.171   2.790
10407SOL    HW242850   2.711   1.091   2.919
10408SOL     OW42851   2.391   1.135   3.799
10408SOL    HW142852   2.411   1.223   3.831
10408SOL    HW242853   2.296   1.133   3.789
10409SOL     OW42854   1.722   3.874  28.405
10409SOL    HW142855   1.738   3.906  28.493
10409SOL    HW242856   1.664   3.940  28.366
10410SOL     OW42857   1.088   2.625   6.784
10410SOL    HW142858   1.103   2.699   6.842
10410SOL    HW242859   1.172   2.611   6.740
10411SOL     OW42860   1.152   4.464   7.924
10411SOL    HW142861   1.184   4.407   7.995
10411SOL    HW242862   1.066   4.429   7.902
10412SOL     OW42863   2.717   1.105  19.908
10412SOL    HW142864   2.713   1.033  19.846
10412SOL    HW242865   2.647   1.164  19.881
10413SOL     OW42866   3.407   4.659   9.447
10413SOL    HW142867   3.415   4.647   9.542
10413SOL    HW242868   3.497   4.652   9.414
10414SOL     OW42869   1.579   0.589   1.324
10414SOL    HW142870   1.493   0.628   1.337
10414SOL    HW242871   1.593   0.593   1.229
10415SOL     OW42872   1.478   1.803  24.738
10415SOL    HW142873   1.451   1.829  24.826
10415SOL    HW242874   1.421   1.729  24.717
10416SOL     OW42875   4.471   3.920  25.297
10416SOL    HW142876   4.412   3.870  25.241
10416SOL    HW242877   4.540   3.951  25.238
10417SOL     OW42878   1.778   2.010   6.289
10417SOL    HW142879   1.739   2.075   6.231
10417SOL    HW242880   1.852   1.975   6.239
10418SOL     OW42881   2.161   3.686  21.377
10418SOL    HW142882   2.122   3.704  21.463
10418SOL    HW242883   2.130   3.758  21.321
10419SOL     OW42884   4.546   0.824  19.415
10419SOL    HW142885   4.618   0.792  19.360
10419SOL    HW242886   4.493   0.747  19.434
10420SOL     OW42887   1.182   1.603   0.164
10420SOL    HW142888   1.094   1.613   0.201
10420SOL    HW242889   1.174   1.529   0.104
10421SOL     OW42890   4.376   3.852  11.343
10421SOL    HW142891   4.296   3.845  11.395
10421SOL    HW242892   4.428   3.919  11.389
10422SOL     OW42893   3.261   3.189  22.998
10422SOL    HW142894   3.309   3.132  22.939
10422SOL    HW242895   3.169   3.165  22.984
10423SOL     OW42896   4.040   4.172   0.279
10423SOL    HW142897   4.019   4.263   0.256
10423SOL    HW242898   4.094   4.179   0.358
10424SOL     OW42899   3.536   4.072   8.835
10424SOL    HW142900   3.629   4.068   8.813
10424SOL    HW242901   3.498   3.997   8.790
10425SOL     OW42902   2.063   0.843  26.162
10425SOL    HW142903   2.025   0.788  26.232
10425SOL    HW242904   2.126   0.899  26.207
10426SOL     OW42905   1.443   3.489  19.528
10426SOL    HW142906   1.507   3.559  19.519
10426SOL    HW242907   1.417   3.469  19.438
10427SOL     OW42908   4.615   4.347  26.491
10427SOL    HW142909   4.550   4.360  26.422
10427SOL    HW242910   4.692   4.395  26.460
10428SOL     OW42911   0.041   2.339  22.491
10428SOL    HW142912   4.767   2.417  22.482
10428SOL    HW242913   0.009   2.279  22.423
10429SOL     OW42914   3.478   2.435   6.630
10429SOL    HW142915   3.409   2.498   6.649
10429SOL    HW242916   3.495   2.446   6.536
10430SOL     OW42917   2.566   0.312  27.129
10430SOL    HW142918   2.562   0.246  27.060
10430SOL    HW242919   2.654   0.302  27.166
10431SOL     OW42920   2.214   1.789  22.878
10431SOL    HW142921   2.231   1.861  22.939
10431SOL    HW242922   2.190   1.716  22.935
10432SOL     OW42923   2.871   3.856  19.505
10432SOL    HW142924   2.922   3.779  19.480
10432SOL    HW242925   2.781   3.834  19.480
10433SOL     OW42926   0.127   4.222  27.846
10433SOL    HW142927   0.103   4.287  27.911
10433SOL    HW242928   0.169   4.152  27.896
10434SOL     OW42929   1.112   3.513   1.071
10434SOL    HW142930   1.085   3.499   1.162
10434SOL    HW242931   1.204   3.537   1.076
10435SOL     OW42932   2.916   0.145  25.392
10435SOL    HW142933   2.975   0.163  25.466
10435SOL    HW242934   2.902   0.051  25.395
10436SOL     OW42935   3.166   2.850  26.777
10436SOL    HW142936   3.132   2.816  26.693
10436SOL    HW242937   3.169   2.945  26.764
10437SOL     OW42938   0.449   1.260   6.332
10437SOL    HW142939   0.409   1.174   6.342
10437SOL    HW242940   0.522   1.260   6.394
10438SOL     OW42941   3.243   1.914  24.992
10438SOL    HW142942   3.234   1.939  25.084
10438SOL    HW242943   3.334   1.887  24.983
10439SOL     OW42944   3.122   2.487   2.357
10439SOL    HW142945   3.142   2.547   2.285
10439SOL    HW242946   3.027   2.480   2.358
10440SOL     OW42947   2.007   2.578   9.516
10440SOL    HW142948   2.038   2.564   9.426
10440SOL    HW242949   1.918   2.609   9.506
10441SOL     OW42950   1.774   2.937  21.125
10441SOL    HW142951   1.838   2.969  21.188
10441SOL    HW242952   1.698   2.995  21.137
10442SOL     OW42953   3.228   4.214  26.165
10442SOL    HW142954   3.317   4.187  26.142
10442SOL    HW242955   3.196   4.143  26.222
10443SOL     OW42956   3.726   1.569  19.654
10443SOL    HW142957   3.660   1.576  19.723
10443SOL    HW242958   3.680   1.595  19.574
10444SOL     OW42959   1.249   2.306  10.427
10444SOL    HW142960   1.161   2.268  10.424
10444SOL    HW242961   1.295   2.255  10.494
10445SOL     OW42962   0.451   1.721  11.529
10445SOL    HW142963   0.406   1.804  11.545
10445SOL    HW242964   0.544   1.742  11.542
10446SOL     OW42965   2.164   3.423  26.081
10446SOL    HW142966   2.156   3.440  26.174
10446SOL    HW242967   2.144   3.330  26.071
10447SOL     OW42968   2.672   3.378   9.446
10447SOL    HW142969   2.705   3.360   9.534
10447SOL    HW242970   2.663   3.292   9.405
10448SOL     OW42971   2.619   0.120   2.709
10448SOL    HW142972   2.680   0.057   2.747
10448SOL    HW242973   2.615   0.192   2.773
10449SOL     OW42974   3.833   0.177  27.933
10449SOL    HW142975   3.801   0.249  27.987
10449SOL    HW242976   3.836   0.101  27.992
10450SOL     OW42977   4.588   3.680  24.670
10450SOL    HW142978   4.639   3.694  24.590
10450SOL    HW242979   4.653   3.651  24.735
10451SOL     OW42980   2.596   2.443  18.310
10451SOL    HW142981   2.631   2.532  18.303
10451SOL    HW242982   2.595   2.426  18.404
10452SOL     OW42983   2.439   0.861   3.919
10452SOL    HW142984   2.416   0.867   3.826
10452SOL    HW242985   2.432   0.951   3.951
10453SOL     OW42986   4.140   0.987  23.873
10453SOL    HW142987   4.087   0.908  23.886
10453SOL    HW242988   4.186   0.999  23.956
10454SOL     OW42989   0.078   1.707   5.268
10454SOL    HW142990   0.116   1.794   5.260
10454SOL    HW242991   0.001   1.719   5.323
10455SOL     OW42992   0.603   4.248   5.975
10455SOL    HW142993   0.527   4.297   5.945
10455SOL    HW242994   0.678   4.304   5.952
10456SOL     OW42995   0.185   1.879  10.639
10456SOL    HW142996   0.185   1.908  10.547
10456SOL    HW242997   0.119   1.934  10.681
10457SOL     OW42998   1.618   4.231  23.721
10457SOL    HW142999   1.665   4.200  23.798
10457SOL    HW243000   1.609   4.325  23.734
10458SOL     OW43001   3.632   2.601  26.568
10458SOL    HW143002   3.609   2.565  26.483
10458SOL    HW243003   3.560   2.660  26.590
10459SOL     OW43004   4.114   4.136  26.013
10459SOL    HW143005   4.091   4.173  26.098
10459SOL    HW243006   4.045   4.072  25.995
10460SOL     OW43007   0.674   0.816  26.456
10460SOL    HW143008   0.759   0.793  26.418
10460SOL    HW243009   0.659   0.749  26.523
10461SOL     OW43010   0.069   0.682   4.673
10461SOL    HW143011   0.141   0.619   4.673
10461SOL    HW243012   0.033   0.677   4.585
10462SOL     OW43013   0.627   0.554   9.501
10462SOL    HW143014   0.661   0.609   9.430
10462SOL    HW243015   0.605   0.471   9.459
10463SOL     OW43016   1.546   1.461  25.076
10463SOL    HW143017   1.544   1.447  24.982
10463SOL    HW243018   1.585   1.548  25.087
10464SOL     OW43019   1.378   3.678   2.133
10464SOL    HW143020   1.434   3.740   2.180
10464SOL    HW243021   1.297   3.675   2.183
10465SOL     OW43022   1.798   4.578  10.089
10465SOL    HW143023   1.830   4.653  10.039
10465SOL    HW243024   1.788   4.610  10.179
10466SOL     OW43025   1.401   3.798  22.627
10466SOL    HW143026   1.436   3.839  22.706
10466SOL    HW243027   1.384   3.871  22.568
10467SOL     OW43028   1.314   0.507   4.227
10467SOL    HW143029   1.284   0.546   4.310
10467SOL    HW243030   1.326   0.414   4.248
10468SOL     OW43031   0.156   4.150   6.020
10468SOL    HW143032   0.105   4.230   6.030
10468SOL    HW243033   0.229   4.174   5.964
10469SOL     OW43034   1.593   4.474  23.830
10469SOL    HW143035   1.668   4.481  23.890
10469SOL    HW243036   1.555   4.562  23.829
10470SOL     OW43037   0.865   0.351   9.893
10470SOL    HW143038   0.942   0.300   9.866
10470SOL    HW243039   0.825   0.298   9.962
10471SOL     OW43040   4.457   3.527  23.849
10471SOL    HW143041   4.464   3.461  23.918
10471SOL    HW243042   4.526   3.504  23.787
10472SOL     OW43043   1.283   1.795   3.532
10472SOL    HW143044   1.261   1.744   3.609
10472SOL    HW243045   1.339   1.738   3.480
10473SOL     OW43046   4.524   4.466  27.359
10473SOL    HW143047   4.563   4.539  27.406
10473SOL    HW243048   4.573   4.461  27.277
10474SOL     OW43049   2.468   2.479  11.911
10474SOL    HW143050   2.473   2.460  12.005
10474SOL    HW243051   2.482   2.394  11.869
10475SOL     OW43052   2.287   3.168   2.019
10475SOL    HW143053   2.318   3.183   2.109
10475SOL    HW243054   2.365   3.139   1.971
10476SOL     OW43055   1.616   1.772   7.314
10476SOL    HW143056   1.596   1.772   7.408
10476SOL    HW243057   1.677   1.844   7.303
10477SOL     OW43058   0.082   4.007  18.662
10477SOL    HW143059   0.108   4.033  18.574
10477SOL    HW243060   0.126   3.922  18.676
10478SOL     OW43061   0.154   1.300   1.053
10478SOL    HW143062   0.240   1.260   1.066
10478SOL    HW243063   0.094   1.245   1.104
10479SOL     OW43064   3.467   1.891   0.865
10479SOL    HW143065   3.526   1.966   0.857
10479SOL    HW243066   3.438   1.893   0.956
10480SOL     OW43067   1.246   3.338  21.994
10480SOL    HW143068   1.186   3.329  22.068
10480SOL    HW243069   1.332   3.353  22.034
10481SOL     OW43070   1.272   0.049   7.323
10481SOL    HW143071   1.264   4.742   7.359
10481SOL    HW243072   1.362   0.052   7.289
10482SOL     OW43073   3.425   3.629   4.262
10482SOL    HW143074   3.330   3.636   4.274
10482SOL    HW243075   3.462   3.673   4.339
10483SOL     OW43076   2.083   1.937  21.743
10483SOL    HW143077   2.065   2.028  21.723
10483SOL    HW243078   2.006   1.889  21.711
10484SOL     OW43079   3.658   0.869  19.940
10484SOL    HW143080   3.667   0.849  19.847
10484SOL    HW243081   3.716   0.945  19.954
10485SOL     OW43082   1.544   0.373   9.624
10485SOL    HW143083   1.452   0.376   9.650
10485SOL    HW243084   1.576   0.291   9.661
10486SOL     OW43085   1.447   1.612  26.521
10486SOL    HW143086   1.463   1.563  26.440
10486SOL    HW243087   1.532   1.653  26.541
10487SOL     OW43088   3.567   3.960   5.038
10487SOL    HW143089   3.555   3.972   5.132
10487SOL    HW243090   3.640   4.017   5.016
10488SOL     OW43091   1.595   4.534   4.134
10488SOL    HW143092   1.558   4.478   4.202
10488SOL    HW243093   1.690   4.524   4.143
10489SOL     OW43094   4.341   3.720  20.309
10489SOL    HW143095   4.401   3.778  20.262
10489SOL    HW243096   4.290   3.778  20.366
10490SOL     OW43097   2.081   0.012  10.138
10490SOL    HW143098   2.038   4.775  10.222
10490SOL    HW243099   2.009   0.019  10.075
10491SOL     OW43100   0.557   1.408  10.238
10491SOL    HW143101   0.580   1.324  10.279
10491SOL    HW243102   0.463   1.418  10.254
10492SOL     OW43103   0.840   3.577  24.016
10492SOL    HW143104   0.906   3.514  23.988
10492SOL    HW243105   0.857   3.655  23.962
10493SOL     OW43106   3.019   2.531   6.422
10493SOL    HW143107   3.035   2.619   6.388
10493SOL    HW243108   2.949   2.543   6.487
10494SOL     OW43109   3.458   2.709  26.273
10494SOL    HW143110   3.428   2.795  26.243
10494SOL    HW243111   3.394   2.683  26.340
10495SOL     OW43112   2.153   4.676   2.951
10495SOL    HW143113   2.191   4.764   2.953
10495SOL    HW243114   2.079   4.683   2.890
10496SOL     OW43115   4.175   1.184  27.245
10496SOL    HW143116   4.158   1.097  27.280
10496SOL    HW243117   4.271   1.191  27.247
10497SOL     OW43118   1.350   2.020  23.454
10497SOL    HW143119   1.352   1.932  23.493
10497SOL    HW243120   1.345   2.079  23.530
10498SOL     OW43121   4.539   2.940   1.939
10498SOL    HW143122   4.600   2.965   2.008
10498SOL    HW243123   4.511   2.852   1.963
10499SOL     OW43124   1.671   1.085   7.863
10499SOL    HW143125   1.587   1.075   7.908
10499SOL    HW243126   1.665   1.169   7.819
10500SOL     OW43127   2.958   4.709   1.789
10500SOL    HW143128   2.909   4.648   1.843
10500SOL    HW243129   2.898   4.781   1.771
10501SOL     OW43130   0.368   1.361   3.199
10501SOL    HW143131   0.438   1.358   3.264
10501SOL    HW243132   0.405   1.410   3.126
10502SOL     OW43133   0.780   3.457  21.142
10502SOL    HW143134   0.735   3.518  21.083
10502SOL    HW243135   0.865   3.442  21.101
10503SOL     OW43136   1.742   3.331  27.777
10503SOL    HW143137   1.762   3.281  27.856
10503SOL    HW243138   1.647   3.342  27.778
10504SOL     OW43139   1.285   2.574  10.375
10504SOL    HW143140   1.277   2.480  10.394
10504SOL    HW243141   1.222   2.589  10.305
10505SOL     OW43142   3.666   2.008  27.998
10505SOL    HW143143   3.597   2.065  28.034
10505SOL    HW243144   3.696   2.054  27.920
10506SOL     OW43145   1.585   4.044   5.004
10506SOL    HW143146   1.552   3.954   5.003
10506SOL    HW243147   1.606   4.061   5.096
10507SOL     OW43148   2.602   0.145   3.768
10507SOL    HW143149   2.600   0.063   3.817
10507SOL    HW243150   2.611   0.213   3.834
10508SOL     OW43151   3.948   4.526  17.087
10508SOL    HW143152   3.991   4.612  17.088
10508SOL    HW243153   3.862   4.542  17.050
10509SOL     OW43154   3.107   4.627  10.779
10509SOL    HW143155   3.085   4.571  10.853
10509SOL    HW243156   3.043   4.603  10.711
10510SOL     OW43157   1.358   0.456  21.484
10510SOL    HW143158   1.289   0.466  21.419
10510SOL    HW243159   1.440   0.454  21.434
10511SOL     OW43160   0.138   4.106   1.273
10511SOL    HW143161   0.135   4.157   1.354
10511SOL    HW243162   0.058   4.130   1.227
10512SOL     OW43163   3.629   2.271  24.146
10512SOL    HW143164   3.703   2.211  24.155
10512SOL    HW243165   3.600   2.287  24.236
10513SOL     OW43166   2.447   3.935   7.594
10513SOL    HW143167   2.473   3.860   7.648
10513SOL    HW243168   2.455   3.903   7.504
10514SOL     OW43169   1.904   2.461  27.537
10514SOL    HW143170   1.852   2.493  27.464
10514SOL    HW243171   1.976   2.413  27.497
10515SOL     OW43172   0.520   1.773  24.234
10515SOL    HW143173   0.434   1.733  24.217
10515SOL    HW243174   0.573   1.701  24.268
10516SOL     OW43175   1.490   3.703  21.804
10516SOL    HW143176   1.581   3.679  21.790
10516SOL    HW243177   1.493   3.769  21.874
10517SOL     OW43178   1.335   3.060  10.439
10517SOL    HW143179   1.243   3.083  10.422
10517SOL    HW243180   1.339   2.965  10.427
10518SOL     OW43181   2.839   4.729  26.265
10518SOL    HW143182   2.754   4.764  26.239
10518SOL    HW243183   2.869   0.008  26.333
10519SOL     OW43184   2.051   0.245   7.935
10519SOL    HW143185   2.076   0.217   8.023
10519SOL    HW243186   1.962   0.280   7.945
10520SOL     OW43187   2.850   4.358   7.637
10520SOL    HW143188   2.776   4.382   7.580
10520SOL    HW243189   2.816   4.287   7.692
10521SOL     OW43190   2.590   0.788  22.076
10521SOL    HW143191   2.663   0.739  22.114
10521SOL    HW243192   2.624   0.822  21.994
10522SOL     OW43193   0.558   0.330  25.129
10522SOL    HW143194   0.614   0.305  25.202
10522SOL    HW243195   0.534   0.247  25.088
10523SOL     OW43196   3.681   4.265   3.010
10523SOL    HW143197   3.683   4.205   3.085
10523SOL    HW243198   3.770   4.300   3.004
10524SOL     OW43199   1.606   2.086  21.373
10524SOL    HW143200   1.666   2.012  21.364
10524SOL    HW243201   1.550   2.081  21.296
10525SOL     OW43202   3.185   4.699   1.995
10525SOL    HW143203   3.165   4.607   2.012
10525SOL    HW243204   3.198   4.703   1.900
10526SOL     OW43205   1.804   4.246   2.710
10526SOL    HW143206   1.800   4.163   2.757
10526SOL    HW243207   1.876   4.293   2.751
10527SOL     OW43208   3.746   3.439  28.010
10527SOL    HW143209   3.726   3.501  27.941
10527SOL    HW243210   3.841   3.445  28.022
10528SOL     OW43211   1.345   3.201   0.639
10528SOL    HW143212   1.346   3.258   0.561
10528SOL    HW243213   1.343   3.262   0.713
10529SOL     OW43214   1.036   4.223   9.718
10529SOL    HW143215   0.998   4.270   9.793
10529SOL    HW243216   0.961   4.180   9.677
10530SOL     OW43217   2.341   0.505   9.973
10530SOL    HW143218   2.402   0.434   9.991
10530SOL    HW243219   2.308   0.531  10.059
10531SOL     OW43220   1.698   2.320  10.509
10531SOL    HW143221   1.784   2.343  10.474
10531SOL    HW243222   1.714   2.244  10.565
10532SOL     OW43223   0.058   3.857  26.013
10532SOL    HW143224   4.746   3.875  25.999
10532SOL    HW243225   0.068   3.857  26.108
10533SOL     OW43226   2.430   2.850   1.850
10533SOL    HW143227   2.449   2.829   1.759
10533SOL    HW243228   2.442   2.767   1.897
10534SOL     OW43229   0.186   2.903  26.043
10534SOL    HW143230   0.268   2.860  26.019
10534SOL    HW243231   0.211   2.972  26.104
10535SOL     OW43232   0.847   3.044  26.642
10535SOL    HW143233   0.774   2.982  26.652
10535SOL    HW243234   0.903   3.005  26.575
10536SOL     OW43235   0.509   0.511   9.204
10536SOL    HW143236   0.536   0.601   9.222
10536SOL    HW243237   0.415   0.517   9.186
10537SOL     OW43238   0.385   0.018   6.202
10537SOL    HW143239   0.470   0.001   6.160
10537SOL    HW243240   0.335   4.718   6.188
10538SOL     OW43241   1.644   0.200  11.274
10538SOL    HW143242   1.662   0.287  11.311
10538SOL    HW243243   1.663   0.139  11.345
10539SOL     OW43244   1.046   0.768   0.918
10539SOL    HW143245   1.022   0.857   0.893
10539SOL    HW243246   1.034   0.716   0.839
10540SOL     OW43247   3.410   2.300  28.280
10540SOL    HW143248   3.361   2.288  28.362
10540SOL    HW243249   3.345   2.329  28.217
10541SOL     OW43250   1.986   4.480   2.407
10541SOL    HW143251   1.958   4.433   2.329
10541SOL    HW243252   1.947   4.430   2.480
10542SOL     OW43253   2.034   2.506   2.545
10542SOL    HW143254   2.117   2.550   2.564
10542SOL    HW243255   2.049   2.461   2.462
10543SOL     OW43256   3.103   4.382  22.995
10543SOL    HW143257   3.099   4.298  22.949
10543SOL    HW243258   3.193   4.412  22.983
10544SOL     OW43259   1.648   1.187   1.095
10544SOL    HW143260   1.578   1.226   1.042
10544SOL    HW243261   1.695   1.130   1.034
10545SOL     OW43262   3.164   1.616   0.631
10545SOL    HW143263   3.214   1.549   0.677
10545SOL    HW243264   3.149   1.684   0.697
10546SOL     OW43265   0.551   1.504   5.340
10546SOL    HW143266   0.599   1.585   5.357
10546SOL    HW243267   0.461   1.532   5.328
10547SOL     OW43268   2.794   0.230  23.134
10547SOL    HW143269   2.822   0.267  23.218
10547SOL    HW243270   2.699   0.217  23.144
10548SOL     OW43271   1.098   1.315   3.235
10548SOL    HW143272   1.107   1.350   3.147
10548SOL    HW243273   1.167   1.358   3.286
10549SOL     OW43274   4.674   3.982  20.025
10549SOL    HW143275   4.676   4.069  19.986
10549SOL    HW243276   4.766   3.963  20.046
10550SOL     OW43277   1.439   2.558   6.015
10550SOL    HW143278   1.401   2.474   6.042
10550SOL    HW243279   1.439   2.611   6.095
10551SOL     OW43280   4.211   4.582   7.110
10551SOL    HW143281   4.205   4.659   7.166
10551SOL    HW243282   4.302   4.554   7.117
10552SOL     OW43283   1.509   0.144  23.619
10552SOL    HW143284   1.514   0.116  23.527
10552SOL    HW243285   1.481   0.235  23.615
10553SOL     OW43286   3.404   4.047   9.485
10553SOL    HW143287   3.355   4.125   9.458
10553SOL    HW243288   3.409   4.054   9.580
10554SOL     OW43289   3.125   3.413   1.732
10554SOL    HW143290   3.182   3.382   1.802
10554SOL    HW243291   3.045   3.440   1.777
10555SOL     OW43292   0.691   4.473  22.942
10555SOL    HW143293   0.761   4.444  23.001
10555SOL    HW243294   0.700   4.419  22.864
10556SOL     OW43295   3.324   1.823  23.877
10556SOL    HW143296   3.248   1.867  23.916
10556SOL    HW243297   3.390   1.822  23.946
10557SOL     OW43298   1.065   0.764  22.436
10557SOL    HW143299   1.085   0.760  22.530
10557SOL    HW243300   0.973   0.738  22.430
10558SOL     OW43301   3.517   2.359  11.222
10558SOL    HW143302   3.537   2.453  11.229
10558SOL    HW243303   3.533   2.324  11.309
10559SOL     OW43304   4.744   1.490   2.341
10559SOL    HW143305   4.652   1.467   2.337
10559SOL    HW243306   4.746   1.586   2.334
10560SOL     OW43307   0.632   2.214  19.615
10560SOL    HW143308   0.586   2.163  19.682
10560SOL    HW243309   0.720   2.226  19.651
10561SOL     OW43310   3.846   2.985   3.755
10561SOL    HW143311   3.873   3.076   3.764
10561SOL    HW243312   3.823   2.958   3.844
10562SOL     OW43313   4.622   0.418   8.612
10562SOL    HW143314   4.550   0.401   8.552
10562SOL    HW243315   4.671   0.336   8.616
10563SOL     OW43316   0.264   0.305  20.660
10563SOL    HW143317   0.336   0.307  20.598
10563SOL    HW243318   0.194   0.354  20.618
10564SOL     OW43319   2.953   1.155   1.045
10564SOL    HW143320   2.984   1.244   1.063
10564SOL    HW243321   2.858   1.160   1.059
10565SOL     OW43322   1.918   3.533   9.639
10565SOL    HW143323   1.981   3.476   9.682
10565SOL    HW243324   1.881   3.585   9.710
10566SOL     OW43325   4.780   1.835   4.679
10566SOL    HW143326   4.707   1.795   4.631
10566SOL    HW243327   4.773   1.800   4.767
10567SOL     OW43328   3.755   0.504   8.385
10567SOL    HW143329   3.701   0.534   8.312
10567SOL    HW243330   3.692   0.472   8.450
10568SOL     OW43331   0.408   0.679   1.455
10568SOL    HW143332   0.339   0.703   1.518
10568SOL    HW243333   0.490   0.698   1.500
10569SOL     OW43334   1.919   0.021  23.161
10569SOL    HW143335   1.870   4.742  23.105
10569SOL    HW243336   1.853   0.063  23.216
10570SOL     OW43337   4.514   0.210   1.020
10570SOL    HW143338   4.541   0.223   0.929
10570SOL    HW243339   4.483   0.296   1.048
10571SOL     OW43340   4.380   2.542   3.306
10571SOL    HW143341   4.449   2.590   3.262
10571SOL    HW243342   4.342   2.486   3.238
10572SOL     OW43343   1.811   1.306  18.186
10572SOL    HW143344   1.814   1.213  18.206
10572SOL    HW243345   1.719   1.330  18.198
10573SOL     OW43346   4.157   2.754  25.203
10573SOL    HW143347   4.067   2.785  25.211
10573SOL    HW243348   4.205   2.799  25.273
10574SOL     OW43349   3.579   2.358  10.934
10574SOL    HW143350   3.517   2.287  10.947
10574SOL    HW243351   3.647   2.342  11.000
10575SOL     OW43352   4.116   1.494   5.674
10575SOL    HW143353   4.104   1.503   5.579
10575SOL    HW243354   4.151   1.405   5.685
10576SOL     OW43355   3.756   1.230  22.553
10576SOL    HW143356   3.726   1.317  22.527
10576SOL    HW243357   3.819   1.206  22.486
10577SOL     OW43358   2.012   0.000  11.248
10577SOL    HW143359   2.053   4.709  11.296
10577SOL    HW243360   2.004   0.071  11.312
10578SOL     OW43361   0.761   4.301  27.946
10578SOL    HW143362   0.749   4.213  27.911
10578SOL    HW243363   0.812   4.287  28.026
10579SOL     OW43364   3.050   3.404  22.271
10579SOL    HW143365   3.031   3.351  22.349
10579SOL    HW243366   3.094   3.343  22.211
10580SOL     OW43367   0.669   2.667  26.074
10580SOL    HW143368   0.593   2.689  26.020
10580SOL    HW243369   0.724   2.614  26.017
10581SOL     OW43370   2.527   3.236  19.361
10581SOL    HW143371   2.468   3.227  19.436
10581SOL    HW243372   2.473   3.212  19.286
10582SOL     OW43373   0.096   3.602   8.343
10582SOL    HW143374   0.009   3.572   8.368
10582SOL    HW243375   0.125   3.655   8.417
10583SOL     OW43376   3.293   4.763  26.918
10583SOL    HW143377   3.345   4.752  26.839
10583SOL    HW243378   3.356   0.005  26.986
10584SOL     OW43379   1.144   3.036   7.773
10584SOL    HW143380   1.151   3.011   7.865
10584SOL    HW243381   1.083   3.110   7.772
10585SOL     OW43382   3.923   2.599   8.286
10585SOL    HW143383   3.897   2.580   8.195
10585SOL    HW243384   3.889   2.524   8.336
10586SOL     OW43385   1.885   0.780   8.933
10586SOL    HW143386   1.911   0.689   8.914
10586SOL    HW243387   1.861   0.779   9.025
10587SOL     OW43388   4.572   0.876   1.315
10587SOL    HW143389   4.602   0.785   1.324
10587SOL    HW243390   4.498   0.882   1.376
10588SOL     OW43391   1.148   2.601  12.366
10588SOL    HW143392   1.097   2.679  12.387
10588SOL    HW243393   1.169   2.562  12.451
10589SOL     OW43394   4.511   1.331  23.175
10589SOL    HW143395   4.527   1.305  23.265
10589SOL    HW243396   4.598   1.334  23.135
10590SOL     OW43397   3.747   2.016  23.794
10590SOL    HW143398   3.781   2.000  23.705
10590SOL    HW243399   3.657   2.045  23.780
10591SOL     OW43400   3.939   2.030   8.184
10591SOL    HW143401   3.843   2.029   8.180
10591SOL    HW243402   3.961   2.119   8.209
10592SOL     OW43403   0.206   3.481  20.627
10592SOL    HW143404   0.151   3.417  20.673
10592SOL    HW243405   0.195   3.461  20.535
10593SOL     OW43406   3.641   4.211  16.602
10593SOL    HW143407   3.578   4.252  16.543
10593SOL    HW243408   3.591   4.190  16.680
10594SOL     OW43409   2.351   4.173  23.460
10594SOL    HW143410   2.304   4.102  23.504
10594SOL    HW243411   2.289   4.204  23.393
10595SOL     OW43412   0.790   3.876  10.937
10595SOL    HW143413   0.855   3.825  10.987
10595SOL    HW243414   0.706   3.834  10.958
10596SOL     OW43415   1.699   1.083   6.356
10596SOL    HW143416   1.702   1.169   6.398
10596SOL    HW243417   1.617   1.083   6.308
10597SOL     OW43418   3.578   0.123  22.788
10597SOL    HW143419   3.564   0.214  22.815
10597SOL    HW243420   3.527   0.114  22.708
10598SOL     OW43421   3.622   2.743   5.514
10598SOL    HW143422   3.554   2.799   5.475
10598SOL    HW243423   3.589   2.722   5.601
10599SOL     OW43424   2.646   4.155  26.098
10599SOL    HW143425   2.669   4.248  26.100
10599SOL    HW243426   2.721   4.113  26.057
10600SOL     OW43427   2.778   1.473  25.792
10600SOL    HW143428   2.724   1.432  25.724
10600SOL    HW243429   2.765   1.418  25.869
10601SOL     OW43430   1.345   3.964  10.715
10601SOL    HW143431   1.295   3.900  10.664
10601SOL    HW243432   1.284   3.995  10.782
10602SOL     OW43433   2.034   2.149   7.189
10602SOL    HW143434   2.082   2.197   7.121
10602SOL    HW243435   2.101   2.122   7.251
10603SOL     OW43436   0.687   1.164   1.121
10603SOL    HW143437   0.684   1.176   1.216
10603SOL    HW243438   0.722   1.247   1.088
10604SOL     OW43439   0.815   0.193  27.245
10604SOL    HW143440   0.747   0.231  27.300
10604SOL    HW243441   0.816   0.248  27.167
10605SOL     OW43442   4.644   2.760   4.561
10605SOL    HW143443   4.576   2.827   4.554
10605SOL    HW243444   4.629   2.703   4.485
10606SOL     OW43445   1.089   1.274  26.914
10606SOL    HW143446   1.027   1.316  26.973
10606SOL    HW243447   1.139   1.347  26.876
10607SOL     OW43448   0.996   2.500  17.688
10607SOL    HW143449   0.933   2.444  17.734
10607SOL    HW243450   1.029   2.446  17.616
10608SOL     OW43451   1.229   0.141   3.081
10608SOL    HW143452   1.298   0.115   3.020
10608SOL    HW243453   1.244   0.087   3.159
10609SOL     OW43454   2.704   2.424  24.991
10609SOL    HW143455   2.671   2.475  24.917
10609SOL    HW243456   2.701   2.483  25.065
10610SOL     OW43457   1.900   0.551  22.221
10610SOL    HW143458   1.983   0.587  22.188
10610SOL    HW243459   1.867   0.618  22.280
10611SOL     OW43460   0.193   0.110   6.416
10611SOL    HW143461   0.257   0.077   6.353
10611SOL    HW243462   0.227   0.083   6.502
10612SOL     OW43463   1.014   4.428   3.449
10612SOL    HW143464   1.052   4.496   3.504
10612SOL    HW243465   0.988   4.359   3.510
10613SOL     OW43466   4.388   1.797  21.409
10613SOL    HW143467   4.462   1.746  21.378
10613SOL    HW243468   4.311   1.747  21.383
10614SOL     OW43469   4.391   2.165  10.431
10614SOL    HW143470   4.455   2.211  10.485
10614SOL    HW243471   4.377   2.082  10.475
10615SOL     OW43472   3.294   0.358  21.824
10615SOL    HW143473   3.310   0.286  21.763
10615SOL    HW243474   3.199   0.364  21.829
10616SOL     OW43475   1.858   3.039  20.095
10616SOL    HW143476   1.823   2.965  20.145
10616SOL    HW243477   1.898   3.000  20.017
10617SOL     OW43478   4.778   2.819  18.619
10617SOL    HW143479   0.081   2.820  18.573
10617SOL    HW243480   4.728   2.750  18.576
10618SOL     OW43481   1.295   3.535  24.442
10618SOL    HW143482   1.287   3.580  24.358
10618SOL    HW243483   1.333   3.601  24.501
10619SOL     OW43484   2.676   0.440   6.557
10619SOL    HW143485   2.741   0.415   6.622
10619SOL    HW243486   2.649   0.358   6.517
10620SOL     OW43487   4.040   1.166   7.292
10620SOL    HW143488   3.995   1.172   7.376
10620SOL    HW243489   4.133   1.171   7.313
10621SOL     OW43490   2.771   0.580   2.237
10621SOL    HW143491   2.866   0.593   2.248
10621SOL    HW243492   2.764   0.508   2.174
10622SOL     OW43493   0.548   3.367  24.698
10622SOL    HW143494   0.615   3.403  24.639
10622SOL    HW243495   0.502   3.444  24.733
10623SOL     OW43496   1.235   0.017  20.950
10623SOL    HW143497   1.164   4.746  20.911
10623SOL    HW243498   1.258   4.751  21.030
10624SOL     OW43499   1.947   0.723  25.121
10624SOL    HW143500   1.875   0.664  25.142
10624SOL    HW243501   1.941   0.792  25.186
10625SOL     OW43502   4.232   0.152  23.857
10625SOL    HW143503   4.271   0.182  23.939
10625SOL    HW243504   4.140   0.136  23.878
10626SOL     OW43505   2.878   1.340  26.625
10626SOL    HW143506   2.807   1.373  26.681
10626SOL    HW243507   2.833   1.289  26.558
10627SOL     OW43508   2.869   1.548  22.974
10627SOL    HW143509   2.797   1.592  22.928
10627SOL    HW243510   2.857   1.573  23.066
10628SOL     OW43511   3.925   0.761   4.297
10628SOL    HW143512   3.998   0.757   4.358
10628SOL    HW243513   3.901   0.853   4.293
10629SOL     OW43514   1.779   1.679   8.934
10629SOL    HW143515   1.819   1.647   8.853
10629SOL    HW243516   1.730   1.756   8.908
10630SOL     OW43517   1.758   4.416  21.718
10630SOL    HW143518   1.807   4.364  21.782
10630SOL    HW243519   1.669   4.380  21.721
10631SOL     OW43520   1.082   1.950   3.894
10631SOL    HW143521   1.003   1.976   3.941
10631SOL    HW243522   1.116   1.875   3.943
10632SOL     OW43523   3.938   3.453   3.461
10632SOL    HW143524   3.999   3.449   3.387
10632SOL    HW243525   3.916   3.362   3.479
10633SOL     OW43526   4.170   0.631  23.579
10633SOL    HW143527   4.189   0.538  23.567
10633SOL    HW243528   4.075   0.638  23.569
10634SOL     OW43529   3.933   3.340   8.410
10634SOL    HW143530   3.989   3.271   8.447
10634SOL    HW243531   3.920   3.402   8.482
10635SOL     OW43532   4.743   3.774  24.113
10635SOL    HW143533   4.734   3.721  24.033
10635SOL    HW243534   0.016   3.721  24.171
10636SOL     OW43535   0.191   2.719   0.950
10636SOL    HW143536   0.116   2.661   0.941
10636SOL    HW243537   0.178   2.785   0.882
10637SOL     OW43538   0.549   3.644   3.712
10637SOL    HW143539   0.634   3.685   3.694
10637SOL    HW243540   0.487   3.692   3.657
10638SOL     OW43541   3.142   2.659  22.437
10638SOL    HW143542   3.145   2.594  22.367
10638SOL    HW243543   3.232   2.690  22.445
10639SOL     OW43544   2.063   3.767  22.447
10639SOL    HW143545   2.140   3.819  22.422
10639SOL    HW243546   2.019   3.748  22.364
10640SOL     OW43547   1.013   2.589  10.224
10640SOL    HW143548   1.014   2.645  10.146
10640SOL    HW243549   0.950   2.520  10.204
10641SOL     OW43550   1.045   1.712  28.396
10641SOL    HW143551   1.126   1.763  28.390
10641SOL    HW243552   1.040   1.685  28.487
10642SOL     OW43553   3.327   3.402   2.452
10642SOL    HW143554   3.414   3.420   2.418
10642SOL    HW243555   3.327   3.308   2.470
10643SOL     OW43556   1.414   3.082  19.637
10643SOL    HW143557   1.472   3.102  19.564
10643SOL    HW243558   1.384   3.168  19.668
10644SOL     OW43559   3.369   2.853   5.415
10644SOL    HW143560   3.281   2.828   5.446
10644SOL    HW243561   3.378   2.809   5.331
10645SOL     OW43562   3.134   3.506  20.067
10645SOL    HW143563   3.228   3.506  20.085
10645SOL    HW243564   3.106   3.416  20.085
10646SOL     OW43565   3.010   1.877   0.480
10646SOL    HW143566   3.050   1.877   0.567
10646SOL    HW243567   2.961   1.959   0.475
10647SOL     OW43568   4.649   1.920   9.921
10647SOL    HW143569   4.577   1.966   9.965
10647SOL    HW243570   4.609   1.839   9.889
10648SOL     OW43571   4.408   2.732  28.376
10648SOL    HW143572   4.318   2.756  28.398
10648SOL    HW243573   4.459   2.758  28.453
10649SOL     OW43574   2.538   3.925  27.979
10649SOL    HW143575   2.562   3.982  28.052
10649SOL    HW243576   2.450   3.955  27.953
10650SOL     OW43577   0.943   2.955  25.726
10650SOL    HW143578   0.920   2.906  25.647
10650SOL    HW243579   1.039   2.954  25.727
10651SOL     OW43580   4.601   1.038   7.745
10651SOL    HW143581   4.666   1.094   7.788
10651SOL    HW243582   4.538   1.099   7.707
10652SOL     OW43583   1.346   3.542  25.969
10652SOL    HW143584   1.390   3.457  25.961
10652SOL    HW243585   1.258   3.527  25.936
10653SOL     OW43586   2.023   2.940   4.099
10653SOL    HW143587   1.946   2.928   4.044
10653SOL    HW243588   2.057   2.851   4.111
10654SOL     OW43589   2.894   1.819   6.898
10654SOL    HW143590   2.899   1.814   6.993
10654SOL    HW243591   2.926   1.907   6.876
10655SOL     OW43592   2.237   1.613  27.776
10655SOL    HW143593   2.290   1.693  27.774
10655SOL    HW243594   2.148   1.642  27.754
10656SOL     OW43595   2.370   1.610   4.383
10656SOL    HW143596   2.395   1.612   4.475
10656SOL    HW243597   2.410   1.689   4.346
10657SOL     OW43598   2.360   2.443   6.213
10657SOL    HW143599   2.447   2.481   6.222
10657SOL    HW243600   2.374   2.349   6.223
10658SOL     OW43601   2.859   1.220   1.899
10658SOL    HW143602   2.922   1.170   1.951
10658SOL    HW243603   2.827   1.288   1.957
10659SOL     OW43604   0.416   1.749  28.403
10659SOL    HW143605   0.324   1.750  28.431
10659SOL    HW243606   0.460   1.810  28.463
10660SOL     OW43607   1.485   3.890   9.319
10660SOL    HW143608   1.528   3.847   9.393
10660SOL    HW243609   1.414   3.940   9.358
10661SOL     OW43610   3.296   2.649  10.931
10661SOL    HW143611   3.251   2.611  10.855
10661SOL    HW243612   3.388   2.625  10.919
10662SOL     OW43613   4.348   0.226   8.703
10662SOL    HW143614   4.378   0.256   8.788
10662SOL    HW243615   4.310   0.304   8.663
10663SOL     OW43616   3.597   0.223   1.427
10663SOL    HW143617   3.660   0.258   1.490
10663SOL    HW243618   3.647   0.157   1.378
10664SOL     OW43619   4.688   2.417   4.575
10664SOL    HW143620   4.771   2.451   4.542
10664SOL    HW243621   4.683   2.449   4.665
10665SOL     OW43622   0.690   0.132   7.428
10665SOL    HW143623   0.620   0.155   7.366
10665SOL    HW243624   0.719   0.045   7.399
10666SOL     OW43625   2.497   2.867  24.602
10666SOL    HW143626   2.402   2.869  24.594
10666SOL    HW243627   2.513   2.848  24.695
10667SOL     OW43628   2.284   2.579   7.797
10667SOL    HW143629   2.286   2.616   7.709
10667SOL    HW243630   2.206   2.525   7.799
10668SOL     OW43631   0.163   2.219   9.837
10668SOL    HW143632   0.225   2.198   9.906
10668SOL    HW243633   0.136   2.134   9.803
10669SOL     OW43634   4.348   0.431   6.662
10669SOL    HW143635   4.378   0.498   6.601
10669SOL    HW243636   4.252   0.432   6.653
10670SOL     OW43637   1.017   1.253   5.824
10670SOL    HW143638   0.984   1.212   5.744
10670SOL    HW243639   1.098   1.206   5.844
10671SOL     OW43640   1.761   2.709   4.257
10671SOL    HW143641   1.819   2.634   4.267
10671SOL    HW243642   1.814   2.784   4.281
10672SOL     OW43643   2.432   0.294   1.397
10672SOL    HW143644   2.354   0.272   1.448
10672SOL    HW243645   2.398   0.334   1.317
10673SOL     OW43646   3.920   1.767   3.394
10673SOL    HW143647   3.897   1.763   3.487
10673SOL    HW243648   3.843   1.734   3.349
10674SOL     OW43649   3.851   1.338  19.742
10674SOL    HW143650   3.843   1.301  19.654
10674SOL    HW243651   3.799   1.419  19.739
10675SOL     OW43652   1.365   1.600   6.012
10675SOL    HW143653   1.273   1.619   6.027
10675SOL    HW243654   1.389   1.537   6.080
10676SOL     OW43655   3.244   1.580  21.052
10676SOL    HW143656   3.245   1.672  21.079
10676SOL    HW243657   3.155   1.566  21.021
10677SOL     OW43658   0.534   1.481   6.626
10677SOL    HW143659   0.557   1.559   6.676
10677SOL    HW243660   0.592   1.413   6.660
10678SOL     OW43661   0.748   0.885   5.851
10678SOL    HW143662   0.771   0.850   5.765
10678SOL    HW243663   0.709   0.970   5.833
10679SOL     OW43664   2.396   2.341  28.343
10679SOL    HW143665   2.378   2.415  28.401
10679SOL    HW243666   2.487   2.318  28.361
10680SOL     OW43667   2.724   4.274  23.820
10680SOL    HW143668   2.669   4.220  23.765
10680SOL    HW243669   2.670   4.351  23.840
10681SOL     OW43670   3.836   3.835   4.584
10681SOL    HW143671   3.907   3.782   4.551
10681SOL    HW243672   3.852   3.923   4.549
10682SOL     OW43673   1.123   2.463   7.327
10682SOL    HW143674   1.068   2.412   7.267
10682SOL    HW243675   1.162   2.398   7.385
10683SOL     OW43676   4.475   0.582  20.860
10683SOL    HW143677   4.493   0.628  20.942
10683SOL    HW243678   4.484   0.649  20.792
10684SOL     OW43679   1.746   4.761   9.150
10684SOL    HW143680   1.674   4.707   9.183
10684SOL    HW243681   1.703   0.052   9.104
10685SOL     OW43682   3.753   2.356  12.594
10685SOL    HW143683   3.776   2.299  12.667
10685SOL    HW243684   3.764   2.445  12.628
10686SOL     OW43685   0.744   2.837   6.287
10686SOL    HW143686   0.805   2.765   6.274
10686SOL    HW243687   0.660   2.802   6.256
10687SOL     OW43688   0.155   0.184   7.619
10687SOL    HW143689   0.104   0.206   7.541
10687SOL    HW243690   0.232   0.139   7.585
10688SOL     OW43691   1.160   1.231  21.485
10688SOL    HW143692   1.160   1.249  21.579
10688SOL    HW243693   1.220   1.297  21.449
10689SOL     OW43694   0.407   2.868  22.532
10689SOL    HW143695   0.426   2.928  22.460
10689SOL    HW243696   0.369   2.791  22.489
10690SOL     OW43697   0.439   2.048  10.310
10690SOL    HW143698   0.371   2.095  10.358
10690SOL    HW243699   0.458   1.971  10.364
10691SOL     OW43700   1.108   0.401  28.053
10691SOL    HW143701   1.016   0.397  28.078
10691SOL    HW243702   1.125   0.318  28.009
10692SOL     OW43703   4.725   2.630  21.102
10692SOL    HW143704   4.737   2.574  21.025
10692SOL    HW243705   4.636   2.663  21.093
10693SOL     OW43706   3.322   2.339   0.032
10693SOL    HW143707   3.415   2.317   0.030
10693SOL    HW243708   3.319   2.431   0.006
10694SOL     OW43709   1.805   1.023  28.189
10694SOL    HW143710   1.714   1.014  28.217
10694SOL    HW243711   1.849   1.065  28.263
10695SOL     OW43712   3.372   2.104   7.693
10695SOL    HW143713   3.374   2.196   7.716
10695SOL    HW243714   3.373   2.058   7.776
10696SOL     OW43715   0.793   0.117  23.121
10696SOL    HW143716   0.729   0.081  23.183
10696SOL    HW243717   0.875   0.074  23.145
10697SOL     OW43718   2.600   1.324  23.855
10697SOL    HW143719   2.631   1.309  23.766
10697SOL    HW243720   2.541   1.400  23.847
10698SOL     OW43721   0.151   3.492   2.958
10698SOL    HW143722   0.081   3.497   3.023
10698SOL    HW243723   0.163   3.581   2.927
10699SOL     OW43724   2.456   2.165   6.227
10699SOL    HW143725   2.450   2.148   6.321
10699SOL    HW243726   2.470   2.078   6.188
10700SOL     OW43727   0.267   1.682  27.409
10700SOL    HW143728   0.233   1.677  27.498
10700SOL    HW243729   0.344   1.739  27.415
10701SOL     OW43730   3.785   3.275   0.115
10701SOL    HW143731   3.868   3.322   0.121
10701SOL    HW243732   3.777   3.231   0.200
10702SOL     OW43733   3.250   3.198  26.245
10702SOL    HW143734   3.284   3.254  26.175
10702SOL    HW243735   3.246   3.255  26.321
10703SOL     OW43736   1.279   3.521   1.358
10703SOL    HW143737   1.259   3.539   1.450
10703SOL    HW243738   1.322   3.436   1.358
10704SOL     OW43739   0.464   3.729   2.810
10704SOL    HW143740   0.462   3.815   2.769
10704SOL    HW243741   0.446   3.668   2.739
10705SOL     OW43742   4.156   2.726   7.294
10705SOL    HW143743   4.070   2.685   7.302
10705SOL    HW243744   4.218   2.655   7.310
10706SOL     OW43745   3.986   4.113   3.441
10706SOL    HW143746   4.020   4.188   3.393
10706SOL    HW243747   3.925   4.150   3.504
10707SOL     OW43748   2.359   2.115   7.775
10707SOL    HW143749   2.354   2.133   7.868
10707SOL    HW243750   2.450   2.131   7.752
10708SOL     OW43751   2.704   1.222  19.223
10708SOL    HW143752   2.794   1.240  19.251
10708SOL    HW243753   2.653   1.295  19.259
10709SOL     OW43754   3.194   3.943   6.475
10709SOL    HW143755   3.144   3.861   6.470
10709SOL    HW243756   3.259   3.928   6.543
10710SOL     OW43757   1.543   1.790  10.319
10710SOL    HW143758   1.547   1.878  10.358
10710SOL    HW243759   1.509   1.734  10.389
10711SOL     OW43760   3.409   3.307  27.154
10711SOL    HW143761   3.499   3.322  27.126
10711SOL    HW243762   3.355   3.342  27.083
10712SOL     OW43763   3.657   2.494  19.957
10712SOL    HW143764   3.685   2.554  19.888
10712SOL    HW243765   3.562   2.501  19.958
10713SOL     OW43766   1.678   1.524   6.167
10713SOL    HW143767   1.725   1.506   6.248
10713SOL    HW243768   1.598   1.472   6.174
10714SOL     OW43769   2.401   3.909  18.394
10714SOL    HW143770   2.419   3.898  18.300
10714SOL    HW243771   2.475   3.960  18.427
10715SOL     OW43772   2.615   3.418  10.792
10715SOL    HW143773   2.679   3.455  10.853
10715SOL    HW243774   2.530   3.437  10.831
10716SOL     OW43775   1.677   1.163   0.126
10716SOL    HW143776   1.682   1.258   0.134
10716SOL    HW243777   1.593   1.140   0.166
10717SOL     OW43778   2.438   1.809  27.112
10717SOL    HW143779   2.482   1.854  27.039
10717SOL    HW243780   2.345   1.822  27.094
10718SOL     OW43781   0.682   3.105   9.396
10718SOL    HW143782   0.700   3.034   9.458
10718SOL    HW243783   0.698   3.066   9.310
10719SOL     OW43784   0.808   0.786   8.937
10719SOL    HW143785   0.829   0.854   8.874
10719SOL    HW243786   0.843   0.819   9.020
10720SOL     OW43787   2.831   4.185  27.097
10720SOL    HW143788   2.760   4.247  27.116
10720SOL    HW243789   2.824   4.119  27.165
10721SOL     OW43790   1.364   1.808  22.667
10721SOL    HW143791   1.376   1.768  22.753
10721SOL    HW243792   1.271   1.829  22.662
10722SOL     OW43793   2.223   4.596  22.941
10722SOL    HW143794   2.153   4.577  22.879
10722SOL    HW243795   2.181   4.597  23.027
10723SOL     OW43796   3.019   2.598   6.930
10723SOL    HW143797   2.994   2.587   6.839
10723SOL    HW243798   3.101   2.649   6.927
10724SOL     OW43799   0.779   2.432   8.371
10724SOL    HW143800   0.698   2.422   8.422
10724SOL    HW243801   0.756   2.496   8.304
10725SOL     OW43802   3.936   0.505   3.723
10725SOL    HW143803   4.006   0.505   3.789
10725SOL    HW243804   3.869   0.447   3.759
10726SOL     OW43805   3.991   3.272   7.473
10726SOL    HW143806   3.979   3.355   7.427
10726SOL    HW243807   4.014   3.297   7.562
10727SOL     OW43808   2.520   0.881  26.897
10727SOL    HW143809   2.523   0.944  26.824
10727SOL    HW243810   2.601   0.830  26.888
10728SOL     OW43811   0.509   4.351  26.457
10728SOL    HW143812   0.474   4.312  26.537
10728SOL    HW243813   0.434   4.355  26.398
10729SOL     OW43814   4.320   2.805  24.449
10729SOL    HW143815   4.372   2.733  24.413
10729SOL    HW243816   4.257   2.826  24.381
10730SOL     OW43817   0.766   1.247   5.289
10730SOL    HW143818   0.792   1.191   5.215
10730SOL    HW243819   0.674   1.227   5.302
10731SOL     OW43820   4.060   2.220  27.709
10731SOL    HW143821   4.084   2.166  27.634
10731SOL    HW243822   4.049   2.157  27.780
10732SOL     OW43823   1.205   1.274   6.137
10732SOL    HW143824   1.165   1.203   6.087
10732SOL    HW243825   1.139   1.297   6.203
10733SOL     OW43826   4.213   2.357   3.626
10733SOL    HW143827   4.271   2.414   3.677
10733SOL    HW243828   4.146   2.330   3.688
10734SOL     OW43829   4.514   0.580   2.577
10734SOL    HW143830   4.508   0.640   2.502
10734SOL    HW243831   4.552   0.633   2.646
10735SOL     OW43832   2.519   3.649   5.495
10735SOL    HW143833   2.483   3.733   5.523
10735SOL    HW243834   2.608   3.650   5.530
10736SOL     OW43835   2.173   1.173  26.511
10736SOL    HW143836   2.157   1.234  26.438
10736SOL    HW243837   2.231   1.222  26.570
10737SOL     OW43838   1.536   2.819   9.124
10737SOL    HW143839   1.605   2.847   9.184
10737SOL    HW243840   1.460   2.802   9.181
10738SOL     OW43841   1.776   1.285  21.076
10738SOL    HW143842   1.747   1.249  20.992
10738SOL    HW243843   1.717   1.245  21.141
10739SOL     OW43844   1.418   2.796  10.403
10739SOL    HW143845   1.507   2.763  10.399
10739SOL    HW243846   1.363   2.718  10.402
10740SOL     OW43847   3.204   1.928   4.534
10740SOL    HW143848   3.145   2.001   4.513
10740SOL    HW243849   3.229   1.944   4.625
10741SOL     OW43850   0.078   2.470  21.274
10741SOL    HW143851   0.065   2.380  21.244
10741SOL    HW243852   0.007   2.520  21.233
10742SOL     OW43853   4.301   3.968  24.945
10742SOL    HW143854   4.263   4.042  24.993
10742SOL    HW243855   4.374   4.006  24.896
10743SOL     OW43856   4.487   3.682   0.636
10743SOL    HW143857   4.470   3.751   0.699
10743SOL    HW243858   4.582   3.677   0.629
10744SOL     OW43859   4.148   3.977   6.190
10744SOL    HW143860   4.228   4.024   6.213
10744SOL    HW243861   4.117   4.020   6.111
10745SOL     OW43862   1.067   0.520   8.082
10745SOL    HW143863   1.127   0.503   8.155
10745SOL    HW243864   1.038   0.434   8.054
10746SOL     OW43865   2.927   4.264   4.595
10746SOL    HW143866   3.006   4.285   4.645
10746SOL    HW243867   2.864   4.331   4.621
10747SOL     OW43868   2.988   3.816  27.940
10747SOL    HW143869   2.991   3.875  27.864
10747SOL    HW243870   2.971   3.874  28.014
10748SOL     OW43871   3.815   3.828   1.002
10748SOL    HW143872   3.810   3.919   1.032
10748SOL    HW243873   3.736   3.787   1.035
10749SOL     OW43874   2.527   4.358   0.249
10749SOL    HW143875   2.597   4.408   0.291
10749SOL    HW243876   2.566   4.272   0.232
10750SOL     OW43877   1.712   0.895   5.451
10750SOL    HW143878   1.668   0.850   5.523
10750SOL    HW243879   1.754   0.825   5.401
10751SOL     OW43880   2.715   2.219  24.392
10751SOL    HW143881   2.642   2.253  24.443
10751SOL    HW243882   2.677   2.199  24.307
10752SOL     OW43883   4.705   2.237   7.122
10752SOL    HW143884   4.711   2.143   7.107
10752SOL    HW243885   4.614   2.259   7.104
10753SOL     OW43886   1.786   1.444   8.025
10753SOL    HW143887   1.850   1.377   8.048
10753SOL    HW243888   1.739   1.462   8.106
10754SOL     OW43889   2.929   3.560   6.739
10754SOL    HW143890   2.891   3.535   6.823
10754SOL    HW243891   2.891   3.645   6.720
10755SOL     OW43892   0.341   3.899  27.586
10755SOL    HW143893   0.378   3.897  27.674
10755SOL    HW243894   0.254   3.937  27.597
10756SOL     OW43895   3.884   2.709   7.274
10756SOL    HW143896   3.900   2.736   7.184
10756SOL    HW243897   3.876   2.614   7.269
10757SOL     OW43898   1.858   1.927   5.771
10757SOL    HW143899   1.800   1.951   5.700
10757SOL    HW243900   1.804   1.874   5.830
10758SOL     OW43901   0.248   1.049  24.662
10758SOL    HW143902   0.155   1.043  24.644
10758SOL    HW243903   0.291   1.033  24.578
10759SOL     OW43904   4.612   3.104   0.330
10759SOL    HW143905   4.700   3.079   0.358
10759SOL    HW243906   4.621   3.193   0.296
10760SOL     OW43907   0.183   3.378  10.646
10760SOL    HW143908   0.271   3.417  10.641
10760SOL    HW243909   0.124   3.448  10.619
10761SOL     OW43910   1.383   1.034   2.371
10761SOL    HW143911   1.431   1.111   2.401
10761SOL    HW243912   1.416   1.018   2.283
10762SOL     OW43913   1.652   1.449  28.284
10762SOL    HW143914   1.732   1.426  28.237
10762SOL    HW243915   1.608   1.365  28.299
10763SOL     OW43916   3.933   1.757   1.840
10763SOL    HW143917   3.931   1.845   1.803
10763SOL    HW243918   3.858   1.754   1.900
10764SOL     OW43919   1.949   2.505   1.387
10764SOL    HW143920   1.976   2.568   1.321
10764SOL    HW243921   1.881   2.453   1.345
10765SOL     OW43922   3.601   4.745   0.171
10765SOL    HW143923   3.674   4.691   0.203
10765SOL    HW243924   3.625   0.053   0.195
10766SOL     OW43925   3.080   1.649   6.209
10766SOL    HW143926   3.135   1.727   6.209
10766SOL    HW243927   2.993   1.680   6.233
10767SOL     OW43928   2.975   2.955   3.320
10767SOL    HW143929   2.957   2.861   3.310
10767SOL    HW243930   3.029   2.961   3.399
10768SOL     OW43931   3.602   4.191  25.771
10768SOL    HW143932   3.673   4.134  25.741
10768SOL    HW243933   3.530   4.174  25.710
10769SOL     OW43934   0.646   1.444  23.925
10769SOL    HW143935   0.606   1.506  23.865
10769SOL    HW243936   0.710   1.496  23.974
10770SOL     OW43937   1.541   2.657  22.263
10770SOL    HW143938   1.450   2.626  22.262
10770SOL    HW243939   1.564   2.661  22.356
10771SOL     OW43940   1.260   4.319   5.575
10771SOL    HW143941   1.342   4.368   5.584
10771SOL    HW243942   1.194   4.387   5.558
10772SOL     OW43943   1.944   4.489  25.518
10772SOL    HW143944   1.991   4.458  25.440
10772SOL    HW243945   1.876   4.423  25.533
10773SOL     OW43946   0.643   0.081   3.223
10773SOL    HW143947   0.674   4.773   3.236
10773SOL    HW243948   0.553   0.071   3.192
10774SOL     OW43949   3.744   4.589   4.711
10774SOL    HW143950   3.796   4.556   4.638
10774SOL    HW243951   3.795   4.661   4.747
10775SOL     OW43952   0.481   2.888   7.615
10775SOL    HW143953   0.525   2.962   7.657
10775SOL    HW243954   0.552   2.831   7.585
10776SOL     OW43955   4.597   0.899  25.305
10776SOL    HW143956   4.685   0.878  25.337
10776SOL    HW243957   4.572   0.978  25.352
10777SOL     OW43958   4.170   4.281   5.285
10777SOL    HW143959   4.078   4.272   5.260
10777SOL    HW243960   4.178   4.228   5.364
10778SOL     OW43961   0.414   0.720  27.164
10778SOL    HW143962   0.455   0.665  27.097
10778SOL    HW243963   0.357   0.661  27.213
10779SOL     OW43964   4.350   4.713   0.083
10779SOL    HW143965   4.416   4.696   0.016
10779SOL    HW243966   4.299   0.005   0.048
10780SOL     OW43967   1.869   1.827  20.418
10780SOL    HW143968   1.920   1.842  20.498
10780SOL    HW243969   1.931   1.788  20.357
10781SOL     OW43970   1.349   1.471   8.791
10781SOL    HW143971   1.333   1.565   8.796
10781SOL    HW243972   1.445   1.463   8.789
10782SOL     OW43973   2.603   1.572   2.337
10782SOL    HW143974   2.604   1.643   2.273
10782SOL    HW243975   2.620   1.616   2.421
10783SOL     OW43976   1.614   0.246   0.110
10783SOL    HW143977   1.590   0.158   0.082
10783SOL    HW243978   1.546   0.302   0.074
10784SOL     OW43979   4.014   1.349   4.942
10784SOL    HW143980   3.963   1.341   4.861
10784SOL    HW243981   3.948   1.361   5.011
10785SOL     OW43982   0.760   4.309   4.011
10785SOL    HW143983   0.809   4.260   4.077
10785SOL    HW243984   0.674   4.323   4.051
10786SOL     OW43985   3.027   1.667   5.589
10786SOL    HW143986   2.944   1.710   5.612
10786SOL    HW243987   3.092   1.711   5.643
10787SOL     OW43988   0.473   0.860  17.097
10787SOL    HW143989   0.514   0.835  17.180
10787SOL    HW243990   0.523   0.812  17.030
10788SOL     OW43991   2.069   3.157  22.713
10788SOL    HW143992   2.049   3.118  22.628
10788SOL    HW243993   2.152   3.118  22.739
10789SOL     OW43994   0.637   3.636  20.913
10789SOL    HW143995   0.684   3.601  20.837
10789SOL    HW243996   0.548   3.651  20.882
10790SOL     OW43997   4.216   0.225   8.048
10790SOL    HW143998   4.203   0.316   8.022
10790SOL    HW243999   4.219   0.227   8.143
10791SOL     OW44000   1.015   1.753   6.551
10791SOL    HW144001   1.104   1.736   6.518
10791SOL    HW244002   1.023   1.833   6.603
10792SOL     OW44003   1.616   1.158  24.043
10792SOL    HW144004   1.636   1.068  24.068
10792SOL    HW244005   1.547   1.150  23.977
10793SOL     OW44006   1.435   3.840  24.097
10793SOL    HW144007   1.382   3.818  24.174
10793SOL    HW244008   1.481   3.758  24.076
10794SOL     OW44009   2.917   1.935  26.153
10794SOL    HW144010   2.986   1.979  26.102
10794SOL    HW244011   2.876   2.006  26.203
10795SOL     OW44012   4.358   4.704  24.792
10795SOL    HW144013   4.445   4.704  24.832
10795SOL    HW244014   4.299   4.727  24.864
10796SOL     OW44015   0.530   4.216   3.086
10796SOL    HW144016   0.435   4.226   3.078
10796SOL    HW244017   0.565   4.250   3.004
10797SOL     OW44018   1.244   1.310  17.863
10797SOL    HW144019   1.272   1.327  17.773
10797SOL    HW244020   1.306   1.245  17.896
10798SOL     OW44021   3.939   0.484   1.311
10798SOL    HW144022   3.869   0.487   1.245
10798SOL    HW244023   3.926   0.400   1.355
10799SOL     OW44024   4.297   0.072   5.292
10799SOL    HW144025   4.345   0.101   5.215
10799SOL    HW244026   4.244   4.779   5.261
10800SOL     OW44027   1.706   4.097  23.015
10800SOL    HW144028   1.744   4.016  23.051
10800SOL    HW244029   1.701   4.081  22.921
10801SOL     OW44030   0.785   2.938  22.221
10801SOL    HW144031   0.725   2.892  22.163
10801SOL    HW244032   0.728   2.986  22.282
10802SOL     OW44033   0.479   0.773  27.867
10802SOL    HW144034   0.394   0.771  27.823
10802SOL    HW244035   0.504   0.865  27.870
10803SOL     OW44036   2.415   2.832  23.371
10803SOL    HW144037   2.365   2.912  23.389
10803SOL    HW244038   2.441   2.800  23.457
10804SOL     OW44039   1.970   3.986   5.236
10804SOL    HW144040   2.055   3.998   5.279
10804SOL    HW244041   1.992   3.961   5.146
10805SOL     OW44042   1.372   0.197   1.815
10805SOL    HW144043   1.328   0.243   1.744
10805SOL    HW244044   1.304   0.182   1.880
10806SOL     OW44045   0.666   2.440  21.775
10806SOL    HW144046   0.700   2.351  21.788
10806SOL    HW244047   0.602   2.451  21.846
10807SOL     OW44048   1.818   0.604  11.726
10807SOL    HW144049   1.833   0.542  11.797
10807SOL    HW244050   1.760   0.671  11.764
10808SOL     OW44051   3.087   4.762   9.103
10808SOL    HW144052   3.131   4.684   9.067
10808SOL    HW244053   2.999   4.731   9.125
10809SOL     OW44054   1.484   4.222   0.277
10809SOL    HW144055   1.407   4.270   0.246
10809SOL    HW244056   1.481   4.231   0.372
10810SOL     OW44057   1.694   3.442   0.935
10810SOL    HW144058   1.770   3.386   0.920
10810SOL    HW244059   1.662   3.417   1.022
10811SOL     OW44060   1.407   1.926  21.966
10811SOL    HW144061   1.454   1.871  21.903
10811SOL    HW244062   1.405   2.012  21.925
10812SOL     OW44063   1.422   1.460  21.772
10812SOL    HW144064   1.415   1.366  21.756
10812SOL    HW244065   1.503   1.486  21.728
10813SOL     OW44066   0.397   2.785   0.072
10813SOL    HW144067   0.363   2.875   0.072
10813SOL    HW244068   0.321   2.731   0.050
10814SOL     OW44069   0.572   4.021   7.460
10814SOL    HW144070   0.567   3.966   7.382
10814SOL    HW244071   0.530   3.970   7.529
10815SOL     OW44072   0.050   0.691  10.451
10815SOL    HW144073   0.009   0.606  10.433
10815SOL    HW244074   0.063   0.730  10.364
10816SOL     OW44075   2.785   4.776   5.382
10816SOL    HW144076   2.859   0.028   5.332
10816SOL    HW244077   2.709   0.014   5.327
10817SOL     OW44078   4.254   4.581  21.601
10817SOL    HW144079   4.215   4.662  21.634
10817SOL    HW244080   4.221   4.574  21.511
10818SOL     OW44081   2.623   4.066   1.463
10818SOL    HW144082   2.605   3.988   1.515
10818SOL    HW244083   2.650   4.132   1.527
10819SOL     OW44084   4.117   3.730  20.166
10819SOL    HW144085   4.192   3.711  20.223
10819SOL    HW244086   4.135   3.817  20.130
10820SOL     OW44087   4.613   4.381  24.478
10820SOL    HW144088   4.676   4.446  24.508
10820SOL    HW244089   4.548   4.377  24.548
10821SOL     OW44090   1.404   4.107   2.206
10821SOL    HW144091   1.353   4.112   2.126
10821SOL    HW244092   1.346   4.142   2.274
10822SOL     OW44093   3.180   3.059   0.768
10822SOL    HW144094   3.196   3.130   0.705
10822SOL    HW244095   3.266   3.020   0.782
10823SOL     OW44096   2.824   0.587   9.689
10823SOL    HW144097   2.816   0.547   9.603
10823SOL    HW244098   2.804   0.680   9.674
10824SOL     OW44099   0.799   4.603  21.483
10824SOL    HW144100   0.811   4.666  21.555
10824SOL    HW244101   0.751   4.651  21.416
10825SOL     OW44102   3.728   3.516   0.713
10825SOL    HW144103   3.742   3.611   0.710
10825SOL    HW244104   3.798   3.483   0.768
10826SOL     OW44105   0.224   4.604   9.128
10826SOL    HW144106   0.164   4.568   9.062
10826SOL    HW244107   0.302   4.629   9.078
10827SOL     OW44108   1.019   2.459   9.306
10827SOL    HW144109   1.008   2.409   9.387
10827SOL    HW244110   0.939   2.443   9.257
10828SOL     OW44111   3.551   3.196   9.668
10828SOL    HW144112   3.613   3.195   9.740
10828SOL    HW244113   3.479   3.252   9.698
10829SOL     OW44114   1.377   0.891  28.496
10829SOL    HW144115   1.380   0.986  28.512
10829SOL    HW244116   1.402   0.852   0.058
10830SOL     OW44117   4.330   3.530   0.467
10830SOL    HW144118   4.399   3.485   0.417
10830SOL    HW244119   4.378   3.588   0.526
10831SOL     OW44120   3.893   1.500   2.826
10831SOL    HW144121   3.953   1.439   2.783
10831SOL    HW244122   3.848   1.448   2.892
10832SOL     OW44123   4.019   0.646  11.999
10832SOL    HW144124   4.115   0.642  11.998
10832SOL    HW244125   3.998   0.738  11.982
10833SOL     OW44126   4.497   0.500  20.016
10833SOL    HW144127   4.513   0.527  19.925
10833SOL    HW244128   4.415   0.542  20.040
10834SOL     OW44129   3.671   0.369  23.189
10834SOL    HW144130   3.591   0.405  23.151
10834SOL    HW244131   3.686   0.287  23.141
10835SOL     OW44132   1.675   4.705   4.508
10835SOL    HW144133   1.671   4.628   4.565
10835SOL    HW244134   1.687   4.779   4.567
10836SOL     OW44135   1.048   1.095   0.427
10836SOL    HW144136   0.963   1.101   0.470
10836SOL    HW244137   1.033   1.036   0.353
10837SOL     OW44138   2.753   2.467   5.021
10837SOL    HW144139   2.739   2.504   4.934
10837SOL    HW244140   2.755   2.372   5.006
10838SOL     OW44141   3.703   2.309  12.330
10838SOL    HW144142   3.750   2.318  12.413
10838SOL    HW244143   3.641   2.238  12.345
10839SOL     OW44144   3.347   4.567  24.342
10839SOL    HW144145   3.373   4.487  24.388
10839SOL    HW244146   3.284   4.537  24.276
10840SOL     OW44147   0.066   4.191   6.353
10840SOL    HW144148   0.127   4.199   6.426
10840SOL    HW244149   0.104   4.124   6.296
10841SOL     OW44150   0.524   3.816   2.425
10841SOL    HW144151   0.609   3.836   2.464
10841SOL    HW244152   0.543   3.796   2.334
10842SOL     OW44153   2.485   2.492  23.913
10842SOL    HW144154   2.421   2.424  23.936
10842SOL    HW244155   2.502   2.537  23.996
10843SOL     OW44156   4.088   1.142   2.350
10843SOL    HW144157   4.007   1.172   2.391
10843SOL    HW244158   4.061   1.114   2.262
10844SOL     OW44159   0.181   1.572  23.019
10844SOL    HW144160   0.095   1.594  23.056
10844SOL    HW244161   0.202   1.646  22.962
10845SOL     OW44162   0.248   1.625  10.718
10845SOL    HW144163   0.197   1.620  10.799
10845SOL    HW244164   0.224   1.710  10.680
10846SOL     OW44165   4.461   2.632   9.412
10846SOL    HW144166   4.529   2.605   9.474
10846SOL    HW244167   4.406   2.692   9.462
10847SOL     OW44168   4.697   1.809   2.132
10847SOL    HW144169   0.006   1.804   2.101
10847SOL    HW244170   4.704   1.792   2.226
10848SOL     OW44171   3.130   0.740   9.523
10848SOL    HW144172   3.217   0.732   9.485
10848SOL    HW244173   3.083   0.661   9.495
10849SOL     OW44174   3.402   2.992  10.699
10849SOL    HW144175   3.384   2.937  10.775
10849SOL    HW244176   3.453   3.066  10.734
10850SOL     OW44177   0.680   0.027   5.153
10850SOL    HW144178   0.591   0.006   5.182
10850SOL    HW244179   0.674   0.116   5.119
10851SOL     OW44180   1.028   1.269  10.923
10851SOL    HW144181   0.944   1.294  10.962
10851SOL    HW244182   1.074   1.222  10.992
10852SOL     OW44183   1.054   1.853  22.976
10852SOL    HW144184   0.959   1.864  22.968
10852SOL    HW244185   1.082   1.828  22.888
10853SOL     OW44186   0.922   1.699  20.369
10853SOL    HW144187   0.988   1.643  20.328
10853SOL    HW244188   0.960   1.787  20.366
10854SOL     OW44189   0.698   4.025   1.010
10854SOL    HW144190   0.666   4.089   1.074
10854SOL    HW244191   0.623   3.970   0.991
10855SOL     OW44192   2.483   1.900   5.210
10855SOL    HW144193   2.449   1.853   5.286
10855SOL    HW244194   2.521   1.980   5.246
10856SOL     OW44195   0.647   1.115  24.195
10856SOL    HW144196   0.668   1.146  24.107
10856SOL    HW244197   0.609   1.029  24.182
10857SOL     OW44198   1.910   4.658   8.383
10857SOL    HW144199   1.827   4.669   8.430
10857SOL    HW244200   1.887   4.665   8.291
10858SOL     OW44201   0.602   4.356   8.536
10858SOL    HW144202   0.664   4.398   8.477
10858SOL    HW244203   0.655   4.295   8.587
10859SOL     OW44204   3.658   2.605   1.924
10859SOL    HW144205   3.680   2.574   2.012
10859SOL    HW244206   3.571   2.645   1.934
10860SOL     OW44207   1.621   0.166   3.158
10860SOL    HW144208   1.662   0.128   3.080
10860SOL    HW244209   1.678   0.240   3.181
10861SOL     OW44210   1.989   0.150  13.363
10861SOL    HW144211   2.057   0.090  13.394
10861SOL    HW244212   2.036   0.218  13.316
10862SOL     OW44213   0.059   0.681   2.331
10862SOL    HW144214   0.109   0.650   2.255
10862SOL    HW244215   0.122   0.733   2.381
10863SOL     OW44216   2.063   2.566   3.883
10863SOL    HW144217   2.016   2.542   3.962
10863SOL    HW244218   2.011   2.637   3.844
10864SOL     OW44219   3.858   4.713  22.999
10864SOL    HW144220   3.938   4.695  23.048
10864SOL    HW244221   3.868   0.022  22.968
10865SOL     OW44222   3.667   2.376   5.794
10865SOL    HW144223   3.586   2.337   5.827
10865SOL    HW244224   3.723   2.386   5.871
10866SOL     OW44225   3.110   0.500  26.557
10866SOL    HW144226   3.146   0.436  26.619
10866SOL    HW244227   3.132   0.463  26.471
10867SOL     OW44228   0.530   0.500  21.273
10867SOL    HW144229   0.439   0.513  21.302
10867SOL    HW244230   0.580   0.489  21.354
10868SOL     OW44231   4.107   1.074   2.091
10868SOL    HW144232   4.140   1.161   2.067
10868SOL    HW244233   4.075   1.037   2.008
10869SOL     OW44234   0.643   1.692  23.073
10869SOL    HW144235   0.706   1.738  23.018
10869SOL    HW244236   0.596   1.634  23.013
10870SOL     OW44237   2.174   4.411  23.558
10870SOL    HW144238   2.115   4.337  23.575
10870SOL    HW244239   2.247   4.398  23.618
10871SOL     OW44240   2.658   0.690  12.582
10871SOL    HW144241   2.670   0.726  12.670
10871SOL    HW244242   2.631   0.599  12.596
10872SOL     OW44243   3.628   2.414  13.022
10872SOL    HW144244   3.591   2.464  12.949
10872SOL    HW244245   3.556   2.357  13.050
10873SOL     OW44246   2.625   4.344  25.267
10873SOL    HW144247   2.682   4.330  25.343
10873SOL    HW244248   2.564   4.269  25.270
10874SOL     OW44249   0.526   0.691  10.955
10874SOL    HW144250   0.510   0.597  10.946
10874SOL    HW244251   0.612   0.697  10.997
10875SOL     OW44252   4.506   2.524  12.152
10875SOL    HW144253   4.595   2.498  12.128
10875SOL    HW244254   4.517   2.596  12.213
10876SOL     OW44255   4.044   4.208  26.420
10876SOL    HW144256   4.008   4.168  26.341
10876SOL    HW244257   3.970   4.211  26.481
10877SOL     OW44258   1.379   0.174  19.773
10877SOL    HW144259   1.422   0.242  19.720
10877SOL    HW244260   1.367   0.101  19.713
10878SOL     OW44261   2.055   0.551   5.987
10878SOL    HW144262   2.101   0.556   5.904
10878SOL    HW244263   2.110   0.601   6.048
10879SOL     OW44264   2.817   4.079   8.852
10879SOL    HW144265   2.842   4.049   8.940
10879SOL    HW244266   2.901   4.097   8.809
10880SOL     OW44267   2.953   3.863  13.928
10880SOL    HW144268   3.032   3.810  13.921
10880SOL    HW244269   2.947   3.908  13.844
10881SOL     OW44270   1.842   0.296   5.146
10881SOL    HW144271   1.797   0.371   5.185
10881SOL    HW244272   1.915   0.335   5.098
10882SOL     OW44273   2.788   2.013   0.755
10882SOL    HW144274   2.812   2.036   0.665
10882SOL    HW244275   2.790   2.096   0.802
10883SOL     OW44276   1.512   2.105   1.041
10883SOL    HW144277   1.556   2.189   1.049
10883SOL    HW244278   1.479   2.103   0.951
10884SOL     OW44279   3.807   1.738  22.398
10884SOL    HW144280   3.892   1.774  22.371
10884SOL    HW244281   3.777   1.799  22.466
10885SOL     OW44282   1.724   2.311  28.374
10885SOL    HW144283   1.694   2.301  28.464
10885SOL    HW244284   1.814   2.277  28.376
10886SOL     OW44285   3.474   1.761  26.848
10886SOL    HW144286   3.411   1.772  26.919
10886SOL    HW244287   3.472   1.667  26.830
10887SOL     OW44288   2.916   0.928  27.055
10887SOL    HW144289   3.000   0.900  27.090
10887SOL    HW244290   2.852   0.871  27.098
10888SOL     OW44291   1.624   1.441   0.157
10888SOL    HW144292   1.702   1.464   0.106
10888SOL    HW244293   1.642   1.475   0.245
10889SOL     OW44294   3.991   2.610  17.934
10889SOL    HW144295   3.981   2.528  17.885
10889SOL    HW244296   4.017   2.582  18.022
10890SOL     OW44297   0.286   0.608   3.068
10890SOL    HW144298   0.230   0.668   3.020
10890SOL    HW244299   0.349   0.664   3.113
10891SOL     OW44300   4.442   0.638  11.143
10891SOL    HW144301   4.480   0.563  11.098
10891SOL    HW244302   4.506   0.708  11.130
10892SOL     OW44303   3.471   2.285   8.380
10892SOL    HW144304   3.479   2.271   8.474
10892SOL    HW244305   3.426   2.368   8.371
10893SOL     OW44306   4.356   4.449  23.344
10893SOL    HW144307   4.397   4.454  23.258
10893SOL    HW244308   4.416   4.497  23.402
10894SOL     OW44309   3.221   0.753  25.163
10894SOL    HW144310   3.224   0.848  25.171
10894SOL    HW244311   3.290   0.721  25.220
10895SOL     OW44312   0.506   4.566   1.266
10895SOL    HW144313   0.434   4.626   1.244
10895SOL    HW244314   0.462   4.486   1.295
10896SOL     OW44315   3.217   0.300  27.565
10896SOL    HW144316   3.301   0.332  27.531
10896SOL    HW244317   3.200   0.220  27.515
10897SOL     OW44318   0.919   4.560   0.336
10897SOL    HW144319   0.909   4.645   0.293
10897SOL    HW244320   0.851   4.505   0.299
10898SOL     OW44321   0.025   1.179  10.322
10898SOL    HW144322   0.004   1.185  10.415
10898SOL    HW244323   4.733   1.130  10.284
10899SOL     OW44324   2.398   3.996   9.332
10899SOL    HW144325   2.442   3.979   9.415
10899SOL    HW244326   2.332   4.062   9.353
10900SOL     OW44327   3.562   0.758  11.182
10900SOL    HW144328   3.614   0.721  11.252
10900SOL    HW244329   3.497   0.813  11.226
10901SOL     OW44330   2.052   1.838  10.700
10901SOL    HW144331   2.123   1.831  10.763
10901SOL    HW244332   2.065   1.766  10.639
10902SOL     OW44333   0.756   2.892   7.422
10902SOL    HW144334   0.764   2.852   7.508
10902SOL    HW244335   0.772   2.820   7.361
10903SOL     OW44336   4.561   2.129  20.996
10903SOL    HW144337   4.625   2.094  21.058
10903SOL    HW244338   4.582   2.086  20.913
10904SOL     OW44339   0.329   4.516  28.172
10904SOL    HW144340   0.328   4.522  28.076
10904SOL    HW244341   0.412   4.473  28.193
10905SOL     OW44342   4.005   4.251   8.938
10905SOL    HW144343   4.037   4.171   8.897
10905SOL    HW244344   3.982   4.308   8.865
10906SOL     OW44345   0.373   2.717  23.925
10906SOL    HW144346   0.443   2.741  23.985
10906SOL    HW244347   0.322   2.798  23.914
10907SOL     OW44348   2.033   2.925  25.014
10907SOL    HW144349   2.094   2.974  25.067
10907SOL    HW244350   2.081   2.847  24.987
10908SOL     OW44351   3.833   1.193  26.215
10908SOL    HW144352   3.820   1.258  26.285
10908SOL    HW244353   3.891   1.237  26.152
10909SOL     OW44354   2.507   4.580  25.537
10909SOL    HW144355   2.560   4.501  25.545
10909SOL    HW244356   2.570   4.652  25.544
10910SOL     OW44357   0.586   1.495  26.908
10910SOL    HW144358   0.528   1.512  26.834
10910SOL    HW244359   0.675   1.502  26.872
10911SOL     OW44360   0.112   1.542  28.403
10911SOL    HW144361   0.059   1.620  28.386
10911SOL    HW244362   0.110   1.532  28.498
10912SOL     OW44363   4.090   2.722  22.731
10912SOL    HW144364   4.001   2.752  22.713
10912SOL    HW244365   4.098   2.726  22.826
10913SOL     OW44366   2.351   0.125   6.176
10913SOL    HW144367   2.296   0.203   6.187
10913SOL    HW244368   2.399   0.140   6.095
10914SOL     OW44369   3.853   1.148  12.204
10914SOL    HW144370   3.938   1.193  12.201
10914SOL    HW244371   3.868   1.073  12.262
10915SOL     OW44372   1.795   3.988   3.635
10915SOL    HW144373   1.799   4.075   3.673
10915SOL    HW244374   1.876   3.946   3.663
10916SOL     OW44375   3.540   3.803   4.080
10916SOL    HW144376   3.473   3.775   4.142
10916SOL    HW244377   3.610   3.738   4.090
10917SOL     OW44378   2.228   0.442   6.602
10917SOL    HW144379   2.160   0.449   6.534
10917SOL    HW244380   2.294   0.385   6.564
10918SOL     OW44381   3.000   4.372  23.788
10918SOL    HW144382   2.951   4.395  23.709
10918SOL    HW244383   2.933   4.340  23.849
10919SOL     OW44384   1.299   0.261  21.227
10919SOL    HW144385   1.211   0.236  21.201
10919SOL    HW244386   1.346   0.273  21.144
10920SOL     OW44387   3.281   1.535   2.675
10920SOL    HW144388   3.365   1.490   2.682
10920SOL    HW244389   3.216   1.470   2.702
10921SOL     OW44390   1.486   0.285   6.725
10921SOL    HW144391   1.478   0.190   6.733
10921SOL    HW244392   1.486   0.316   6.815
10922SOL     OW44393   2.591   0.519  13.511
10922SOL    HW144394   2.630   0.536  13.596
10922SOL    HW244395   2.653   0.554  13.448
10923SOL     OW44396   4.150   1.527  21.762
10923SOL    HW144397   4.129   1.453  21.704
10923SOL    HW244398   4.205   1.488  21.830
10924SOL     OW44399   2.232   0.918   8.656
10924SOL    HW144400   2.248   0.832   8.695
10924SOL    HW244401   2.189   0.899   8.572
10925SOL     OW44402   3.271   0.461  19.914
10925SOL    HW144403   3.269   0.529  19.847
10925SOL    HW244404   3.184   0.464  19.954
10926SOL     OW44405   0.643   0.298  20.643
10926SOL    HW144406   0.575   0.240  20.611
10926SOL    HW244407   0.676   0.256  20.723
10927SOL     OW44408   0.946   2.580  23.145
10927SOL    HW144409   0.876   2.578  23.079
10927SOL    HW244410   1.012   2.638  23.107
10928SOL     OW44411   4.325   4.204  23.231
10928SOL    HW144412   4.344   4.283  23.282
10928SOL    HW244413   4.242   4.223  23.187
10929SOL     OW44414   3.617   1.258  11.713
10929SOL    HW144415   3.593   1.333  11.767
10929SOL    HW244416   3.593   1.182  11.765
10930SOL     OW44417   0.016   3.591  23.918
10930SOL    HW144418   0.023   3.590  23.823
10930SOL    HW244419   4.777   3.501  23.942
10931SOL     OW44420   0.599   4.659  26.935
10931SOL    HW144421   0.567   4.720  26.868
10931SOL    HW244422   0.680   4.698  26.966
10932SOL     OW44423   1.954   0.479   3.302
10932SOL    HW144424   1.978   0.494   3.211
10932SOL    HW244425   1.862   0.505   3.308
10933SOL     OW44426   2.811   1.616   8.401
10933SOL    HW144427   2.727   1.656   8.423
10933SOL    HW244428   2.859   1.616   8.484
10934SOL     OW44429   1.997   3.273   6.912
10934SOL    HW144430   1.922   3.257   6.969
10934SOL    HW244431   2.041   3.349   6.951
10935SOL     OW44432   0.445   0.690  23.330
10935SOL    HW144433   0.372   0.650  23.376
10935SOL    HW244434   0.508   0.619  23.318
10936SOL     OW44435   2.141   0.018   7.816
10936SOL    HW144436   2.133   0.099   7.867
10936SOL    HW244437   2.219   0.032   7.762
10937SOL     OW44438   1.140   2.827   6.946
10937SOL    HW144439   1.059   2.862   6.983
10937SOL    HW244440   1.198   2.903   6.939
10938SOL     OW44441   4.172   1.045   9.617
10938SOL    HW144442   4.148   0.987   9.544
10938SOL    HW244443   4.215   1.119   9.574
10939SOL     OW44444   2.511   1.380  26.347
10939SOL    HW144445   2.441   1.444  26.333
10939SOL    HW244446   2.490   1.308  26.288
10940SOL     OW44447   4.607   1.704   2.628
10940SOL    HW144448   4.663   1.694   2.705
10940SOL    HW244449   4.534   1.759   2.659
10941SOL     OW44450   0.888   0.626   6.529
10941SOL    HW144451   0.975   0.612   6.566
10941SOL    HW244452   0.830   0.632   6.605
10942SOL     OW44453   2.200   0.104  21.762
10942SOL    HW144454   2.233   0.118  21.674
10942SOL    HW244455   2.271   0.135  21.819
10943SOL     OW44456   4.645   0.416  25.235
10943SOL    HW144457   4.593   0.492  25.260
10943SOL    HW244458   4.711   0.450  25.175
10944SOL     OW44459   0.273   1.848  20.178
10944SOL    HW144460   0.208   1.918  20.168
10944SOL    HW244461   0.224   1.768  20.158
10945SOL     OW44462   3.330   3.493  18.542
10945SOL    HW144463   3.418   3.496  18.507
10945SOL    HW244464   3.283   3.562  18.496
10946SOL     OW44465   2.038   3.087   2.416
10946SOL    HW144466   1.948   3.059   2.397
10946SOL    HW244467   2.086   3.006   2.431
10947SOL     OW44468   1.198   1.381  26.005
10947SOL    HW144469   1.128   1.317  26.012
10947SOL    HW244470   1.187   1.438  26.082
10948SOL     OW44471   3.415   1.839  23.245
10948SOL    HW144472   3.405   1.796  23.330
10948SOL    HW244473   3.360   1.788  23.186
10949SOL     OW44474   1.061   0.137  21.181
10949SOL    HW144475   0.996   0.084  21.135
10949SOL    HW244476   1.027   0.142  21.271
10950SOL     OW44477   1.634   1.397  19.439
10950SOL    HW144478   1.611   1.341  19.365
10950SOL    HW244479   1.552   1.410  19.486
10951SOL     OW44480   2.074   3.492   4.857
10951SOL    HW144481   2.060   3.472   4.949
10951SOL    HW244482   2.016   3.566   4.839
10952SOL     OW44483   4.357   2.705  25.663
10952SOL    HW144484   4.357   2.789  25.709
10952SOL    HW244485   4.341   2.639  25.730
10953SOL     OW44486   4.488   3.324  23.282
10953SOL    HW144487   4.446   3.410  23.292
10953SOL    HW244488   4.429   3.275  23.225
10954SOL     OW44489   0.943   0.306   6.124
10954SOL    HW144490   0.895   0.352   6.192
10954SOL    HW244491   0.921   0.214   6.136
10955SOL     OW44492   1.456   0.755   3.015
10955SOL    HW144493   1.502   0.720   3.091
10955SOL    HW244494   1.428   0.678   2.966
10956SOL     OW44495   1.132   1.196  18.300
10956SOL    HW144496   1.137   1.250  18.220
10956SOL    HW244497   1.142   1.107  18.268
10957SOL     OW44498   3.201   1.537   1.199
10957SOL    HW144499   3.125   1.504   1.151
10957SOL    HW244500   3.248   1.458   1.225
10958SOL     OW44501   3.021   0.086  12.805
10958SOL    HW144502   2.938   0.132  12.815
10958SOL    HW244503   3.084   0.153  12.781
10959SOL     OW44504   4.577   4.220  22.448
10959SOL    HW144505   4.663   4.187  22.422
10959SOL    HW244506   4.585   4.315  22.444
10960SOL     OW44507   4.451   2.260  10.188
10960SOL    HW144508   4.422   2.239  10.277
10960SOL    HW244509   4.444   2.177  10.141
10961SOL     OW44510   3.983   1.482   3.692
10961SOL    HW144511   3.890   1.500   3.678
10961SOL    HW244512   4.015   1.559   3.739
10962SOL     OW44513   2.222   3.179  27.565
10962SOL    HW144514   2.205   3.114  27.497
10962SOL    HW244515   2.142   3.180  27.617
10963SOL     OW44516   2.074   1.430  21.247
10963SOL    HW144517   2.093   1.492  21.318
10963SOL    HW244518   1.994   1.465  21.206
10964SOL     OW44519   3.588   1.168  11.432
10964SOL    HW144520   3.628   1.098  11.380
10964SOL    HW244521   3.607   1.145  11.522
10965SOL     OW44522   4.778   4.567  28.507
10965SOL    HW144523   4.731   4.492   0.022
10965SOL    HW244524   0.026   4.535  28.421
10966SOL     OW44525   3.002   2.106  12.319
10966SOL    HW144526   2.992   2.022  12.275
10966SOL    HW244527   2.991   2.171  12.250
10967SOL     OW44528   0.322   1.036  23.956
10967SOL    HW144529   0.412   1.036  23.924
10967SOL    HW244530   0.275   1.094  23.896
10968SOL     OW44531   2.898   0.302  25.890
10968SOL    HW144532   2.841   0.337  25.958
10968SOL    HW244533   2.864   0.214  25.874
10969SOL     OW44534   2.016   2.452   1.842
10969SOL    HW144535   2.085   2.474   1.905
10969SOL    HW244536   1.939   2.436   1.896
10970SOL     OW44537   3.692   4.026   4.094
10970SOL    HW144538   3.623   3.960   4.098
10970SOL    HW244539   3.773   3.975   4.086
10971SOL     OW44540   3.889   3.342   7.930
10971SOL    HW144541   3.854   3.262   7.967
10971SOL    HW244542   3.918   3.393   8.006
10972SOL     OW44543   2.756   0.212  27.828
10972SOL    HW144544   2.687   0.147  27.814
10972SOL    HW244545   2.767   0.254  27.742
10973SOL     OW44546   0.130   0.281   4.380
10973SOL    HW144547   0.200   0.222   4.354
10973SOL    HW244548   0.053   0.224   4.390
10974SOL     OW44549   2.658   4.292  11.051
10974SOL    HW144550   2.650   4.387  11.054
10974SOL    HW244551   2.599   4.261  11.120
10975SOL     OW44552   4.239   1.707  12.744
10975SOL    HW144553   4.265   1.651  12.817
10975SOL    HW244554   4.218   1.791  12.784
10976SOL     OW44555   4.568   1.126  13.055
10976SOL    HW144556   4.593   1.217  13.044
10976SOL    HW244557   4.630   1.092  13.120
10977SOL     OW44558   0.437   1.676  13.378
10977SOL    HW144559   0.367   1.699  13.438
10977SOL    HW244560   0.515   1.668  13.434
10978SOL     OW44561   3.927   0.903  11.994
10978SOL    HW144562   3.854   0.955  11.959
10978SOL    HW244563   3.990   0.968  12.025
10979SOL     OW44564   4.016   3.086  12.808
10979SOL    HW144565   4.024   3.166  12.861
10979SOL    HW244566   3.938   3.100  12.755
10980SOL     OW44567   3.974   1.764  11.446
10980SOL    HW144568   3.914   1.696  11.476
10980SOL    HW244569   3.923   1.816  11.384
10981SOL     OW44570   0.097   1.164  11.952
10981SOL    HW144571   0.107   1.070  11.968
10981SOL    HW244572   0.183   1.201  11.968
10982SOL     OW44573   0.488   0.219  12.393
10982SOL    HW144574   0.560   0.276  12.420
10982SOL    HW244575   0.453   0.183  12.475
10983SOL     OW44576   2.546   4.504  26.796
10983SOL    HW144577   2.454   4.481  26.781
10983SOL    HW244578   2.555   4.507  26.891
10984SOL     OW44579   1.452   4.159  11.282
10984SOL    HW144580   1.429   4.081  11.332
10984SOL    HW244581   1.382   4.221  11.301
10985SOL     OW44582   0.383   1.584  12.273
10985SOL    HW144583   0.428   1.501  12.259
10985SOL    HW244584   0.315   1.587  12.206
10986SOL     OW44585   3.239   1.466   5.417
10986SOL    HW144586   3.221   1.372   5.421
10986SOL    HW244587   3.154   1.506   5.397
10987SOL     OW44588   0.493   0.470  13.523
10987SOL    HW144589   0.501   0.378  13.498
10987SOL    HW244590   0.512   0.518  13.442
10988SOL     OW44591   4.228   1.181  12.547
10988SOL    HW144592   4.232   1.087  12.566
10988SOL    HW244593   4.223   1.223  12.633
10989SOL     OW44594   0.419   0.431  11.642
10989SOL    HW144595   0.495   0.488  11.629
10989SOL    HW244596   0.457   0.343  11.654
10990SOL     OW44597   3.257   2.433  11.199
10990SOL    HW144598   3.345   2.402  11.221
10990SOL    HW244599   3.248   2.415  11.105
10991SOL     OW44600   1.631   0.031  12.482
10991SOL    HW144601   1.682   4.755  12.540
10991SOL    HW244602   1.589   0.094  12.541
10992SOL     OW44603   1.422   0.740  11.985
10992SOL    HW144604   1.405   0.688  12.064
10992SOL    HW244605   1.366   0.700  11.918
10993SOL     OW44606   0.001   0.684  13.841
10993SOL    HW144607   4.739   0.726  13.767
10993SOL    HW244608   4.711   0.643  13.890
10994SOL     OW44609   4.049   1.668  12.515
10994SOL    HW144610   4.100   1.684  12.594
10994SOL    HW244611   4.006   1.584  12.530
10995SOL     OW44612   1.423   3.316  11.898
10995SOL    HW144613   1.390   3.227  11.884
10995SOL    HW244614   1.518   3.306  11.894
10996SOL     OW44615   0.256   0.565  13.792
10996SOL    HW144616   0.172   0.607  13.810
10996SOL    HW244617   0.321   0.630  13.817
10997SOL     OW44618   3.675   0.394  11.183
10997SOL    HW144619   3.747   0.400  11.120
10997SOL    HW244620   3.714   0.353  11.260
10998SOL     OW44621   1.239   0.805  10.437
10998SOL    HW144622   1.311   0.843  10.487
10998SOL    HW244623   1.188   0.880  10.407
10999SOL     OW44624   3.583   4.425  12.926
10999SOL    HW144625   3.668   4.456  12.955
10999SOL    HW244626   3.520   4.479  12.975
11000SOL     OW44627   4.680   1.106  12.393
11000SOL    HW144628   4.605   1.062  12.435
11000SOL    HW244629   4.658   1.199  12.398
11001SOL     OW44630   2.826   1.986  18.826
11001SOL    HW144631   2.827   2.062  18.769
11001SOL    HW244632   2.738   1.949  18.815
11002SOL     OW44633   0.328   4.742  13.385
11002SOL    HW144634   0.305   4.723  13.476
11002SOL    HW244635   0.317   4.658  13.339
11003SOL     OW44636   3.799   1.971  11.317
11003SOL    HW144637   3.752   2.042  11.273
11003SOL    HW244638   3.873   2.015  11.360
11004SOL     OW44639   4.653   0.738  12.538
11004SOL    HW144640   4.607   0.822  12.536
11004SOL    HW244641   4.617   0.694  12.615
11005SOL     OW44642   0.916   1.990   7.351
11005SOL    HW144643   0.839   2.035   7.386
11005SOL    HW244644   0.900   1.985   7.257
11006SOL     OW44645   2.745   4.235  28.452
11006SOL    HW144646   2.828   4.219  28.497
11006SOL    HW244647   2.686   4.169  28.486
11007SOL     OW44648   1.682   0.782  11.891
11007SOL    HW144649   1.589   0.787  11.912
11007SOL    HW244650   1.724   0.755  11.972
11008SOL     OW44651   0.843   4.080  13.438
11008SOL    HW144652   0.843   4.073  13.534
11008SOL    HW244653   0.935   4.095  13.416
11009SOL     OW44654   0.148   2.925  12.873
11009SOL    HW144655   0.095   2.997  12.839
11009SOL    HW244656   0.161   2.947  12.966
11010SOL     OW44657   1.150   0.315   6.741
11010SOL    HW144658   1.160   0.230   6.784
11010SOL    HW244659   1.202   0.375   6.795
11011SOL     OW44660   1.178   4.610  13.726
11011SOL    HW144661   1.270   4.636  13.717
11011SOL    HW244662   1.136   4.684  13.770
11012SOL     OW44663   3.864   1.863  12.274
11012SOL    HW144664   3.800   1.829  12.337
11012SOL    HW244665   3.949   1.843  12.313
11013SOL     OW44666   4.134   4.303  12.483
11013SOL    HW144667   4.158   4.381  12.533
11013SOL    HW244668   4.192   4.234  12.514
11014SOL     OW44669   1.377   2.215  12.501
11014SOL    HW144670   1.295   2.194  12.546
11014SOL    HW244671   1.410   2.130  12.472
11015SOL     OW44672   0.290   1.832  12.295
11015SOL    HW144673   0.270   1.860  12.384
11015SOL    HW244674   0.322   1.743  12.305
11016SOL     OW44675   0.554   0.318  13.205
11016SOL    HW144676   0.561   0.413  13.215
11016SOL    HW244677   0.533   0.286  13.293
11017SOL     OW44678   0.328   0.253  13.053
11017SOL    HW144679   0.247   0.240  13.103
11017SOL    HW244680   0.384   0.303  13.112
11018SOL     OW44681   0.627   1.085  12.020
11018SOL    HW144682   0.696   1.025  12.049
11018SOL    HW244683   0.547   1.051  12.060
11019SOL     OW44684   4.261   2.741  10.279
11019SOL    HW144685   4.346   2.755  10.238
11019SOL    HW244686   4.247   2.820  10.332
11020SOL     OW44687   4.313   2.371  11.038
11020SOL    HW144688   4.296   2.329  10.954
11020SOL    HW244689   4.392   2.423  11.023
11021SOL     OW44690   0.607   2.595  11.401
11021SOL    HW144691   0.513   2.591  11.419
11021SOL    HW244692   0.634   2.503  11.394
11022SOL     OW44693   1.372   0.409  13.050
11022SOL    HW144694   1.414   0.493  13.031
11022SOL    HW244695   1.285   0.433  13.083
11023SOL     OW44696   1.198   1.033  11.948
11023SOL    HW144697   1.138   1.029  12.022
11023SOL    HW244698   1.277   0.987  11.977
11024SOL     OW44699   0.378   0.577  11.317
11024SOL    HW144700   0.426   0.660  11.315
11024SOL    HW244701   0.445   0.510  11.332
11025SOL     OW44702   0.596   0.402  11.224
11025SOL    HW144703   0.578   0.334  11.288
11025SOL    HW244704   0.662   0.457  11.265
11026SOL     OW44705   2.453   2.403  11.277
11026SOL    HW144706   2.381   2.341  11.263
11026SOL    HW244707   2.529   2.363  11.235
11027SOL     OW44708   2.536   0.010  12.442
11027SOL    HW144709   2.611   0.025  12.499
11027SOL    HW244710   2.574   4.760  12.360
11028SOL     OW44711   0.006   0.267  12.756
11028SOL    HW144712   4.770   0.206  12.828
11028SOL    HW244713   0.067   0.331  12.792
11029SOL     OW44714   2.456   0.342  14.017
11029SOL    HW144715   2.396   0.353  14.091
11029SOL    HW244716   2.468   0.247  14.010
11030SOL     OW44717   0.121   1.535  13.475
11030SOL    HW144718   0.168   1.485  13.541
11030SOL    HW244719   0.166   1.620  13.473
11031SOL     OW44720   4.753   2.837  13.167
11031SOL    HW144721   4.693   2.896  13.212
11031SOL    HW244722   0.059   2.862  13.199
11032SOL     OW44723   0.347   2.725  12.913
11032SOL    HW144724   0.286   2.796  12.893
11032SOL    HW244725   0.412   2.728  12.843
11033SOL     OW44726   0.031   0.071   9.778
11033SOL    HW144727   4.770   0.015   9.712
11033SOL    HW244728   0.060   0.148   9.729
11034SOL     OW44729   2.770   2.515  13.265
11034SOL    HW144730   2.728   2.483  13.185
11034SOL    HW244731   2.818   2.593  13.237
11035SOL     OW44732   3.790   2.222  12.843
11035SOL    HW144733   3.769   2.135  12.877
11035SOL    HW244734   3.740   2.282  12.898
11036SOL     OW44735   4.440   1.828  12.596
11036SOL    HW144736   4.374   1.767  12.628
11036SOL    HW244737   4.429   1.907  12.649
11037SOL     OW44738   0.893   1.487  12.215
11037SOL    HW144739   0.899   1.416  12.279
11037SOL    HW244740   0.872   1.564  12.267
11038SOL     OW44741   0.524   2.283   5.708
11038SOL    HW144742   0.612   2.300   5.742
11038SOL    HW244743   0.469   2.348   5.751
11039SOL     OW44744   0.665   3.046   8.834
11039SOL    HW144745   0.736   3.012   8.888
11039SOL    HW244746   0.709   3.101   8.770
11040SOL     OW44747   3.202   1.936  12.845
11040SOL    HW144748   3.165   2.024  12.855
11040SOL    HW244749   3.273   1.933  12.909
11041SOL     OW44750   4.648   0.903   9.275
11041SOL    HW144751   4.617   0.986   9.313
11041SOL    HW244752   4.586   0.837   9.307
11042SOL     OW44753   4.709   3.243   2.076
11042SOL    HW144754   4.742   3.272   1.991
11042SOL    HW244755   4.778   3.186   2.110
11043SOL     OW44756   0.325   4.174  10.646
11043SOL    HW144757   0.381   4.227  10.589
11043SOL    HW244758   0.262   4.237  10.682
11044SOL     OW44759   1.197   1.940  13.253
11044SOL    HW144760   1.239   1.901  13.176
11044SOL    HW244761   1.193   2.033  13.233
11045SOL     OW44762   2.254   0.827   8.070
11045SOL    HW144763   2.316   0.833   7.998
11045SOL    HW244764   2.268   0.740   8.108
11046SOL     OW44765   4.378   1.541  13.049
11046SOL    HW144766   4.356   1.509  13.136
11046SOL    HW244767   4.406   1.632  13.063
11047SOL     OW44768   3.547   1.463  11.883
11047SOL    HW144769   3.528   1.441  11.974
11047SOL    HW244770   3.537   1.558  11.878
11048SOL     OW44771   1.205   1.487  13.899
11048SOL    HW144772   1.208   1.511  13.991
11048SOL    HW244773   1.283   1.528  13.861
11049SOL     OW44774   4.443   1.124  14.324
11049SOL    HW144775   4.356   1.087  14.309
11049SOL    HW244776   4.499   1.048  14.339
11050SOL     OW44777   4.550   1.248  14.078
11050SOL    HW144778   4.628   1.199  14.051
11050SOL    HW244779   4.509   1.192  14.145
11051SOL     OW44780   4.050   0.799  14.362
11051SOL    HW144781   3.967   0.844  14.382
11051SOL    HW244782   4.111   0.870  14.345
11052SOL     OW44783   0.342   1.345  11.934
11052SOL    HW144784   0.365   1.309  12.020
11052SOL    HW244785   0.329   1.439  11.951
11053SOL     OW44786   3.630   2.153  13.396
11053SOL    HW144787   3.676   2.105  13.327
11053SOL    HW244788   3.602   2.086  13.458
11054SOL     OW44789   3.586   2.724  13.531
11054SOL    HW144790   3.664   2.673  13.555
11054SOL    HW244791   3.512   2.671  13.560
11055SOL     OW44792   0.351   0.992  14.264
11055SOL    HW144793   0.328   0.899  14.272
11055SOL    HW244794   0.274   1.032  14.225
11056SOL     OW44795   0.791   0.974  13.856
11056SOL    HW144796   0.819   1.029  13.783
11056SOL    HW244797   0.774   1.036  13.928
11057SOL     OW44798   3.774   1.544  14.176
11057SOL    HW144799   3.860   1.576  14.151
11057SOL    HW244800   3.781   1.449  14.174
11058SOL     OW44801   3.852   1.282  14.149
11058SOL    HW144802   3.898   1.202  14.173
11058SOL    HW244803   3.770   1.253  14.110
11059SOL     OW44804   1.281   1.340  14.377
11059SOL    HW144805   1.268   1.415  14.435
11059SOL    HW244806   1.375   1.325  14.377
11060SOL     OW44807   0.895   2.378  14.172
11060SOL    HW144808   0.913   2.445  14.237
11060SOL    HW244809   0.811   2.403  14.134
11061SOL     OW44810   4.175   1.557  13.606
11061SOL    HW144811   4.226   1.584  13.683
11061SOL    HW244812   4.159   1.463  13.620
11062SOL     OW44813   0.056   2.082  13.985
11062SOL    HW144814   0.060   2.166  13.938
11062SOL    HW244815   4.772   2.031  13.936
11063SOL     OW44816   4.393   1.552  13.326
11063SOL    HW144817   4.389   1.584  13.416
11063SOL    HW244818   4.487   1.553  13.305
11064SOL     OW44819   4.632   0.861  13.635
11064SOL    HW144820   4.542   0.855  13.602
11064SOL    HW244821   4.624   0.910  13.717
11065SOL     OW44822   4.371   0.734  12.770
11065SOL    HW144823   4.316   0.662  12.800
11065SOL    HW244824   4.458   0.696  12.762
11066SOL     OW44825   4.008   1.611  14.803
11066SOL    HW144826   4.065   1.673  14.847
11066SOL    HW244827   3.952   1.576  14.873
11067SOL     OW44828   0.180   0.423  12.895
11067SOL    HW144829   0.244   0.365  12.937
11067SOL    HW244830   0.189   0.506  12.942
11068SOL     OW44831   0.272   0.468  14.690
11068SOL    HW144832   0.219   0.403  14.736
11068SOL    HW244833   0.360   0.456  14.725
11069SOL     OW44834   4.026   0.813  12.746
11069SOL    HW144835   3.982   0.728  12.743
11069SOL    HW244836   4.045   0.827  12.839
11070SOL     OW44837   0.753   1.169  14.056
11070SOL    HW144838   0.831   1.219  14.079
11070SOL    HW244839   0.680   1.220  14.091
11071SOL     OW44840   4.537   0.569  13.912
11071SOL    HW144841   4.474   0.524  13.856
11071SOL    HW244842   4.485   0.600  13.987
11072SOL     OW44843   3.919   0.561  12.736
11072SOL    HW144844   3.913   0.546  12.641
11072SOL    HW244845   3.842   0.517  12.772
11073SOL     OW44846   0.180   2.096  13.644
11073SOL    HW144847   0.118   2.148  13.695
11073SOL    HW244848   0.263   2.144  13.652
11074SOL     OW44849   4.346   0.630  14.094
11074SOL    HW144850   4.370   0.718  14.124
11074SOL    HW244851   4.252   0.625  14.107
11075SOL     OW44852   1.193   1.179  14.182
11075SOL    HW144853   1.230   1.241  14.246
11075SOL    HW244854   1.113   1.221  14.152
11076SOL     OW44855   4.314   1.399  13.999
11076SOL    HW144856   4.399   1.356  14.011
11076SOL    HW244857   4.303   1.453  14.077
11077SOL     OW44858   0.160   0.922  13.929
11077SOL    HW144859   0.113   0.839  13.914
11077SOL    HW244860   0.250   0.904  13.902
11078SOL     OW44861   0.016   1.954  13.466
11078SOL    HW144862   4.720   2.010  13.454
11078SOL    HW244863   0.059   1.990  13.543
11079SOL     OW44864   0.307   1.988  13.959
11079SOL    HW144865   0.218   2.023  13.964
11079SOL    HW244866   0.306   1.931  13.882
11080SOL     OW44867   0.843   0.733  13.651
11080SOL    HW144868   0.749   0.713  13.643
11080SOL    HW244869   0.847   0.805  13.714
11081SOL     OW44870   3.852   0.094  14.206
11081SOL    HW144871   3.766   0.136  14.198
11081SOL    HW244872   3.904   0.133  14.135
11082SOL     OW44873   0.229   1.783  13.504
11082SOL    HW144874   0.177   1.857  13.472
11082SOL    HW244875   0.256   1.808  13.592
11083SOL     OW44876   1.098   0.106  13.891
11083SOL    HW144877   1.051   0.144  13.817
11083SOL    HW244878   1.042   0.122  13.967
11084SOL     OW44879   4.359   1.616  13.815
11084SOL    HW144880   4.345   1.545  13.877
11084SOL    HW244881   4.437   1.592  13.766
11085SOL     OW44882   0.083   0.171  12.517
11085SOL    HW144883   0.023   0.182  12.590
11085SOL    HW244884   0.168   0.153  12.557
11086SOL     OW44885   0.396   0.730  13.978
11086SOL    HW144886   0.361   0.725  14.066
11086SOL    HW244887   0.491   0.730  13.989
11087SOL     OW44888   1.116   2.427  15.225
11087SOL    HW144889   1.131   2.449  15.317
11087SOL    HW244890   1.169   2.348  15.211
11088SOL     OW44891   0.550   1.506  15.504
11088SOL    HW144892   0.505   1.424  15.525
11088SOL    HW244893   0.545   1.512  15.409
11089SOL     OW44894   3.866   0.997  14.423
11089SOL    HW144895   3.800   0.953  14.371
11089SOL    HW244896   3.907   1.059  14.363
11090SOL     OW44897   0.469   1.040  14.001
11090SOL    HW144898   0.557   1.068  14.027
11090SOL    HW244899   0.429   1.010  14.083
11091SOL     OW44900   3.419   2.097  15.424
11091SOL    HW144901   3.443   2.006  15.406
11091SOL    HW244902   3.324   2.096  15.434
11092SOL     OW44903   0.849   2.405  13.394
11092SOL    HW144904   0.906   2.376  13.465
11092SOL    HW244905   0.886   2.363  13.316
11093SOL     OW44906   4.390   2.479  14.610
11093SOL    HW144907   4.414   2.572  14.613
11093SOL    HW244908   4.386   2.453  14.702
11094SOL     OW44909   0.655   2.235  12.663
11094SOL    HW144910   0.673   2.194  12.748
11094SOL    HW244911   0.741   2.264  12.632
11095SOL     OW44912   0.966   1.862  14.014
11095SOL    HW144913   1.023   1.849  14.090
11095SOL    HW244914   0.886   1.900  14.051
11096SOL     OW44915   4.247   0.932  12.650
11096SOL    HW144916   4.155   0.915  12.669
11096SOL    HW244917   4.295   0.869  12.703
11097SOL     OW44918   0.280   1.800  14.272
11097SOL    HW144919   0.309   1.837  14.355
11097SOL    HW244920   0.200   1.849  14.251
11098SOL     OW44921   0.035   1.170  13.793
11098SOL    HW144922   4.727   1.140  13.776
11098SOL    HW244923   0.083   1.090  13.815
11099SOL     OW44924   3.803   0.960  12.757
11099SOL    HW144925   3.877   0.902  12.741
11099SOL    HW244926   3.726   0.906  12.741
11100SOL     OW44927   0.034   1.471  13.059
11100SOL    HW144928   0.087   1.549  13.043
11100SOL    HW244929   0.097   1.400  13.068
11101SOL     OW44930   0.659   1.508  13.442
11101SOL    HW144931   0.752   1.527  13.432
11101SOL    HW244932   0.654   1.413  13.433
11102SOL     OW44933   3.136   1.254  13.114
11102SOL    HW144934   3.167   1.325  13.169
11102SOL    HW244935   3.201   1.247  13.044
11103SOL     OW44936   1.247   1.594  14.482
11103SOL    HW144937   1.333   1.631  14.502
11103SOL    HW244938   1.186   1.645  14.536
11104SOL     OW44939   4.017   1.469  14.034
11104SOL    HW144940   4.112   1.452  14.038
11104SOL    HW244941   3.978   1.394  14.078
11105SOL     OW44942   0.016   1.817  13.232
11105SOL    HW144943   0.022   1.870  13.311
11105SOL    HW244944   4.703   1.802  13.221
11106SOL     OW44945   1.397   0.622  13.304
11106SOL    HW144946   1.468   0.558  13.310
11106SOL    HW244947   1.392   0.643  13.211
11107SOL     OW44948   0.066   1.120  14.441
11107SOL    HW144949   0.082   1.097  14.349
11107SOL    HW244950   0.133   1.071  14.489
11108SOL     OW44951   4.125   0.804  15.488
11108SOL    HW144952   4.193   0.740  15.504
11108SOL    HW244953   4.132   0.824  15.394
11109SOL     OW44954   4.446   0.094  15.060
11109SOL    HW144955   4.514   0.040  15.100
11109SOL    HW244956   4.373   0.034  15.044
11110SOL     OW44957   0.858   2.063  15.415
11110SOL    HW144958   0.807   2.144  15.418
11110SOL    HW244959   0.800   2.000  15.372
11111SOL     OW44960   0.453   1.786  15.675
11111SOL    HW144961   0.403   1.715  15.633
11111SOL    HW244962   0.543   1.753  15.678
11112SOL     OW44963   3.869   1.190  15.680
11112SOL    HW144964   3.834   1.228  15.600
11112SOL    HW244965   3.964   1.195  15.669
11113SOL     OW44966   4.430   2.026  15.703
11113SOL    HW144967   4.474   2.014  15.788
11113SOL    HW244968   4.460   2.112  15.673
11114SOL     OW44969   0.217   1.658  15.282
11114SOL    HW144970   0.193   1.581  15.231
11114SOL    HW244971   0.135   1.706  15.294
11115SOL     OW44972   3.261   1.533  15.561
11115SOL    HW144973   3.322   1.588  15.514
11115SOL    HW244974   3.184   1.587  15.575
11116SOL     OW44975   0.807   4.561  15.333
11116SOL    HW144976   0.891   4.568  15.289
11116SOL    HW244977   0.754   4.631  15.295
11117SOL     OW44978   4.190   0.882  15.233
11117SOL    HW144979   4.180   0.890  15.138
11117SOL    HW244980   4.251   0.810  15.245
11118SOL     OW44981   1.267   2.209  15.146
11118SOL    HW144982   1.276   2.193  15.052
11118SOL    HW244983   1.325   2.145  15.187
11119SOL     OW44984   1.259   2.573  15.049
11119SOL    HW144985   1.188   2.538  15.102
11119SOL    HW244986   1.333   2.582  15.109
11120SOL     OW44987   4.716   0.815  14.552
11120SOL    HW144988   0.014   0.777  14.590
11120SOL    HW244989   4.649   0.806  14.619
11121SOL     OW44990   0.552   2.934  15.293
11121SOL    HW144991   0.569   2.850  15.336
11121SOL    HW244992   0.458   2.932  15.275
11122SOL     OW44993   4.681   2.448  15.470
11122SOL    HW144994   4.675   2.469  15.376
11122SOL    HW244995   4.774   2.453  15.490
11123SOL     OW44996   4.270   2.198  14.879
11123SOL    HW144997   4.347   2.255  14.883
11123SOL    HW244998   4.298   2.125  14.823
11124SOL     OW44999   2.366   0.097  17.027
11124SOL    HW145000   2.459   0.084  17.007
11124SOL    HW245001   2.328   0.010  17.023
11125SOL     OW45002   0.368   1.508  14.960
11125SOL    HW145003   0.404   1.585  15.004
11125SOL    HW245004   0.394   1.518  14.869
11126SOL     OW45005   3.936   0.735   1.434
11126SOL    HW145006   3.936   0.656   1.380
11126SOL    HW245007   3.961   0.704   1.521
11127SOL     OW45008   1.366   0.083  17.456
11127SOL    HW145009   1.415   0.001  17.453
11127SOL    HW245010   1.274   0.055  17.448
11128SOL     OW45011   1.197   1.572  14.159
11128SOL    HW145012   1.264   1.543  14.221
11128SOL    HW245013   1.168   1.657  14.193
11129SOL     OW45014   4.420   0.964  14.615
11129SOL    HW145015   4.393   1.055  14.627
11129SOL    HW245016   4.413   0.925  14.702
11130SOL     OW45017   3.533   2.233  16.399
11130SOL    HW145018   3.544   2.163  16.464
11130SOL    HW245019   3.619   2.243  16.359
11131SOL     OW45020   0.637   1.212  16.027
11131SOL    HW145021   0.631   1.116  16.028
11131SOL    HW245022   0.548   1.242  16.010
11132SOL     OW45023   4.657   1.166  15.826
11132SOL    HW145024   4.694   1.255  15.823
11132SOL    HW245025   4.698   1.121  15.752
11133SOL     OW45026   4.598   0.240  16.859
11133SOL    HW145027   4.568   0.280  16.778
11133SOL    HW245028   4.606   0.147  16.839
11134SOL     OW45029   0.129   1.900  16.414
11134SOL    HW145030   0.172   1.860  16.339
11134SOL    HW245031   0.127   1.993  16.394
11135SOL     OW45032   0.857   1.542  15.328
11135SOL    HW145033   0.790   1.513  15.267
11135SOL    HW245034   0.829   1.510  15.414
11136SOL     OW45035   0.745   1.712  15.547
11136SOL    HW145036   0.685   1.638  15.543
11136SOL    HW245037   0.749   1.745  15.457
11137SOL     OW45038   4.480   0.007  14.682
11137SOL    HW145039   4.575   4.781  14.666
11137SOL    HW245040   4.468   4.747  14.767
11138SOL     OW45041   0.320   0.372  15.234
11138SOL    HW145042   0.329   0.445  15.173
11138SOL    HW245043   0.301   0.296  15.179
11139SOL     OW45044   3.865   0.951  14.696
11139SOL    HW145045   3.849   0.989  14.610
11139SOL    HW245046   3.912   0.870  14.679
11140SOL     OW45047   4.685   0.999  14.841
11140SOL    HW145048   4.646   0.913  14.830
11140SOL    HW245049   4.639   1.055  14.778
11141SOL     OW45050   0.268   1.615  15.554
11141SOL    HW145051   0.250   1.627  15.460
11141SOL    HW245052   0.291   1.523  15.562
11142SOL     OW45053   3.642   1.889  15.572
11142SOL    HW145054   3.665   1.804  15.608
11142SOL    HW245055   3.590   1.869  15.494
11143SOL     OW45056   0.109   4.762  15.349
11143SOL    HW145057   0.025   4.728  15.319
11143SOL    HW245058   0.174   4.704  15.310
11144SOL     OW45059   0.124   1.097  14.159
11144SOL    HW145060   0.135   1.189  14.137
11144SOL    HW245061   0.120   1.052  14.075
11145SOL     OW45062   4.610   0.018  16.701
11145SOL    HW145063   4.531   4.746  16.696
11145SOL    HW245064   4.658   4.778  16.620
11146SOL     OW45065   0.059   0.133  17.202
11146SOL    HW145066   0.080   0.068  17.269
11146SOL    HW245067   0.038   0.082  17.124
11147SOL     OW45068   0.311   3.156  15.302
11147SOL    HW145069   0.373   3.170  15.230
11147SOL    HW245070   0.270   3.072  15.283
11148SOL     OW45071   4.245   0.143  14.574
11148SOL    HW145072   4.265   0.205  14.503
11148SOL    HW245073   4.329   0.106  14.599
11149SOL     OW45074   1.183   3.297  14.658
11149SOL    HW145075   1.260   3.244  14.679
11149SOL    HW245076   1.218   3.373  14.611
11150SOL     OW45077   4.588   2.520  16.165
11150SOL    HW145078   4.600   2.530  16.071
11150SOL    HW245079   4.556   2.430  16.176
11151SOL     OW45080   0.353   1.051  15.743
11151SOL    HW145081   0.389   0.988  15.681
11151SOL    HW245082   0.324   0.998  15.817
11152SOL     OW45083   1.086   3.024  14.886
11152SOL    HW145084   1.001   3.051  14.920
11152SOL    HW245085   1.150   3.070  14.941
11153SOL     OW45086   0.495   2.009  15.131
11153SOL    HW145087   0.445   2.044  15.204
11153SOL    HW245088   0.525   2.086  15.083
11154SOL     OW45089   3.948   2.046  16.334
11154SOL    HW145090   3.914   1.958  16.322
11154SOL    HW245091   4.039   2.041  16.305
11155SOL     OW45092   0.142   1.688  15.782
11155SOL    HW145093   0.186   1.655  15.860
11155SOL    HW245094   0.204   1.674  15.711
11156SOL     OW45095   4.594   4.058  16.968
11156SOL    HW145096   4.609   3.994  16.899
11156SOL    HW245097   4.568   4.138  16.921
11157SOL     OW45098   3.702   2.161  15.567
11157SOL    HW145099   3.775   2.119  15.520
11157SOL    HW245100   3.647   2.088  15.595
11158SOL     OW45101   0.317   1.252  14.927
11158SOL    HW145102   0.336   1.345  14.931
11158SOL    HW245103   0.262   1.242  14.848
11159SOL     OW45104   4.541   1.483  15.652
11159SOL    HW145105   4.632   1.455  15.654
11159SOL    HW245106   4.513   1.467  15.561
11160SOL     OW45107   4.705   1.061  15.102
11160SOL    HW145108   4.688   1.155  15.097
11160SOL    HW245109   4.691   1.030  15.012
11161SOL     OW45110   4.510   2.805  14.992
11161SOL    HW145111   4.557   2.740  14.940
11161SOL    HW245112   4.417   2.783  14.979
11162SOL     OW45113   0.296   1.324  15.707
11162SOL    HW145114   0.328   1.233  15.701
11162SOL    HW245115   0.223   1.327  15.645
11163SOL     OW45116   0.790   0.357  16.972
11163SOL    HW145117   0.750   0.407  17.043
11163SOL    HW245118   0.722   0.297  16.943
11164SOL     OW45119   0.201   2.165  16.251
11164SOL    HW145120   0.121   2.114  16.236
11164SOL    HW245121   0.174   2.256  16.239
11165SOL     OW45122   3.659   0.842  15.402
11165SOL    HW145123   3.732   0.841  15.464
11165SOL    HW245124   3.628   0.933  15.404
11166SOL     OW45125   0.229   0.149  15.065
11166SOL    HW145126   0.318   0.115  15.055
11166SOL    HW245127   0.172   0.076  15.042
11167SOL     OW45128   0.659   1.586  16.246
11167SOL    HW145129   0.595   1.656  16.253
11167SOL    HW245130   0.677   1.559  16.336
11168SOL     OW45131   1.661   1.847  14.654
11168SOL    HW145132   1.683   1.940  14.667
11168SOL    HW245133   1.736   1.800  14.691
11169SOL     OW45134   4.759   0.808  13.375
11169SOL    HW145135   4.712   0.825  13.456
11169SOL    HW245136   4.760   0.893  13.330
11170SOL     OW45137   0.547   0.300  14.957
11170SOL    HW145138   0.535   0.364  14.887
11170SOL    HW245139   0.606   0.343  15.019
11171SOL     OW45140   0.593   0.220  15.760
11171SOL    HW145141   0.616   0.194  15.671
11171SOL    HW245142   0.508   0.264  15.752
11172SOL     OW45143   4.274   2.795  16.136
11172SOL    HW145144   4.286   2.731  16.066
11172SOL    HW245145   4.259   2.878  16.091
11173SOL     OW45146   3.249   1.840  15.589
11173SOL    HW145147   3.194   1.897  15.535
11173SOL    HW245148   3.315   1.807  15.529
11174SOL     OW45149   0.384   1.288  15.984
11174SOL    HW145150   0.364   1.307  15.893
11174SOL    HW245151   0.389   1.374  16.026
11175SOL     OW45152   4.492   0.237  15.929
11175SOL    HW145153   4.569   0.235  15.984
11175SOL    HW245154   4.457   0.326  15.938
11176SOL     OW45155   0.175   0.902  14.937
11176SOL    HW145156   0.091   0.940  14.911
11176SOL    HW245157   0.165   0.808  14.921
11177SOL     OW45158   0.627   2.840  17.570
11177SOL    HW145159   0.586   2.820  17.486
11177SOL    HW245160   0.696   2.775  17.579
11178SOL     OW45161   4.049   1.746  16.399
11178SOL    HW145162   3.957   1.750  16.372
11178SOL    HW245163   4.089   1.684  16.339
11179SOL     OW45164   4.586   1.278  14.500
11179SOL    HW145165   4.674   1.240  14.505
11179SOL    HW245166   4.543   1.228  14.431
11180SOL     OW45167   0.512   2.356  15.291
11180SOL    HW145168   0.448   2.425  15.310
11180SOL    HW245169   0.574   2.398  15.231
11181SOL     OW45170   0.256   1.589  16.002
11181SOL    HW145171   0.242   1.642  16.081
11181SOL    HW245172   0.348   1.565  16.006
11182SOL     OW45173   1.726   4.024  16.471
11182SOL    HW145174   1.689   4.010  16.384
11182SOL    HW245175   1.701   4.114  16.494
11183SOL     OW45176   4.007   0.663  15.082
11183SOL    HW145177   4.059   0.724  15.030
11183SOL    HW245178   3.922   0.705  15.091
11184SOL     OW45179   4.416   1.669  15.822
11184SOL    HW145180   4.394   1.732  15.754
11184SOL    HW245181   4.448   1.592  15.775
11185SOL     OW45182   0.354   4.683  15.225
11185SOL    HW145183   0.320   4.605  15.180
11185SOL    HW245184   0.389   4.737  15.154
11186SOL     OW45185   1.775   3.565  15.311
11186SOL    HW145186   1.839   3.565  15.239
11186SOL    HW245187   1.766   3.472  15.334
11187SOL     OW45188   0.328   1.065  16.109
11187SOL    HW145189   0.325   1.012  16.029
11187SOL    HW245190   0.334   1.155  16.077
11188SOL     OW45191   4.447   2.588  27.021
11188SOL    HW145192   4.522   2.536  26.994
11188SOL    HW245193   4.463   2.674  26.983
11189SOL     OW45194   1.924   4.664  15.294
11189SOL    HW145195   1.885   4.588  15.253
11189SOL    HW245196   1.931   4.641  15.387
11190SOL     OW45197   0.380   1.034  15.080
11190SOL    HW145198   0.324   0.971  15.035
11190SOL    HW245199   0.360   1.118  15.037
11191SOL     OW45200   3.757   0.065  19.631
11191SOL    HW145201   3.796   0.011  19.563
11191SOL    HW245202   3.831   0.109  19.672
11192SOL     OW45203   1.222   1.970  14.838
11192SOL    HW145204   1.240   2.062  14.855
11192SOL    HW245205   1.270   1.923  14.906
11193SOL     OW45206   4.339   4.519  16.102
11193SOL    HW145207   4.265   4.514  16.163
11193SOL    HW245208   4.348   4.612  16.083
11194SOL     OW45209   3.280   1.224  20.471
11194SOL    HW145210   3.348   1.267  20.524
11194SOL    HW245211   3.296   1.255  20.382
11195SOL     OW45212   0.673   1.803  20.342
11195SOL    HW145213   0.629   1.840  20.419
11195SOL    HW245214   0.729   1.733  20.377
11196SOL     OW45215   0.703   0.811   4.469
11196SOL    HW145216   0.744   0.741   4.522
11196SOL    HW245217   0.636   0.766   4.419
11197SOL     OW45218   0.161   1.622   9.593
11197SOL    HW145219   0.163   1.695   9.532
11197SOL    HW245220   0.076   1.580   9.579
11198SOL     OW45221   0.670   1.970  16.930
11198SOL    HW145222   0.724   1.947  16.854
11198SOL    HW245223   0.728   1.956  17.005
11199SOL     OW45224   1.123   0.216  17.583
11199SOL    HW145225   1.197   0.168  17.619
11199SOL    HW245226   1.129   0.203  17.489
11200SOL     OW45227   0.114   1.208  16.564
11200SOL    HW145228   0.205   1.233  16.582
11200SOL    HW245229   0.073   1.288  16.530
11201SOL     OW45230   3.804   1.365  23.879
11201SOL    HW145231   3.831   1.457  23.876
11201SOL    HW245232   3.883   1.315  23.860
11202SOL     OW45233   4.680   0.486  10.360
11202SOL    HW145234   4.600   0.452  10.399
11202SOL    HW245235   4.677   0.457  10.269
11203SOL     OW45236   0.841   2.519  23.581
11203SOL    HW145237   0.902   2.592  23.587
11203SOL    HW245238   0.787   2.526  23.660
11204SOL     OW45239   1.829   3.139  14.740
11204SOL    HW145240   1.832   3.230  14.710
11204SOL    HW245241   1.874   3.089  14.672
11205SOL     OW45242   3.207   0.412  17.856
11205SOL    HW145243   3.211   0.503  17.826
11205SOL    HW245244   3.262   0.364  17.793
11206SOL     OW45245   4.542   4.440   3.654
11206SOL    HW145246   4.547   4.534   3.672
11206SOL    HW245247   4.574   4.432   3.564
11207SOL     OW45248   4.136   0.869   9.972
11207SOL    HW145249   4.155   0.870  10.065
11207SOL    HW245250   4.051   0.826   9.965
11208SOL     OW45251   4.764   1.055  16.716
11208SOL    HW145252   0.037   1.102  16.652
11208SOL    HW245253   4.702   1.005  16.664
11209SOL     OW45254   0.108   4.146   5.589
11209SOL    HW145255   0.041   4.106   5.534
11209SOL    HW245256   0.188   4.141   5.537
11210SOL     OW45257   1.980   0.791  17.693
11210SOL    HW145258   2.075   0.787  17.705
11210SOL    HW245259   1.967   0.781  17.599
11211SOL     OW45260   3.497   2.607  14.651
11211SOL    HW145261   3.435   2.680  14.651
11211SOL    HW245262   3.454   2.540  14.598
11212SOL     OW45263   0.769   0.734  18.134
11212SOL    HW145264   0.824   0.801  18.176
11212SOL    HW245265   0.780   0.749  18.041
11213SOL     OW45266   3.095   1.356   6.359
11213SOL    HW145267   3.004   1.384   6.351
11213SOL    HW245268   3.138   1.427   6.405
11214SOL     OW45269   1.035   2.382  14.903
11214SOL    HW145270   0.996   2.437  14.834
11214SOL    HW245271   1.064   2.445  14.969
11215SOL     OW45272   4.502   4.284  16.824
11215SOL    HW145273   4.562   4.309  16.754
11215SOL    HW245274   4.424   4.338  16.810
11216SOL     OW45275   0.873   1.402  15.615
11216SOL    HW145276   0.912   1.336  15.671
11216SOL    HW245277   0.842   1.353  15.538
11217SOL     OW45278   3.914   0.512  22.708
11217SOL    HW145279   3.868   0.570  22.769
11217SOL    HW245280   3.977   0.569  22.664
11218SOL     OW45281   1.768   2.062  20.315
11218SOL    HW145282   1.677   2.034  20.305
11218SOL    HW245283   1.809   1.991  20.365
11219SOL     OW45284   2.690   4.363   0.888
11219SOL    HW145285   2.767   4.378   0.833
11219SOL    HW245286   2.688   4.269   0.902
11220SOL     OW45287   3.971   1.752   4.031
11220SOL    HW145288   4.047   1.710   4.071
11220SOL    HW245289   3.897   1.725   4.086
11221SOL     OW45290   1.419   3.058   4.703
11221SOL    HW145291   1.477   3.091   4.771
11221SOL    HW245292   1.333   3.095   4.724
11222SOL     OW45293   1.571   3.274   5.363
11222SOL    HW145294   1.492   3.222   5.351
11222SOL    HW245295   1.540   3.356   5.403
11223SOL     OW45296   3.147   1.383  22.304
11223SOL    HW145297   3.221   1.401  22.362
11223SOL    HW245298   3.128   1.291  22.317
11224SOL     OW45299   4.223   3.588  16.971
11224SOL    HW145300   4.146   3.535  16.949
11224SOL    HW245301   4.294   3.549  16.921
11225SOL     OW45302   1.696   3.273  18.670
11225SOL    HW145303   1.656   3.345  18.623
11225SOL    HW245304   1.631   3.203  18.667
11226SOL     OW45305   0.935   2.144  17.588
11226SOL    HW145306   0.972   2.228  17.562
11226SOL    HW245307   0.890   2.112  17.509
11227SOL     OW45308   0.883   3.921  21.859
11227SOL    HW145309   0.835   3.999  21.833
11227SOL    HW245310   0.848   3.852  21.802
11228SOL     OW45311   0.299   4.039  16.428
11228SOL    HW145312   0.326   4.064  16.340
11228SOL    HW245313   0.340   4.105  16.485
11229SOL     OW45314   3.439   0.530   8.450
11229SOL    HW145315   3.356   0.549   8.493
11229SOL    HW245316   3.498   0.600   8.479
11230SOL     OW45317   0.190   2.759  16.759
11230SOL    HW145318   0.111   2.784  16.711
11230SOL    HW245319   0.256   2.821  16.728
11231SOL     OW45320   4.256   0.290   7.650
11231SOL    HW145321   4.217   0.315   7.566
11231SOL    HW245322   4.181   0.284   7.710
11232SOL     OW45323   0.867   0.825  18.548
11232SOL    HW145324   0.954   0.839  18.585
11232SOL    HW245325   0.876   0.847  18.456
11233SOL     OW45326   0.292   0.074  16.883
11233SOL    HW145327   0.224   0.017  16.919
11233SOL    HW245328   0.267   0.087  16.791
11234SOL     OW45329   0.824   4.233  16.816
11234SOL    HW145330   0.886   4.305  16.802
11234SOL    HW245331   0.823   4.221  16.911
11235SOL     OW45332   1.664   4.229  27.922
11235SOL    HW145333   1.658   4.261  27.832
11235SOL    HW245334   1.591   4.168  27.931
11236SOL     OW45335   2.076   3.437  24.193
11236SOL    HW145336   1.997   3.442  24.138
11236SOL    HW245337   2.134   3.378  24.146
11237SOL     OW45338   2.456   1.257   7.530
11237SOL    HW145339   2.445   1.280   7.438
11237SOL    HW245340   2.421   1.333   7.577
11238SOL     OW45341   3.733   2.086  22.301
11238SOL    HW145342   3.724   2.007  22.249
11238SOL    HW245343   3.826   2.107  22.297
11239SOL     OW45344   3.441   0.441   4.667
11239SOL    HW145345   3.455   0.511   4.730
11239SOL    HW245346   3.348   0.444   4.646
11240SOL     OW45347   1.043   1.178  15.380
11240SOL    HW145348   1.033   1.084  15.395
11240SOL    HW245349   0.956   1.215  15.395
11241SOL     OW45350   3.219   4.279  15.517
11241SOL    HW145351   3.164   4.350  15.484
11241SOL    HW245352   3.194   4.203  15.464
11242SOL     OW45353   0.595   2.730   5.874
11242SOL    HW145354   0.600   2.797   5.805
11242SOL    HW245355   0.684   2.695   5.880
11243SOL     OW45356   3.053   0.532  16.022
11243SOL    HW145357   3.015   0.499  15.941
11243SOL    HW245358   3.136   0.570  15.996
11244SOL     OW45359   1.408   1.831  16.464
11244SOL    HW145360   1.346   1.879  16.411
11244SOL    HW245361   1.464   1.785  16.401
11245SOL     OW45362   0.251   4.655  18.093
11245SOL    HW145363   0.227   4.563  18.082
11245SOL    HW245364   0.169   4.699  18.116
11246SOL     OW45365   0.911   3.811  23.868
11246SOL    HW145366   1.003   3.810  23.839
11246SOL    HW245367   0.896   3.902  23.895
11247SOL     OW45368   3.727   3.670  27.847
11247SOL    HW145369   3.770   3.622  27.776
11247SOL    HW245370   3.763   3.758  27.841
11248SOL     OW45371   2.332   4.627  20.341
11248SOL    HW145372   2.260   4.648  20.282
11248SOL    HW245373   2.406   4.609  20.283
11249SOL     OW45374   2.408   0.922   9.708
11249SOL    HW145375   2.467   0.882   9.772
11249SOL    HW245376   2.346   0.973   9.760
11250SOL     OW45377   2.703   3.013  23.841
11250SOL    HW145378   2.773   2.964  23.885
11250SOL    HW245379   2.666   3.070  23.909
11251SOL     OW45380   1.024   3.688  15.950
11251SOL    HW145381   1.069   3.659  15.871
11251SOL    HW245382   0.947   3.734  15.918
11252SOL     OW45383   3.487   4.376  17.609
11252SOL    HW145384   3.438   4.431  17.547
11252SOL    HW245385   3.573   4.418  17.614
11253SOL     OW45386   3.761   2.315  21.679
11253SOL    HW145387   3.781   2.322  21.586
11253SOL    HW245388   3.845   2.324  21.723
11254SOL     OW45389   0.631   1.176  16.726
11254SOL    HW145390   0.538   1.154  16.720
11254SOL    HW245391   0.658   1.192  16.636
11255SOL     OW45392   1.911   2.468  24.602
11255SOL    HW145393   1.836   2.485  24.545
11255SOL    HW245394   1.872   2.444  24.686
11256SOL     OW45395   0.510   1.233  15.505
11256SOL    HW145396   0.448   1.171  15.466
11256SOL    HW245397   0.544   1.188  15.582
11257SOL     OW45398   3.394   2.462   6.079
11257SOL    HW145399   3.465   2.525   6.093
11257SOL    HW245400   3.435   2.391   6.030
11258SOL     OW45401   4.505   2.264  15.614
11258SOL    HW145402   4.580   2.311  15.577
11258SOL    HW245403   4.429   2.305  15.573
11259SOL     OW45404   2.933   3.216  20.679
11259SOL    HW145405   2.864   3.154  20.658
11259SOL    HW245406   2.909   3.296  20.631
11260SOL     OW45407   1.572   4.323  16.759
11260SOL    HW145408   1.527   4.239  16.766
11260SOL    HW245409   1.622   4.330  16.841
11261SOL     OW45410   0.194   4.503  15.045
11261SOL    HW145411   0.192   4.427  15.104
11261SOL    HW245412   0.190   4.466  14.957
11262SOL     OW45413   2.267   2.179   6.516
11262SOL    HW145414   2.289   2.085   6.517
11262SOL    HW245415   2.210   2.189   6.440
11263SOL     OW45416   0.115   4.232  17.525
11263SOL    HW145417   0.209   4.249  17.522
11263SOL    HW245418   0.102   4.157  17.467
11264SOL     OW45419   3.294   2.560   2.850
11264SOL    HW145420   3.315   2.603   2.932
11264SOL    HW245421   3.320   2.623   2.782
11265SOL     OW45422   3.866   1.195  15.401
11265SOL    HW145423   3.771   1.189  15.392
11265SOL    HW245424   3.899   1.123  15.348
11266SOL     OW45425   1.840   4.038  17.715
11266SOL    HW145426   1.861   4.063  17.806
11266SOL    HW245427   1.755   3.994  17.722
11267SOL     OW45428   4.617   0.869  16.572
11267SOL    HW145429   4.576   0.917  16.500
11267SOL    HW245430   4.661   0.796  16.530
11268SOL     OW45431   3.377   3.656   2.999
11268SOL    HW145432   3.423   3.718   3.056
11268SOL    HW245433   3.403   3.570   3.032
11269SOL     OW45434   0.847   1.594   6.720
11269SOL    HW145435   0.873   1.646   6.795
11269SOL    HW245436   0.878   1.644   6.644
11270SOL     OW45437   4.423   0.930  16.376
11270SOL    HW145438   4.489   0.938  16.308
11270SOL    HW245439   4.340   0.918  16.329
11271SOL     OW45440   4.379   3.339  26.424
11271SOL    HW145441   4.350   3.332  26.515
11271SOL    HW245442   4.386   3.433  26.409
11272SOL     OW45443   4.435   4.253  16.352
11272SOL    HW145444   4.520   4.275  16.314
11272SOL    HW245445   4.394   4.339  16.370
11273SOL     OW45446   4.022   0.487  17.885
11273SOL    HW145447   4.077   0.525  17.953
11273SOL    HW245448   4.080   0.477  17.810
11274SOL     OW45449   0.258   3.750   1.006
11274SOL    HW145450   0.206   3.713   0.935
11274SOL    HW245451   0.194   3.783   1.069
11275SOL     OW45452   1.088   0.130  26.643
11275SOL    HW145453   1.168   0.184  26.644
11275SOL    HW245454   1.108   0.058  26.703
11276SOL     OW45455   4.410   3.952  24.212
11276SOL    HW145456   4.465   3.873  24.218
11276SOL    HW245457   4.467   4.017  24.171
11277SOL     OW45458   2.480   0.984   5.753
11277SOL    HW145459   2.414   1.034   5.800
11277SOL    HW245460   2.544   1.050   5.725
11278SOL     OW45461   4.630   0.238  17.336
11278SOL    HW145462   4.713   0.227  17.289
11278SOL    HW245463   4.578   0.162  17.309
11279SOL     OW45464   3.741   3.249  16.017
11279SOL    HW145465   3.670   3.187  16.027
11279SOL    HW245466   3.722   3.296  15.935
11280SOL     OW45467   3.267   3.585  24.087
11280SOL    HW145468   3.238   3.676  24.094
11280SOL    HW245469   3.358   3.591  24.058
11281SOL     OW45470   1.009   3.094  14.608
11281SOL    HW145471   1.006   3.049  14.693
11281SOL    HW245472   1.050   3.179  14.626
11282SOL     OW45473   1.505   3.330   1.623
11282SOL    HW145474   1.576   3.392   1.638
11282SOL    HW245475   1.540   3.245   1.651
11283SOL     OW45476   3.712   3.906  19.239
11283SOL    HW145477   3.756   3.953  19.169
11283SOL    HW245478   3.672   3.974  19.293
11284SOL     OW45479   0.041   2.849  16.055
11284SOL    HW145480   4.729   2.869  16.041
11284SOL    HW245481   0.067   2.906  16.127
11285SOL     OW45482   2.187   2.405  16.093
11285SOL    HW145483   2.141   2.489  16.099
11285SOL    HW245484   2.136   2.346  16.149
11286SOL     OW45485   3.757   4.028   6.246
11286SOL    HW145486   3.799   3.955   6.202
11286SOL    HW245487   3.827   4.092   6.258
11287SOL     OW45488   4.022   3.999   8.814
11287SOL    HW145489   4.024   3.905   8.832
11287SOL    HW245490   4.064   4.009   8.729
11288SOL     OW45491   0.582   1.601  17.958
11288SOL    HW145492   0.583   1.636  18.047
11288SOL    HW245493   0.640   1.525  17.962
11289SOL     OW45494   2.131   0.703   7.101
11289SOL    HW145495   2.106   0.795   7.096
11289SOL    HW245496   2.080   0.660   7.032
11290SOL     OW45497   2.561   4.148  23.635
11290SOL    HW145498   2.638   4.101  23.602
11290SOL    HW245499   2.502   4.154  23.559
11291SOL     OW45500   1.521   1.981  22.247
11291SOL    HW145501   1.539   1.982  22.153
11291SOL    HW245502   1.452   1.915  22.257
11292SOL     OW45503   4.230   3.274  17.834
11292SOL    HW145504   4.284   3.350  17.857
11292SOL    HW245505   4.209   3.234  17.918
11293SOL     OW45506   3.622   0.432   6.629
11293SOL    HW145507   3.616   0.520   6.592
11293SOL    HW245508   3.549   0.385   6.591
11294SOL     OW45509   2.602   1.351  25.613
11294SOL    HW145510   2.573   1.267  25.648
11294SOL    HW245511   2.627   1.333  25.522
11295SOL     OW45512   2.587   1.340   1.214
11295SOL    HW145513   2.513   1.390   1.180
11295SOL    HW245514   2.624   1.396   1.283
11296SOL     OW45515   0.697   2.561  17.241
11296SOL    HW145516   0.764   2.548  17.173
11296SOL    HW245517   0.740   2.613  17.308
11297SOL     OW45518   3.015   0.785  21.334
11297SOL    HW145519   3.035   0.857  21.274
11297SOL    HW245520   2.930   0.809  21.372
11298SOL     OW45521   4.727   2.930  23.332
11298SOL    HW145522   4.641   2.893  23.312
11298SOL    HW245523   0.007   2.879  23.278
11299SOL     OW45524   3.724   2.929  17.273
11299SOL    HW145525   3.725   3.006  17.329
11299SOL    HW245526   3.813   2.922  17.239
11300SOL     OW45527   1.241   3.610   3.773
11300SOL    HW145528   1.252   3.695   3.731
11300SOL    HW245529   1.166   3.622   3.832
11301SOL     OW45530   0.939   1.749  25.580
11301SOL    HW145531   0.986   1.796  25.648
11301SOL    HW245532   0.882   1.688  25.627
11302SOL     OW45533   1.792   1.758   3.349
11302SOL    HW145534   1.707   1.802   3.351
11302SOL    HW245535   1.829   1.776   3.435
11303SOL     OW45536   3.467   3.662  15.757
11303SOL    HW145537   3.496   3.733  15.813
11303SOL    HW245538   3.437   3.594  15.817
11304SOL     OW45539   2.105   1.545  28.044
11304SOL    HW145540   2.103   1.496  28.126
11304SOL    HW245541   2.146   1.485  27.981
11305SOL     OW45542   3.859   3.457   4.667
11305SOL    HW145543   3.857   3.517   4.742
11305SOL    HW245544   3.779   3.406   4.675
11306SOL     OW45545   3.795   2.322   6.542
11306SOL    HW145546   3.855   2.343   6.613
11306SOL    HW245547   3.718   2.285   6.586
11307SOL     OW45548   1.646   1.396   1.514
11307SOL    HW145549   1.574   1.344   1.478
11307SOL    HW245550   1.603   1.473   1.550
11308SOL     OW45551   1.033   3.497  28.342
11308SOL    HW145552   1.014   3.568  28.403
11308SOL    HW245553   1.128   3.494  28.337
11309SOL     OW45554   1.439   4.112  23.176
11309SOL    HW145555   1.460   4.080  23.263
11309SOL    HW245556   1.518   4.096  23.124
11310SOL     OW45557   1.494   0.170  21.389
11310SOL    HW145558   1.524   0.260  21.388
11310SOL    HW245559   1.432   0.165  21.315
11311SOL     OW45560   2.162   0.420  17.093
11311SOL    HW145561   2.246   0.461  17.069
11311SOL    HW245562   2.162   0.338  17.044
11312SOL     OW45563   4.266   2.053  21.943
11312SOL    HW145564   4.173   2.028  21.937
11312SOL    HW245565   4.304   2.018  21.862
11313SOL     OW45566   0.002   0.550   9.004
11313SOL    HW145567   0.048   0.475   8.967
11313SOL    HW245568   0.018   0.621   8.942
11314SOL     OW45569   3.660   1.556  25.888
11314SOL    HW145570   3.689   1.635  25.840
11314SOL    HW245571   3.726   1.544  25.956
11315SOL     OW45572   2.773   3.478  21.690
11315SOL    HW145573   2.799   3.434  21.609
11315SOL    HW245574   2.813   3.426  21.760
11316SOL     OW45575   4.161   4.094  23.506
11316SOL    HW145576   4.096   4.057  23.565
11316SOL    HW245577   4.119   4.171  23.467
11317SOL     OW45578   1.558   2.802  23.646
11317SOL    HW145579   1.647   2.832  23.662
11317SOL    HW245580   1.534   2.840  23.561
11318SOL     OW45581   4.581   4.458  16.640
11318SOL    HW145582   4.513   4.506  16.593
11318SOL    HW245583   4.635   4.419  16.571
11319SOL     OW45584   0.294   1.736  17.938
11319SOL    HW145585   0.252   1.652  17.920
11319SOL    HW245586   0.387   1.719  17.927
11320SOL     OW45587   1.347   2.906   6.566
11320SOL    HW145588   1.430   2.867   6.594
11320SOL    HW245589   1.313   2.950   6.644
11321SOL     OW45590   4.382   3.303  16.953
11321SOL    HW145591   4.301   3.318  17.003
11321SOL    HW245592   4.364   3.340  16.867
11322SOL     OW45593   3.246   0.903   4.440
11322SOL    HW145594   3.210   0.919   4.353
11322SOL    HW245595   3.339   0.889   4.425
11323SOL     OW45596   0.479   0.502  27.670
11323SOL    HW145597   0.502   0.546  27.751
11323SOL    HW245598   0.562   0.489  27.625
11324SOL     OW45599   3.676   0.115   6.805
11324SOL    HW145600   3.735   0.063   6.859
11324SOL    HW245601   3.707   0.205   6.815
11325SOL     OW45602   4.308   1.212  24.814
11325SOL    HW145603   4.293   1.306  24.823
11325SOL    HW245604   4.221   1.174  24.803
11326SOL     OW45605   0.093   2.963  25.412
11326SOL    HW145606   0.046   2.939  25.332
11326SOL    HW245607   0.026   2.963  25.480
11327SOL     OW45608   3.001   4.657   2.333
11327SOL    HW145609   2.932   4.592   2.319
11327SOL    HW245610   3.082   4.608   2.321
11328SOL     OW45611   1.180   2.382   3.803
11328SOL    HW145612   1.185   2.319   3.732
11328SOL    HW245613   1.126   2.453   3.768
11329SOL     OW45614   1.397   2.417  25.727
11329SOL    HW145615   1.374   2.413  25.820
11329SOL    HW245616   1.467   2.483  25.723
11330SOL     OW45617   3.763   0.643  22.884
11330SOL    HW145618   3.770   0.625  22.978
11330SOL    HW245619   3.753   0.738  22.878
11331SOL     OW45620   1.367   2.166   1.247
11331SOL    HW145621   1.392   2.122   1.165
11331SOL    HW245622   1.330   2.249   1.218
11332SOL     OW45623   3.029   4.379  26.702
11332SOL    HW145624   2.982   4.455  26.736
11332SOL    HW245625   3.012   4.310  26.766
11333SOL     OW45626   1.628   4.627  15.406
11333SOL    HW145627   1.677   4.619  15.489
11333SOL    HW245628   1.543   4.663  15.432
11334SOL     OW45629   0.076   4.506  27.672
11334SOL    HW145630   0.026   4.540  27.598
11334SOL    HW245631   0.012   4.499  27.743
11335SOL     OW45632   2.747   1.555   3.232
11335SOL    HW145633   2.744   1.486   3.165
11335SOL    HW245634   2.660   1.555   3.271
11336SOL     OW45635   2.733   4.320  20.258
11336SOL    HW145636   2.721   4.302  20.351
11336SOL    HW245637   2.732   4.234  20.216
11337SOL     OW45638   2.653   0.962   6.429
11337SOL    HW145639   2.584   1.028   6.423
11337SOL    HW245640   2.681   0.966   6.520
11338SOL     OW45641   3.385   4.250   8.003
11338SOL    HW145642   3.473   4.270   8.035
11338SOL    HW245643   3.361   4.325   7.949
11339SOL     OW45644   2.776   1.184  26.412
11339SOL    HW145645   2.801   1.091  26.413
11339SOL    HW245646   2.682   1.184  26.395
11340SOL     OW45647   2.211   0.843  21.907
11340SOL    HW145648   2.290   0.841  21.852
11340SOL    HW245649   2.199   0.753  21.935
11341SOL     OW45650   4.040   0.202  20.909
11341SOL    HW145651   4.122   0.156  20.890
11341SOL    HW245652   3.973   0.135  20.903
11342SOL     OW45653   0.999   2.791   1.588
11342SOL    HW145654   0.941   2.745   1.648
11342SOL    HW245655   1.004   2.880   1.622
11343SOL     OW45656   1.056   4.252   0.433
11343SOL    HW145657   0.987   4.306   0.471
11343SOL    HW245658   1.081   4.298   0.352
11344SOL     OW45659   3.927   2.658  26.229
11344SOL    HW145660   3.930   2.572  26.271
11344SOL    HW245661   3.905   2.718  26.300
11345SOL     OW45662   0.608   3.155  26.125
11345SOL    HW145663   0.541   3.107  26.174
11345SOL    HW245664   0.683   3.095  26.123
11346SOL     OW45665   1.148   0.277  22.898
11346SOL    HW145666   1.206   0.308  22.829
11346SOL    HW245667   1.151   0.182  22.891
11347SOL     OW45668   3.203   0.016  26.268
11347SOL    HW145669   3.264   4.729  26.240
11347SOL    HW245670   3.190   0.070  26.190
11348SOL     OW45671   3.562   3.254  24.033
11348SOL    HW145672   3.470   3.230  24.028
11348SOL    HW245673   3.563   3.350  24.032
11349SOL     OW45674   2.080   1.591   6.313
11349SOL    HW145675   2.039   1.509   6.340
11349SOL    HW245676   2.070   1.593   6.218
11350SOL     OW45677   1.387   4.597   0.164
11350SOL    HW145678   1.381   4.637   0.077
11350SOL    HW245679   1.356   4.665   0.224
11351SOL     OW45680   0.874   1.624  21.720
11351SOL    HW145681   0.879   1.717  21.698
11351SOL    HW245682   0.913   1.580  21.644
11352SOL     OW45683   3.849   2.416  26.261
11352SOL    HW145684   3.822   2.328  26.235
11352SOL    HW245685   3.798   2.475  26.205
11353SOL     OW45686   2.636   2.312   0.101
11353SOL    HW145687   2.691   2.240   0.132
11353SOL    HW245688   2.691   2.359   0.039
11354SOL     OW45689   3.914   4.672   1.541
11354SOL    HW145690   3.911   4.598   1.480
11354SOL    HW245691   3.822   4.691   1.559
11355SOL     OW45692   0.107   4.449  24.481
11355SOL    HW145693   0.176   4.397  24.521
11355SOL    HW245694   0.142   4.474  24.396
11356SOL     OW45695   3.616   0.356   9.591
11356SOL    HW145696   3.667   0.321   9.664
11356SOL    HW245697   3.680   0.399   9.535
11357SOL     OW45698   4.766   1.467  21.785
11357SOL    HW145699   0.068   1.511  21.768
11357SOL    HW245700   4.775   1.430  21.873
11358SOL     OW45701   2.630   4.694  19.724
11358SOL    HW145702   2.663   4.744  19.798
11358SOL    HW245703   2.700   4.699  19.659
11359SOL     OW45704   1.690   0.657  24.574
11359SOL    HW145705   1.754   0.713  24.619
11359SOL    HW245706   1.733   0.631  24.493
11360SOL     OW45707   1.514   2.379   9.145
11360SOL    HW145708   1.537   2.458   9.095
11360SOL    HW245709   1.580   2.375   9.214
11361SOL     OW45710   1.958   2.176  23.638
11361SOL    HW145711   1.904   2.220  23.704
11361SOL    HW245712   1.906   2.181  23.558
11362SOL     OW45713   1.543   1.766   2.270
11362SOL    HW145714   1.578   1.683   2.238
11362SOL    HW245715   1.553   1.761   2.365
11363SOL     OW45716   3.798   3.133  20.796
11363SOL    HW145717   3.830   3.203  20.853
11363SOL    HW245718   3.734   3.176  20.739
11364SOL     OW45719   2.049   2.677  17.482
11364SOL    HW145720   1.979   2.620  17.449
11364SOL    HW245721   2.007   2.762  17.493
11365SOL     OW45722   4.760   3.658  22.790
11365SOL    HW145723   4.697   3.729  22.776
11365SOL    HW245724   0.020   3.645  22.704
11366SOL     OW45725   2.112   4.603  28.004
11366SOL    HW145726   2.128   4.566  28.091
11366SOL    HW245727   2.019   4.588  27.988
11367SOL     OW45728   4.051   2.981  21.140
11367SOL    HW145729   4.044   2.889  21.114
11367SOL    HW245730   4.142   3.004  21.123
11368SOL     OW45731   2.048   3.497  27.894
11368SOL    HW145732   2.045   3.418  27.948
11368SOL    HW245733   2.135   3.534  27.910
11369SOL     OW45734   3.234   2.159   0.248
11369SOL    HW145735   3.239   2.073   0.206
11369SOL    HW245736   3.276   2.219   0.187
11370SOL     OW45737   3.173   2.298   7.010
11370SOL    HW145738   3.127   2.369   6.964
11370SOL    HW245739   3.176   2.226   6.946
11371SOL     OW45740   2.604   0.020  16.930
11371SOL    HW145741   2.694   0.045  16.907
11371SOL    HW245742   2.605   4.705  16.929
11372SOL     OW45743   4.214   3.651  22.943
11372SOL    HW145744   4.133   3.644  22.992
11372SOL    HW245745   4.216   3.572  22.888
11373SOL     OW45746   3.654   4.306  21.725
11373SOL    HW145747   3.639   4.244  21.654
11373SOL    HW245748   3.736   4.278  21.765
11374SOL     OW45749   2.655   0.639  22.669
11374SOL    HW145750   2.615   0.607  22.588
11374SOL    HW245751   2.614   0.586  22.738
11375SOL     OW45752   0.747   0.787  19.221
11375SOL    HW145753   0.767   0.704  19.264
11375SOL    HW245754   0.737   0.763  19.128
11376SOL     OW45755   1.940   2.520   6.677
11376SOL    HW145756   1.980   2.461   6.740
11376SOL    HW245757   1.874   2.466   6.632
11377SOL     OW45758   2.928   1.711   6.628
11377SOL    HW145759   3.009   1.753   6.598
11377SOL    HW245760   2.924   1.731   6.721
11378SOL     OW45761   3.999   2.388   3.808
11378SOL    HW145762   3.981   2.311   3.862
11378SOL    HW245763   4.054   2.444   3.863
11379SOL     OW45764   4.075   2.683  28.135
11379SOL    HW145765   4.159   2.657  28.097
11379SOL    HW245766   4.010   2.656  28.070
11380SOL     OW45767   1.671   1.765  16.811
11380SOL    HW145768   1.746   1.728  16.857
11380SOL    HW245769   1.657   1.705  16.737
11381SOL     OW45770   0.477   2.371   8.782
11381SOL    HW145771   0.479   2.278   8.806
11381SOL    HW245772   0.384   2.390   8.766
11382SOL     OW45773   4.118   3.757   7.572
11382SOL    HW145774   4.187   3.691   7.565
11382SOL    HW245775   4.045   3.711   7.614
11383SOL     OW45776   1.507   1.736  21.206
11383SOL    HW145777   1.437   1.722  21.269
11383SOL    HW245778   1.507   1.658  21.151
11384SOL     OW45779   3.541   4.478  25.846
11384SOL    HW145780   3.558   4.413  25.778
11384SOL    HW245781   3.469   4.531  25.811
11385SOL     OW45782   3.422   1.686   1.392
11385SOL    HW145783   3.349   1.628   1.415
11385SOL    HW245784   3.489   1.628   1.357
11386SOL     OW45785   3.791   1.912  19.289
11386SOL    HW145786   3.875   1.900  19.244
11386SOL    HW245787   3.799   1.860  19.369
11387SOL     OW45788   1.068   2.485  25.632
11387SOL    HW145789   1.161   2.476  25.611
11387SOL    HW245790   1.066   2.539  25.711
11388SOL     OW45791   3.062   2.265  10.007
11388SOL    HW145792   3.133   2.212   9.972
11388SOL    HW245793   3.096   2.354  10.008
11389SOL     OW45794   1.492   1.502  27.862
11389SOL    HW145795   1.519   1.593  27.876
11389SOL    HW245796   1.414   1.509  27.806
11390SOL     OW45797   1.850   2.555   1.653
11390SOL    HW145798   1.898   2.521   1.577
11390SOL    HW245799   1.891   2.513   1.728
11391SOL     OW45800   2.665   2.374   8.515
11391SOL    HW145801   2.736   2.311   8.506
11391SOL    HW245802   2.663   2.395   8.609
11392SOL     OW45803   4.515   0.941   4.870
11392SOL    HW145804   4.484   0.999   4.940
11392SOL    HW245805   4.603   0.971   4.850
11393SOL     OW45806   2.442   2.097  23.859
11393SOL    HW145807   2.478   2.060  23.940
11393SOL    HW245808   2.507   2.161  23.831
11394SOL     OW45809   1.168   2.925   4.100
11394SOL    HW145810   1.173   2.987   4.173
11394SOL    HW245811   1.094   2.955   4.048
11395SOL     OW45812   1.406   1.295   1.417
11395SOL    HW145813   1.344   1.271   1.348
11395SOL    HW245814   1.370   1.256   1.497
11396SOL     OW45815   2.388   2.591  27.683
11396SOL    HW145816   2.393   2.567  27.776
11396SOL    HW245817   2.416   2.682  27.681
11397SOL     OW45818   0.419   4.695   8.093
11397SOL    HW145819   0.400   0.008   8.084
11397SOL    HW245820   0.455   4.670   8.008
11398SOL     OW45821   0.969   4.550   9.302
11398SOL    HW145822   1.051   4.529   9.346
11398SOL    HW245823   0.906   4.564   9.373
11399SOL     OW45824   4.221   0.716  18.638
11399SOL    HW145825   4.164   0.681  18.706
11399SOL    HW245826   4.163   0.767  18.581
11400SOL     OW45827   3.687   0.342  21.186
11400SOL    HW145828   3.762   0.364  21.241
11400SOL    HW245829   3.682   0.414  21.123
11401SOL     OW45830   1.928   2.447  21.674
11401SOL    HW145831   1.880   2.523  21.706
11401SOL    HW245832   2.005   2.442  21.731
11402SOL     OW45833   3.777   0.671  22.020
11402SOL    HW145834   3.828   0.592  22.034
11402SOL    HW245835   3.695   0.641  21.981
11403SOL     OW45836   2.614   1.712  27.907
11403SOL    HW145837   2.615   1.714  28.003
11403SOL    HW245838   2.706   1.717  27.882
11404SOL     OW45839   2.632   1.749  18.887
11404SOL    HW145840   2.537   1.761  18.883
11404SOL    HW245841   2.650   1.684  18.819
11405SOL     OW45842   4.668   3.747  18.647
11405SOL    HW145843   4.731   3.710  18.584
11405SOL    HW245844   4.616   3.808  18.595
11406SOL     OW45845   0.310   0.165   8.011
11406SOL    HW145846   0.231   0.112   8.002
11406SOL    HW245847   0.311   0.220   7.932
11407SOL     OW45848   3.577   0.022   7.319
11407SOL    HW145849   3.524   0.076   7.377
11407SOL    HW245850   3.573   0.066   7.234
11408SOL     OW45851   4.569   2.664  27.582
11408SOL    HW145852   4.576   2.736  27.520
11408SOL    HW245853   4.485   2.622  27.562
11409SOL     OW45854   4.633   1.884  10.649
11409SOL    HW145855   4.538   1.891  10.643
11409SOL    HW245856   4.650   1.848  10.735
11410SOL     OW45857   2.642   2.121   7.548
11410SOL    HW145858   2.653   2.126   7.643
11410SOL    HW245859   2.724   2.085   7.517
11411SOL     OW45860   2.791   1.846   2.407
11411SOL    HW145861   2.759   1.904   2.476
11411SOL    HW245862   2.885   1.862   2.404
11412SOL     OW45863   0.219   0.435  21.272
11412SOL    HW145864   0.220   0.488  21.352
11412SOL    HW245865   0.239   0.497  21.202
11413SOL     OW45866   1.526   2.694   0.659
11413SOL    HW145867   1.538   2.788   0.670
11413SOL    HW245868   1.598   2.655   0.708
11414SOL     OW45869   4.761   4.502  16.827
11414SOL    HW145870   4.699   4.486  16.755
11414SOL    HW245871   0.057   4.540  16.784
11415SOL     OW45872   3.496   4.112   0.509
11415SOL    HW145873   3.445   4.175   0.458
11415SOL    HW245874   3.435   4.042   0.529
11416SOL     OW45875   3.256   4.397  18.086
11416SOL    HW145876   3.288   4.382  17.997
11416SOL    HW245877   3.251   4.309  18.125
11417SOL     OW45878   3.468   1.136   2.309
11417SOL    HW145879   3.374   1.129   2.292
11417SOL    HW245880   3.502   1.047   2.296
11418SOL     OW45881   1.435   0.490  24.520
11418SOL    HW145882   1.422   0.469  24.427
11418SOL    HW245883   1.500   0.560  24.520
11419SOL     OW45884   0.151   2.826  27.439
11419SOL    HW145885   0.211   2.863  27.504
11419SOL    HW245886   0.189   2.853  27.355
11420SOL     OW45887   2.564   3.592  23.703
11420SOL    HW145888   2.646   3.619  23.744
11420SOL    HW245889   2.508   3.563  23.776
11421SOL     OW45890   3.268   2.014  24.713
11421SOL    HW145891   3.202   2.071  24.674
11421SOL    HW245892   3.226   1.977  24.790
11422SOL     OW45893   2.449   1.188   8.872
11422SOL    HW145894   2.381   1.154   8.930
11422SOL    HW245895   2.461   1.279   8.900
11423SOL     OW45896   0.573   0.401  15.363
11423SOL    HW145897   0.634   0.422  15.292
11423SOL    HW245898   0.487   0.399  15.321
11424SOL     OW45899   3.805   0.856  26.629
11424SOL    HW145900   3.844   0.936  26.664
11424SOL    HW245901   3.740   0.888  26.566
11425SOL     OW45902   0.148   4.340  23.691
11425SOL    HW145903   0.196   4.322  23.610
11425SOL    HW245904   0.058   4.317  23.671
11426SOL     OW45905   4.469   2.626   7.809
11426SOL    HW145906   4.563   2.622   7.788
11426SOL    HW245907   4.464   2.687   7.882
11427SOL     OW45908   1.686   2.869   1.972
11427SOL    HW145909   1.615   2.933   1.970
11427SOL    HW245910   1.643   2.785   1.957
11428SOL     OW45911   2.658   2.155  22.547
11428SOL    HW145912   2.703   2.236  22.569
11428SOL    HW245913   2.574   2.161  22.593
11429SOL     OW45914   1.100   2.694  28.023
11429SOL    HW145915   1.150   2.742  28.088
11429SOL    HW245916   1.011   2.692  28.057
11430SOL     OW45917   3.769   3.684  24.895
11430SOL    HW145918   3.732   3.761  24.938
11430SOL    HW245919   3.792   3.625  24.967
11431SOL     OW45920   0.374   4.085   3.986
11431SOL    HW145921   0.389   4.007   3.932
11431SOL    HW245922   0.293   4.123   3.952
11432SOL     OW45923   1.237   0.159  22.093
11432SOL    HW145924   1.191   0.214  22.157
11432SOL    HW245925   1.327   0.156  22.125
11433SOL     OW45926   4.216   0.522   4.234
11433SOL    HW145927   4.132   0.481   4.211
11433SOL    HW245928   4.214   0.606   4.187
11434SOL     OW45929   1.380   4.428   7.711
11434SOL    HW145930   1.453   4.484   7.685
11434SOL    HW245931   1.345   4.468   7.790
11435SOL     OW45932   0.150   2.229  26.277
11435SOL    HW145933   0.131   2.283  26.353
11435SOL    HW245934   0.088   2.259  26.211
11436SOL     OW45935   2.618   1.359   8.435
11436SOL    HW145936   2.667   1.417   8.377
11436SOL    HW245937   2.642   1.271   8.406
11437SOL     OW45938   4.297   4.113   1.677
11437SOL    HW145939   4.314   4.054   1.604
11437SOL    HW245940   4.384   4.142   1.706
11438SOL     OW45941   3.134   2.054   9.623
11438SOL    HW145942   3.136   2.021   9.533
11438SOL    HW245943   3.044   2.083   9.635
11439SOL     OW45944   0.371   4.707  24.530
11439SOL    HW145945   0.407   4.764  24.598
11439SOL    HW245946   0.296   4.756  24.496
11440SOL     OW45947   2.364   1.515  28.491
11440SOL    HW145948   2.426   1.586  28.476
11440SOL    HW245949   2.409   1.436  28.462
11441SOL     OW45950   3.449   1.745  22.869
11441SOL    HW145951   3.528   1.794  22.893
11441SOL    HW245952   3.474   1.695  22.792
11442SOL     OW45953   3.429   3.533  14.959
11442SOL    HW145954   3.372   3.607  14.937
11442SOL    HW245955   3.371   3.457  14.958
11443SOL     OW45956   0.475   2.390  23.656
11443SOL    HW145957   0.419   2.352  23.724
11443SOL    HW245958   0.564   2.374  23.686
11444SOL     OW45959   0.204   0.667  24.718
11444SOL    HW145960   0.222   0.680  24.811
11444SOL    HW245961   0.288   0.681  24.675
11445SOL     OW45962   1.699   1.629  22.874
11445SOL    HW145963   1.677   1.653  22.783
11445SOL    HW245964   1.622   1.654  22.924
11446SOL     OW45965   3.713   3.732   7.494
11446SOL    HW145966   3.792   3.677   7.496
11446SOL    HW245967   3.743   3.816   7.527
11447SOL     OW45968   0.424   1.206   9.755
11447SOL    HW145969   0.366   1.134   9.780
11447SOL    HW245970   0.466   1.232   9.838
11448SOL     OW45971   1.219   0.259   4.463
11448SOL    HW145972   1.240   0.329   4.525
11448SOL    HW245973   1.300   0.246   4.413
11449SOL     OW45974   4.450   2.345   7.068
11449SOL    HW145975   4.378   2.402   7.094
11449SOL    HW245976   4.511   2.403   7.023
11450SOL     OW45977   2.346   2.506  22.546
11450SOL    HW145978   2.290   2.536  22.618
11450SOL    HW245979   2.434   2.529  22.573
11451SOL     OW45980   4.386   1.944   8.098
11451SOL    HW145981   4.429   1.958   8.014
11451SOL    HW245982   4.368   2.032   8.131
11452SOL     OW45983   3.033   0.620   9.853
11452SOL    HW145984   2.961   0.603   9.792
11452SOL    HW245985   3.062   0.708   9.833
11453SOL     OW45986   0.925   3.241  25.592
11453SOL    HW145987   0.892   3.181  25.659
11453SOL    HW245988   1.001   3.283  25.634
11454SOL     OW45989   3.740   4.184  24.951
11454SOL    HW145990   3.791   4.229  25.018
11454SOL    HW245991   3.750   4.238  24.873
11455SOL     OW45992   3.128   0.517   2.096
11455SOL    HW145993   3.132   0.591   2.157
11455SOL    HW245994   3.042   0.477   2.111
11456SOL     OW45995   3.578   3.452  18.418
11456SOL    HW145996   3.669   3.450  18.448
11456SOL    HW245997   3.583   3.448  18.323
11457SOL     OW45998   0.841   2.115  19.294
11457SOL    HW145999   0.759   2.164  19.303
11457SOL    HW246000   0.908   2.176  19.325
11458SOL     OW46001   0.187   1.484  17.902
11458SOL    HW146002   0.198   1.459  17.811
11458SOL    HW246003   0.171   1.402  17.948
11459SOL     OW46004   1.631   0.317  24.656
11459SOL    HW146005   1.576   0.276  24.723
11459SOL    HW246006   1.572   0.375  24.608
11460SOL     OW46007   4.038   4.030  24.829
11460SOL    HW146008   4.086   4.039  24.747
11460SOL    HW246009   4.055   4.113  24.875
11461SOL     OW46010   3.316   3.495   7.831
11461SOL    HW146011   3.307   3.439   7.754
11461SOL    HW246012   3.355   3.576   7.797
11462SOL     OW46013   4.285   1.462   8.821
11462SOL    HW146014   4.243   1.545   8.800
11462SOL    HW246015   4.369   1.487   8.859
11463SOL     OW46016   0.451   1.774   5.113
11463SOL    HW146017   0.534   1.821   5.111
11463SOL    HW246018   0.427   1.764   5.021
11464SOL     OW46019   0.258   4.754  25.833
11464SOL    HW146020   0.279   0.025  25.755
11464SOL    HW246021   0.340   4.748  25.881
11465SOL     OW46022   2.067   4.067  26.386
11465SOL    HW146023   2.138   4.121  26.353
11465SOL    HW246024   2.025   4.120  26.453
11466SOL     OW46025   4.083   4.383   7.477
11466SOL    HW146026   4.068   4.424   7.392
11466SOL    HW246027   4.116   4.295   7.455
11467SOL     OW46028   1.147   2.659  22.628
11467SOL    HW146029   1.111   2.586  22.680
11467SOL    HW246030   1.078   2.725  22.629
11468SOL     OW46031   3.609   4.651  27.463
11468SOL    HW146032   3.565   4.717  27.517
11468SOL    HW246033   3.591   4.568  27.507
11469SOL     OW46034   1.357   0.248   2.145
11469SOL    HW146035   1.284   0.224   2.087
11469SOL    HW246036   1.358   0.344   2.143
11470SOL     OW46037   3.632   2.925  22.553
11470SOL    HW146038   3.565   2.960  22.496
11470SOL    HW246039   3.709   2.980  22.537
11471SOL     OW46040   4.057   3.756   3.531
11471SOL    HW146041   4.066   3.672   3.486
11471SOL    HW246042   3.974   3.791   3.501
11472SOL     OW46043   4.097   1.755   7.083
11472SOL    HW146044   4.044   1.679   7.108
11472SOL    HW246045   4.127   1.792   7.167
11473SOL     OW46046   2.588   1.992   8.507
11473SOL    HW146047   2.615   2.026   8.422
11473SOL    HW246048   2.517   2.050   8.535
11474SOL     OW46049   3.303   2.601  22.765
11474SOL    HW146050   3.342   2.605  22.678
11474SOL    HW246051   3.376   2.586  22.824
11475SOL     OW46052   4.762   2.630   8.413
11475SOL    HW146053   4.672   2.621   8.443
11475SOL    HW246054   4.759   2.609   8.320
11476SOL     OW46055   4.374   3.601  26.343
11476SOL    HW146056   4.441   3.643  26.289
11476SOL    HW246057   4.321   3.673  26.375
11477SOL     OW46058   2.225   2.329  28.137
11477SOL    HW146059   2.264   2.275  28.067
11477SOL    HW246060   2.285   2.319  28.211
11478SOL     OW46061   1.572   1.445  24.546
11478SOL    HW146062   1.531   1.530  24.528
11478SOL    HW246063   1.548   1.391  24.470
11479SOL     OW46064   2.393   2.777   8.408
11479SOL    HW146065   2.397   2.872   8.408
11479SOL    HW246066   2.348   2.755   8.327
11480SOL     OW46067   4.614   1.294   4.216
11480SOL    HW146068   4.622   1.201   4.235
11480SOL    HW246069   4.586   1.297   4.124
11481SOL     OW46070   3.565   0.099  19.815
11481SOL    HW146071   3.638   0.124  19.872
11481SOL    HW246072   3.606   0.080  19.730
11482SOL     OW46073   1.233   3.277  23.573
11482SOL    HW146074   1.201   3.235  23.493
11482SOL    HW246075   1.317   3.316  23.548
11483SOL     OW46076   3.628   4.674   6.175
11483SOL    HW146077   3.662   4.626   6.099
11483SOL    HW246078   3.705   4.696   6.226
11484SOL     OW46079   2.150   2.541   5.468
11484SOL    HW146080   2.222   2.521   5.408
11484SOL    HW246081   2.118   2.627   5.439
11485SOL     OW46082   0.019   3.575  10.574
11485SOL    HW146083   4.751   3.576  10.656
11485SOL    HW246084   4.737   3.606  10.509
11486SOL     OW46085   1.976   3.740   8.224
11486SOL    HW146086   1.900   3.685   8.207
11486SOL    HW246087   2.008   3.712   8.310
11487SOL     OW46088   4.488   0.485   0.582
11487SOL    HW146089   4.432   0.542   0.530
11487SOL    HW246090   4.429   0.423   0.622
11488SOL     OW46091   4.563   2.824   0.351
11488SOL    HW146092   4.619   2.784   0.418
11488SOL    HW246093   4.571   2.918   0.365
11489SOL     OW46094   3.434   0.499  20.856
11489SOL    HW146095   3.391   0.427  20.901
11489SOL    HW246096   3.428   0.476  20.763
11490SOL     OW46097   0.894   0.013  20.611
11490SOL    HW146098   0.801   0.001  20.629
11490SOL    HW246099   0.938   4.767  20.692
11491SOL     OW46100   2.821   2.123   8.008
11491SOL    HW146101   2.887   2.072   7.961
11491SOL    HW246102   2.860   2.209   8.018
11492SOL     OW46103   3.612   2.005   1.202
11492SOL    HW146104   3.524   1.969   1.212
11492SOL    HW246105   3.668   1.947   1.253
11493SOL     OW46106   0.784   4.094   2.158
11493SOL    HW146107   0.799   4.188   2.170
11493SOL    HW246108   0.830   4.053   2.231
11494SOL     OW46109   4.696   2.823  19.319
11494SOL    HW146110   4.759   2.751  19.320
11494SOL    HW246111   4.723   2.878  19.246
11495SOL     OW46112   0.068   4.271   7.293
11495SOL    HW146113   0.146   4.216   7.286
11495SOL    HW246114   0.009   4.238   7.225
11496SOL     OW46115   0.991   2.505   7.052
11496SOL    HW146116   0.911   2.537   7.011
11496SOL    HW246117   1.032   2.583   7.089
11497SOL     OW46118   0.295   2.741  26.950
11497SOL    HW146119   0.340   2.824  26.940
11497SOL    HW246120   0.277   2.735  27.044
11498SOL     OW46121   2.949   0.227   9.472
11498SOL    HW146122   2.871   0.176   9.452
11498SOL    HW246123   3.019   0.163   9.480
11499SOL     OW46124   4.301   4.398   2.179
11499SOL    HW146125   4.260   4.316   2.150
11499SOL    HW246126   4.389   4.395   2.143
11500SOL     OW46127   3.391   3.247   4.777
11500SOL    HW146128   3.381   3.169   4.832
11500SOL    HW246129   3.348   3.223   4.695
11501SOL     OW46130   3.678   2.544   1.636
11501SOL    HW146131   3.643   2.584   1.716
11501SOL    HW246132   3.640   2.456   1.635
11502SOL     OW46133   1.036   0.102  21.611
11502SOL    HW146134   0.993   0.186  21.624
11502SOL    HW246135   0.992   0.043  21.672
11503SOL     OW46136   3.839   1.467  21.823
11503SOL    HW146137   3.799   1.474  21.910
11503SOL    HW246138   3.894   1.389  21.829
11504SOL     OW46139   2.958   0.356  24.969
11504SOL    HW146140   2.920   0.274  24.938
11504SOL    HW246141   2.882   0.412  24.987
11505SOL     OW46142   1.039   1.997   6.662
11505SOL    HW146143   1.052   2.044   6.744
11505SOL    HW246144   0.957   2.033   6.627
11506SOL     OW46145   2.850   3.969  26.052
11506SOL    HW146146   2.919   3.921  26.097
11506SOL    HW246147   2.880   4.059  26.049
11507SOL     OW46148   2.872   1.782  22.797
11507SOL    HW146149   2.914   1.867  22.807
11507SOL    HW246150   2.929   1.734  22.736
11508SOL     OW46151   0.699   0.620  11.374
11508SOL    HW146152   0.727   0.601  11.464
11508SOL    HW246153   0.633   0.689  11.384
11509SOL     OW46154   1.892   0.544  19.411
11509SOL    HW146155   1.872   0.620  19.356
11509SOL    HW246156   1.974   0.566  19.454
11510SOL     OW46157   3.323   1.844   9.210
11510SOL    HW146158   3.386   1.772   9.214
11510SOL    HW246159   3.304   1.855   9.117
11511SOL     OW46160   2.985   4.634  23.101
11511SOL    HW146161   3.040   4.566  23.064
11511SOL    HW246162   2.912   4.644  23.039
11512SOL     OW46163   3.253   2.110   9.887
11512SOL    HW146164   3.269   2.025   9.929
11512SOL    HW246165   3.215   2.087   9.802
11513SOL     OW46166   1.782   0.381   1.657
11513SOL    HW146167   1.743   0.354   1.574
11513SOL    HW246168   1.820   0.301   1.693
11514SOL     OW46169   2.599   2.872   0.332
11514SOL    HW146170   2.541   2.795   0.332
11514SOL    HW246171   2.546   2.941   0.372
11515SOL     OW46172   1.120   0.999   3.845
11515SOL    HW146173   1.072   0.928   3.890
11515SOL    HW246174   1.131   1.066   3.912
11516SOL     OW46175   3.099   2.259  28.233
11516SOL    HW146176   3.013   2.295  28.210
11516SOL    HW246177   3.157   2.285  28.161
11517SOL     OW46178   2.281   2.781  20.448
11517SOL    HW146179   2.266   2.871  20.419
11517SOL    HW246180   2.220   2.769  20.521
11518SOL     OW46181   1.548   1.140   1.858
11518SOL    HW146182   1.575   1.067   1.915
11518SOL    HW246183   1.631   1.177   1.827
11519SOL     OW46184   3.650   3.381  20.676
11519SOL    HW146185   3.602   3.342  20.603
11519SOL    HW246186   3.703   3.449  20.636
11520SOL     OW46187   0.384   3.842  18.405
11520SOL    HW146188   0.447   3.811  18.470
11520SOL    HW246189   0.325   3.899  18.455
11521SOL     OW46190   0.941   2.992   8.988
11521SOL    HW146191   0.970   2.939   9.063
11521SOL    HW246192   1.021   3.010   8.939
11522SOL     OW46193   0.505   2.664   4.916
11522SOL    HW146194   0.577   2.702   4.866
11522SOL    HW246195   0.430   2.667   4.857
11523SOL     OW46196   2.838   0.498   4.956
11523SOL    HW146197   2.761   0.540   4.994
11523SOL    HW246198   2.907   0.512   5.021
11524SOL     OW46199   2.395   1.394  27.870
11524SOL    HW146200   2.379   1.346  27.789
11524SOL    HW246201   2.356   1.480  27.854
11525SOL     OW46202   4.225   1.955   4.720
11525SOL    HW146203   4.240   2.038   4.675
11525SOL    HW246204   4.254   1.888   4.659
11526SOL     OW46205   1.658   3.775  26.584
11526SOL    HW146206   1.714   3.842  26.544
11526SOL    HW246207   1.572   3.816  26.590
11527SOL     OW46208   0.542   1.466  21.083
11527SOL    HW146209   0.513   1.423  21.163
11527SOL    HW246210   0.593   1.541  21.112
11528SOL     OW46211   1.748   2.554   6.330
11528SOL    HW146212   1.834   2.519   6.353
11528SOL    HW246213   1.693   2.537   6.407
11529SOL     OW46214   2.722   0.033  10.377
11529SOL    HW146215   2.775   0.042  10.456
11529SOL    HW246216   2.768   4.748  10.325
11530SOL     OW46217   4.022   4.191   4.114
11530SOL    HW146218   4.077   4.165   4.188
11530SOL    HW246219   3.984   4.109   4.083
11531SOL     OW46220   4.348   3.389  20.084
11531SOL    HW146221   4.381   3.455  20.024
11531SOL    HW246222   4.389   3.409  20.168
11532SOL     OW46223   0.797   1.868  22.113
11532SOL    HW146224   0.879   1.908  22.141
11532SOL    HW246225   0.816   1.775  22.107
11533SOL     OW46226   3.057   3.875   3.156
11533SOL    HW146227   3.054   3.951   3.214
11533SOL    HW246228   2.997   3.812   3.197
11534SOL     OW46229   0.122   2.681  24.237
11534SOL    HW146230   0.096   2.619  24.305
11534SOL    HW246231   0.041   2.697  24.188
11535SOL     OW46232   3.531   2.292   3.514
11535SOL    HW146233   3.615   2.327   3.544
11535SOL    HW246234   3.555   2.224   3.451
11536SOL     OW46235   2.666   2.864   0.883
11536SOL    HW146236   2.655   2.780   0.928
11536SOL    HW246237   2.728   2.845   0.812
11537SOL     OW46238   0.419   0.066   7.606
11537SOL    HW146239   0.505   0.081   7.646
11537SOL    HW246240   0.423   0.111   7.522
11538SOL     OW46241   2.998   3.443   5.838
11538SOL    HW146242   2.977   3.386   5.764
11538SOL    HW246243   3.092   3.432   5.851
11539SOL     OW46244   3.906   1.835   7.677
11539SOL    HW146245   3.952   1.891   7.740
11539SOL    HW246246   3.854   1.776   7.732
11540SOL     OW46247   2.924   2.367  17.597
11540SOL    HW146248   2.873   2.294  17.633
11540SOL    HW246249   2.894   2.375  17.506
11541SOL     OW46250   3.580   0.099  25.442
11541SOL    HW146251   3.569   0.105  25.347
11541SOL    HW246252   3.494   0.070  25.474
11542SOL     OW46253   4.416   2.340   7.677
11542SOL    HW146254   4.439   2.424   7.715
11542SOL    HW246255   4.431   2.350   7.583
11543SOL     OW46256   2.634   3.837  20.356
11543SOL    HW146257   2.580   3.912  20.379
11543SOL    HW246258   2.633   3.835  20.260
11544SOL     OW46259   2.433   0.579   3.251
11544SOL    HW146260   2.492   0.654   3.258
11544SOL    HW246261   2.491   0.503   3.251
11545SOL     OW46262   4.527   2.458   8.528
11545SOL    HW146263   4.515   2.535   8.583
11545SOL    HW246264   4.439   2.430   8.506
11546SOL     OW46265   4.666   3.113  27.293
11546SOL    HW146266   4.610   3.190  27.285
11546SOL    HW246267   4.741   3.132  27.237
11547SOL     OW46268   4.516   1.098   8.379
11547SOL    HW146269   4.423   1.084   8.362
11547SOL    HW246270   4.523   1.102   8.474
11548SOL     OW46271   3.914   2.454  19.028
11548SOL    HW146272   3.832   2.466  19.076
11548SOL    HW246273   3.982   2.487  19.087
11549SOL     OW46274   0.147   3.412   7.536
11549SOL    HW146275   0.149   3.423   7.441
11549SOL    HW246276   0.055   3.393   7.556
11550SOL     OW46277   2.613   4.649   2.967
11550SOL    HW146278   2.680   4.680   2.906
11550SOL    HW246279   2.662   4.625   3.046
11551SOL     OW46280   3.804   2.714  27.935
11551SOL    HW146281   3.867   2.765  27.885
11551SOL    HW246282   3.732   2.774  27.952
11552SOL     OW46283   2.913   4.770  17.199
11552SOL    HW146284   2.965   0.058  17.158
11552SOL    HW246285   2.886   0.027  17.283
11553SOL     OW46286   2.683   2.026  27.368
11553SOL    HW146287   2.621   2.098  27.360
11553SOL    HW246288   2.628   1.948  27.376
11554SOL     OW46289   1.934   1.804   0.677
11554SOL    HW146290   1.982   1.855   0.613
11554SOL    HW246291   1.866   1.863   0.709
11555SOL     OW46292   2.799   0.968  25.791
11555SOL    HW146293   2.723   1.021  25.764
11555SOL    HW246294   2.842   0.944  25.709
11556SOL     OW46295   4.698   1.467   1.627
11556SOL    HW146296   0.012   1.463   1.630
11556SOL    HW246297   4.671   1.379   1.599
11557SOL     OW46298   1.914   0.276   4.455
11557SOL    HW146299   1.866   0.311   4.380
11557SOL    HW246300   1.855   0.288   4.529
11558SOL     OW46301   3.468   2.103   0.643
11558SOL    HW146302   3.514   2.038   0.591
11558SOL    HW246303   3.391   2.126   0.590
11559SOL     OW46304   0.441   0.723   4.328
11559SOL    HW146305   0.392   0.727   4.410
11559SOL    HW246306   0.480   0.635   4.327
11560SOL     OW46307   1.634   4.542   1.356
11560SOL    HW146308   1.696   4.480   1.316
11560SOL    HW246309   1.675   4.628   1.343
11561SOL     OW46310   2.640   0.995  26.229
11561SOL    HW146311   2.712   0.948  26.188
11561SOL    HW246312   2.580   1.014  26.157
11562SOL     OW46313   4.426   3.081   3.924
11562SOL    HW146314   4.486   3.015   3.957
11562SOL    HW246315   4.382   3.115   4.002
11563SOL     OW46316   3.700   0.316  21.772
11563SOL    HW146317   3.773   0.333  21.713
11563SOL    HW246318   3.684   0.400  21.816
11564SOL     OW46319   0.052   0.963  25.070
11564SOL    HW146320   0.043   1.043  25.019
11564SOL    HW246321   4.770   0.974  25.142
11565SOL     OW46322   2.499   1.401  21.676
11565SOL    HW146323   2.411   1.436  21.660
11565SOL    HW246324   2.484   1.321  21.727
11566SOL     OW46325   0.514   2.014   5.900
11566SOL    HW146326   0.421   2.029   5.914
11566SOL    HW246327   0.553   2.101   5.900
11567SOL     OW46328   1.513   3.925   8.551
11567SOL    HW146329   1.565   3.974   8.614
11567SOL    HW246330   1.515   3.835   8.584
11568SOL     OW46331   0.859   4.128   6.883
11568SOL    HW146332   0.794   4.155   6.949
11568SOL    HW246333   0.918   4.070   6.931
11569SOL     OW46334   4.059   2.608   1.891
11569SOL    HW146335   4.010   2.593   1.809
11569SOL    HW246336   4.091   2.698   1.883
11570SOL     OW46337   3.752   3.189   8.125
11570SOL    HW146338   3.673   3.142   8.152
11570SOL    HW246339   3.739   3.278   8.158
11571SOL     OW46340   2.295   3.413   9.173
11571SOL    HW146341   2.243   3.411   9.254
11571SOL    HW246342   2.384   3.433   9.203
11572SOL     OW46343   1.517   0.345   8.427
11572SOL    HW146344   1.546   0.409   8.362
11572SOL    HW246345   1.541   0.384   8.511
11573SOL     OW46346   3.137   2.801  20.578
11573SOL    HW146347   3.158   2.874  20.520
11573SOL    HW246348   3.045   2.812  20.599
11574SOL     OW46349   3.840   2.132   8.505
11574SOL    HW146350   3.916   2.076   8.522
11574SOL    HW246351   3.770   2.093   8.556
11575SOL     OW46352   1.674   2.014  22.461
11575SOL    HW146353   1.726   1.936  22.443
11575SOL    HW246354   1.615   2.022  22.386
11576SOL     OW46355   4.670   4.331  25.872
11576SOL    HW146356   4.735   4.321  25.941
11576SOL    HW246357   4.700   4.274  25.801
11577SOL     OW46358   2.959   2.150   5.216
11577SOL    HW146359   2.921   2.064   5.234
11577SOL    HW246360   2.973   2.151   5.121
11578SOL     OW46361   0.736   1.723   7.424
11578SOL    HW146362   0.738   1.763   7.337
11578SOL    HW246363   0.722   1.797   7.484
11579SOL     OW46364   0.369   3.718   8.226
11579SOL    HW146365   0.350   3.659   8.299
11579SOL    HW246366   0.286   3.761   8.207
11580SOL     OW46367   2.156   1.902  19.444
11580SOL    HW146368   2.132   1.828  19.499
11580SOL    HW246369   2.251   1.895  19.435
11581SOL     OW46370   4.609   2.896   3.156
11581SOL    HW146371   4.694   2.906   3.114
11581SOL    HW246372   4.577   2.811   3.126
11582SOL     OW46373   2.089   2.735  17.863
11582SOL    HW146374   2.149   2.809  17.853
11582SOL    HW246375   2.146   2.659  17.874
11583SOL     OW46376   0.908   3.239  19.458
11583SOL    HW146377   0.836   3.241  19.395
11583SOL    HW246378   0.986   3.257  19.406
11584SOL     OW46379   4.654   0.116  21.060
11584SOL    HW146380   4.601   0.178  21.011
11584SOL    HW246381   4.716   0.081  20.996
11585SOL     OW46382   0.395   0.721   8.624
11585SOL    HW146383   0.437   0.697   8.541
11585SOL    HW246384   0.305   0.742   8.601
11586SOL     OW46385   0.335   0.664  10.500
11586SOL    HW146386   0.365   0.616  10.577
11586SOL    HW246387   0.241   0.651  10.498
11587SOL     OW46388   1.116   0.653  20.538
11587SOL    HW146389   1.045   0.717  20.545
11587SOL    HW246390   1.112   0.621  20.448
11588SOL     OW46391   2.865   2.988   3.987
11588SOL    HW146392   2.886   2.943   4.068
11588SOL    HW246393   2.780   2.952   3.961
11589SOL     OW46394   1.949   1.559  22.925
11589SOL    HW146395   1.862   1.597  22.917
11589SOL    HW246396   1.957   1.501  22.849
11590SOL     OW46397   3.832   2.629  24.310
11590SOL    HW146398   3.908   2.664  24.264
11590SOL    HW246399   3.781   2.706  24.334
11591SOL     OW46400   2.208   2.510   8.726
11591SOL    HW146401   2.248   2.455   8.659
11591SOL    HW246402   2.181   2.589   8.679
11592SOL     OW46403   1.861   1.930  24.249
11592SOL    HW146404   1.867   1.848  24.200
11592SOL    HW246405   1.873   1.998  24.183
11593SOL     OW46406   1.184   0.617  23.779
11593SOL    HW146407   1.120   0.683  23.806
11593SOL    HW246408   1.239   0.663  23.715
11594SOL     OW46409   1.113   0.505   7.387
11594SOL    HW146410   1.084   0.478   7.474
11594SOL    HW246411   1.119   0.424   7.338
11595SOL     OW46412   2.523   2.351  20.467
11595SOL    HW146413   2.467   2.389  20.399
11595SOL    HW246414   2.599   2.409  20.471
11596SOL     OW46415   4.581   1.610   0.691
11596SOL    HW146416   4.534   1.541   0.644
11596SOL    HW246417   4.658   1.566   0.727
11597SOL     OW46418   0.022   4.690   5.792
11597SOL    HW146419   0.008   4.732   5.708
11597SOL    HW246420   4.766   4.750   5.857
11598SOL     OW46421   4.192   0.325   3.272
11598SOL    HW146422   4.237   0.284   3.199
11598SOL    HW246423   4.099   0.317   3.251
11599SOL     OW46424   0.618   2.222  27.687
11599SOL    HW146425   0.643   2.235  27.779
11599SOL    HW246426   0.568   2.140  27.688
11600SOL     OW46427   3.823   3.352  16.788
11600SOL    HW146428   3.850   3.267  16.820
11600SOL    HW246429   3.832   3.346  16.693
11601SOL     OW46430   2.888   3.479  20.565
11601SOL    HW146431   2.952   3.541  20.529
11601SOL    HW246432   2.833   3.455  20.491
11602SOL     OW46433   3.561   3.439  27.502
11602SOL    HW146434   3.564   3.353  27.460
11602SOL    HW246435   3.515   3.424  27.585
11603SOL     OW46436   3.391   2.784  18.303
11603SOL    HW146437   3.308   2.813  18.264
11603SOL    HW246438   3.442   2.864  18.313
11604SOL     OW46439   4.567   2.160  17.818
11604SOL    HW146440   4.495   2.213  17.852
11604SOL    HW246441   4.642   2.182  17.873
11605SOL     OW46442   2.938   1.802   0.863
11605SOL    HW146443   2.894   1.887   0.859
11605SOL    HW246444   3.031   1.823   0.852
11606SOL     OW46445   1.741   2.560  18.605
11606SOL    HW146446   1.806   2.595  18.544
11606SOL    HW246447   1.781   2.480  18.638
11607SOL     OW46448   4.083   0.532   9.126
11607SOL    HW146449   4.049   0.621   9.123
11607SOL    HW246450   4.143   0.531   9.201
11608SOL     OW46451   2.337   0.831   2.958
11608SOL    HW146452   2.425   0.816   2.922
11608SOL    HW246453   2.287   0.754   2.933
11609SOL     OW46454   0.739   3.837   9.596
11609SOL    HW146455   0.758   3.866   9.507
11609SOL    HW246456   0.651   3.870   9.613
11610SOL     OW46457   3.665   0.847   4.665
11610SOL    HW146458   3.659   0.937   4.695
11610SOL    HW246459   3.590   0.803   4.705
11611SOL     OW46460   4.231   3.887   4.955
11611SOL    HW146461   4.278   3.877   4.873
11611SOL    HW246462   4.296   3.920   5.017
11612SOL     OW46463   3.374   0.964  28.051
11612SOL    HW146464   3.425   1.034  28.093
11612SOL    HW246465   3.423   0.884  28.069
11613SOL     OW46466   1.611   0.561   0.049
11613SOL    HW146467   1.536   0.501   0.042
11613SOL    HW246468   1.610   0.590   0.140
11614SOL     OW46469   3.739   2.444  24.820
11614SOL    HW146470   3.763   2.483  24.736
11614SOL    HW246471   3.764   2.509  24.885
11615SOL     OW46472   1.081   2.512  10.742
11615SOL    HW146473   1.155   2.573  10.745
11615SOL    HW246474   1.121   2.426  10.754
11616SOL     OW46475   4.198   1.261   0.648
11616SOL    HW146476   4.138   1.191   0.672
11616SOL    HW246477   4.279   1.240   0.694
11617SOL     OW46478   3.664   0.247   4.099
11617SOL    HW146479   3.631   0.157   4.102
11617SOL    HW246480   3.759   0.238   4.096
11618SOL     OW46481   3.892   1.609  23.928
11618SOL    HW146482   3.834   1.674  23.968
11618SOL    HW246483   3.966   1.659  23.894
11619SOL     OW46484   0.160   2.331   9.112
11619SOL    HW146485   0.215   2.268   9.066
11619SOL    HW246486   0.102   2.277   9.166
11620SOL     OW46487   3.735   1.403   5.868
11620SOL    HW146488   3.679   1.475   5.898
11620SOL    HW246489   3.680   1.325   5.879
11621SOL     OW46490   0.729   3.476   2.683
11621SOL    HW146491   0.722   3.383   2.659
11621SOL    HW246492   0.780   3.475   2.765
11622SOL     OW46493   4.159   1.885   0.040
11622SOL    HW146494   4.143   1.964   0.092
11622SOL    HW246495   4.154   1.813   0.103
11623SOL     OW46496   2.604   4.312  22.427
11623SOL    HW146497   2.554   4.270  22.498
11623SOL    HW246498   2.654   4.381  22.471
11624SOL     OW46499   1.371   1.769  20.771
11624SOL    HW146500   1.376   1.674  20.783
11624SOL    HW246501   1.304   1.781  20.704
11625SOL     OW46502   3.751   3.581   5.974
11625SOL    HW146503   3.696   3.504   5.989
11625SOL    HW246504   3.714   3.649   6.030
11626SOL     OW46505   3.417   0.501   8.816
11626SOL    HW146506   3.351   0.449   8.772
11626SOL    HW246507   3.434   0.574   8.757
11627SOL     OW46508   4.480   2.165  17.581
11627SOL    HW146509   4.519   2.160  17.668
11627SOL    HW246510   4.477   2.074  17.552
11628SOL     OW46511   3.878   0.517   2.159
11628SOL    HW146512   3.906   0.449   2.099
11628SOL    HW246513   3.950   0.580   2.160
11629SOL     OW46514   4.763   0.396   6.944
11629SOL    HW146515   0.014   0.447   6.870
11629SOL    HW246516   4.671   0.421   6.953
11630SOL     OW46517   1.958   4.696   1.604
11630SOL    HW146518   1.950   0.010   1.613
11630SOL    HW246519   1.898   4.660   1.669
11631SOL     OW46520   4.063   4.492  27.986
11631SOL    HW146521   4.016   4.413  28.014
11631SOL    HW246522   4.117   4.463  27.913
11632SOL     OW46523   0.807   0.789  22.800
11632SOL    HW146524   0.801   0.851  22.872
11632SOL    HW246525   0.716   0.771  22.776
11633SOL     OW46526   2.649   0.818  21.633
11633SOL    HW146527   2.703   0.739  21.634
11633SOL    HW246528   2.697   0.878  21.576
11634SOL     OW46529   2.719   3.791   9.870
11634SOL    HW146530   2.718   3.842   9.789
11634SOL    HW246531   2.630   3.797   9.903
11635SOL     OW46532   2.927   0.655  25.725
11635SOL    HW146533   2.938   0.734  25.672
11635SOL    HW246534   2.933   0.583  25.662
11636SOL     OW46535   2.557   4.242  27.622
11636SOL    HW146536   2.566   4.336  27.637
11636SOL    HW246537   2.625   4.222  27.558
11637SOL     OW46538   2.310   1.566   9.273
11637SOL    HW146539   2.249   1.636   9.295
11637SOL    HW246540   2.396   1.600   9.296
11638SOL     OW46541   1.303   1.304   5.467
11638SOL    HW146542   1.243   1.377   5.484
11638SOL    HW246543   1.356   1.333   5.393
11639SOL     OW46544   4.242   2.117   2.920
11639SOL    HW146545   4.159   2.163   2.913
11639SOL    HW246546   4.286   2.134   2.836
11640SOL     OW46547   1.012   1.740   6.945
11640SOL    HW146548   1.069   1.816   6.940
11640SOL    HW246549   1.066   1.667   6.916
11641SOL     OW46550   2.079   1.347   4.283
11641SOL    HW146551   2.138   1.337   4.208
11641SOL    HW246552   2.025   1.268   4.281
11642SOL     OW46553   2.252   1.560  26.332
11642SOL    HW146554   2.279   1.641  26.290
11642SOL    HW246555   2.246   1.583  26.425
11643SOL     OW46556   1.066   3.661  25.915
11643SOL    HW146557   1.073   3.748  25.956
11643SOL    HW246558   1.066   3.679  25.821
11644SOL     OW46559   1.622   2.534   6.581
11644SOL    HW146560   1.649   2.595   6.649
11644SOL    HW246561   1.622   2.448   6.623
11645SOL     OW46562   0.139   0.242  26.694
11645SOL    HW146563   0.146   0.192  26.612
11645SOL    HW246564   0.085   0.318  26.671
11646SOL     OW46565   2.526   2.910   3.175
11646SOL    HW146566   2.451   2.851   3.164
11646SOL    HW246567   2.584   2.864   3.236
11647SOL     OW46568   3.075   1.665  26.965
11647SOL    HW146569   3.081   1.574  26.993
11647SOL    HW246570   3.140   1.711  27.018
11648SOL     OW46571   4.024   4.724   0.308
11648SOL    HW146572   4.046   4.771   0.388
11648SOL    HW246573   4.100   4.669   0.291
11649SOL     OW46574   0.005   0.438   4.194
11649SOL    HW146575   0.055   0.409   4.271
11649SOL    HW246576   0.051   0.398   4.120
11650SOL     OW46577   2.993   3.738  24.181
11650SOL    HW146578   3.073   3.788  24.167
11650SOL    HW246579   3.016   3.673  24.248
11651SOL     OW46580   2.601   1.423   5.014
11651SOL    HW146581   2.646   1.386   5.090
11651SOL    HW246582   2.622   1.364   4.942
11652SOL     OW46583   2.148   1.062   3.688
11652SOL    HW146584   2.103   1.093   3.609
11652SOL    HW246585   2.200   0.988   3.658
11653SOL     OW46586   3.533   2.098  19.349
11653SOL    HW146587   3.528   2.066  19.259
11653SOL    HW246588   3.626   2.107  19.366
11654SOL     OW46589   3.400   0.240  20.541
11654SOL    HW146590   3.338   0.171  20.566
11654SOL    HW246591   3.346   0.305  20.496
11655SOL     OW46592   1.069   1.315   7.439
11655SOL    HW146593   1.131   1.244   7.427
11655SOL    HW246594   1.001   1.278   7.495
11656SOL     OW46595   1.586   0.694   4.212
11656SOL    HW146596   1.640   0.684   4.134
11656SOL    HW246597   1.501   0.657   4.187
11657SOL     OW46598   4.772   0.206  24.815
11657SOL    HW146599   4.705   0.265  24.849
11657SOL    HW246600   0.048   0.261  24.762
11658SOL     OW46601   0.372   0.207   5.574
11658SOL    HW146602   0.329   0.255   5.644
11658SOL    HW246603   0.431   0.146   5.619
11659SOL     OW46604   1.154   2.944   2.608
11659SOL    HW146605   1.160   2.961   2.514
11659SOL    HW246606   1.246   2.940   2.637
11660SOL     OW46607   2.448   0.337   9.187
11660SOL    HW146608   2.515   0.309   9.125
11660SOL    HW246609   2.485   0.415   9.229
11661SOL     OW46610   1.443   2.056  17.949
11661SOL    HW146611   1.482   1.971  17.932
11661SOL    HW246612   1.363   2.037  17.999
11662SOL     OW46613   0.688   3.391   1.200
11662SOL    HW146614   0.702   3.331   1.128
11662SOL    HW246615   0.706   3.339   1.279
11663SOL     OW46616   2.109   1.707  28.329
11663SOL    HW146617   2.084   1.615  28.337
11663SOL    HW246618   2.077   1.748  28.410
11664SOL     OW46619   0.738   2.197   1.007
11664SOL    HW146620   0.680   2.267   1.038
11664SOL    HW246621   0.724   2.193   0.913
11665SOL     OW46622   1.340   0.941   9.467
11665SOL    HW146623   1.357   0.855   9.430
11665SOL    HW246624   1.267   0.928   9.527
11666SOL     OW46625   4.511   0.288   6.276
11666SOL    HW146626   4.555   0.336   6.346
11666SOL    HW246627   4.451   0.353   6.237
11667SOL     OW46628   3.118   3.820   9.135
11667SOL    HW146629   3.080   3.906   9.118
11667SOL    HW246630   3.170   3.832   9.214
11668SOL     OW46631   4.608   1.512  26.559
11668SOL    HW146632   4.617   1.418  26.578
11668SOL    HW246633   4.677   1.553  26.612
11669SOL     OW46634   2.265   1.890   4.218
11669SOL    HW146635   2.200   1.845   4.271
11669SOL    HW246636   2.347   1.881   4.266
11670SOL     OW46637   0.987   1.705   7.625
11670SOL    HW146638   0.949   1.681   7.710
11670SOL    HW246639   1.016   1.795   7.636
11671SOL     OW46640   2.261   2.305   0.153
11671SOL    HW146641   2.337   2.336   0.202
11671SOL    HW246642   2.187   2.352   0.193
11672SOL     OW46643   0.272   0.953   5.280
11672SOL    HW146644   0.241   0.907   5.358
11672SOL    HW246645   0.241   0.901   5.206
11673SOL     OW46646   0.556   1.628   1.530
11673SOL    HW146647   0.460   1.621   1.533
11673SOL    HW246648   0.587   1.574   1.602
11674SOL     OW46649   1.075   2.147  21.984
11674SOL    HW146650   1.161   2.176  21.955
11674SOL    HW246651   1.064   2.060  21.945
11675SOL     OW46652   4.225   0.634  26.971
11675SOL    HW146653   4.142   0.617  27.016
11675SOL    HW246654   4.263   0.709  27.018
11676SOL     OW46655   4.047   2.269   9.163
11676SOL    HW146656   4.024   2.224   9.082
11676SOL    HW246657   3.974   2.330   9.177
11677SOL     OW46658   1.784   2.256  19.711
11677SOL    HW146659   1.760   2.239  19.619
11677SOL    HW246660   1.864   2.205  19.725
11678SOL     OW46661   2.707   4.024   5.554
11678SOL    HW146662   2.764   4.001   5.627
11678SOL    HW246663   2.623   3.984   5.575
11679SOL     OW46664   4.091   0.335  25.056
11679SOL    HW146665   4.007   0.380  25.066
11679SOL    HW246666   4.091   0.269  25.126
11680SOL     OW46667   0.335   0.025  23.429
11680SOL    HW146668   0.275   4.735  23.454
11680SOL    HW246669   0.283   0.081  23.372
11681SOL     OW46670   2.781   3.082   8.959
11681SOL    HW146671   2.842   3.059   8.889
11681SOL    HW246672   2.822   3.157   9.002
11682SOL     OW46673   1.068   1.465  19.598
11682SOL    HW146674   1.062   1.512  19.515
11682SOL    HW246675   0.980   1.473  19.637
11683SOL     OW46676   1.581   3.658   8.665
11683SOL    HW146677   1.639   3.670   8.589
11683SOL    HW246678   1.638   3.624   8.734
11684SOL     OW46679   1.164   1.927   2.488
11684SOL    HW146680   1.237   1.987   2.505
11684SOL    HW246681   1.168   1.912   2.393
11685SOL     OW46682   1.370   1.845  10.733
11685SOL    HW146683   1.296   1.899  10.708
11685SOL    HW246684   1.424   1.901  10.789
11686SOL     OW46685   0.166   1.221   5.326
11686SOL    HW146686   0.144   1.129   5.310
11686SOL    HW246687   0.166   1.261   5.239
11687SOL     OW46688   0.388   0.263  21.138
11687SOL    HW146689   0.308   0.263  21.190
11687SOL    HW246690   0.455   0.297  21.197
11688SOL     OW46691   4.237   0.335  25.740
11688SOL    HW146692   4.282   0.252  25.723
11688SOL    HW246693   4.293   0.401  25.700
11689SOL     OW46694   3.604   0.636   1.847
11689SOL    HW146695   3.652   0.713   1.817
11689SOL    HW246696   3.512   0.660   1.836
11690SOL     OW46697   2.255   2.714   6.208
11690SOL    HW146698   2.163   2.718   6.234
11690SOL    HW246699   2.278   2.622   6.219
11691SOL     OW46700   1.632   0.295  21.760
11691SOL    HW146701   1.618   0.376  21.711
11691SOL    HW246702   1.652   0.324  21.849
11692SOL     OW46703   0.082   4.629  25.141
11692SOL    HW146704   0.016   4.603  25.205
11692SOL    HW246705   0.070   4.723  25.131
11693SOL     OW46706   0.295   2.768  27.902
11693SOL    HW146707   0.271   2.682  27.868
11693SOL    HW246708   0.372   2.793  27.850
11694SOL     OW46709   1.516   3.477   2.045
11694SOL    HW146710   1.588   3.479   2.108
11694SOL    HW246711   1.453   3.541   2.079
11695SOL     OW46712   2.199   1.837  18.446
11695SOL    HW146713   2.204   1.742  18.457
11695SOL    HW246714   2.196   1.850  18.351
11696SOL     OW46715   0.004   4.491   3.995
11696SOL    HW146716   4.717   4.425   3.983
11696SOL    HW246717   4.751   4.569   3.952
11697SOL     OW46718   4.466   3.939  17.770
11697SOL    HW146719   4.475   4.027  17.808
11697SOL    HW246720   4.543   3.929  17.714
11698SOL     OW46721   0.341   1.803   5.534
11698SOL    HW146722   0.304   1.842   5.455
11698SOL    HW246723   0.356   1.877   5.593
11699SOL     OW46724   0.211   2.152  22.795
11699SOL    HW146725   0.212   2.090  22.722
11699SOL    HW246726   0.120   2.178  22.804
11700SOL     OW46727   2.091   1.678   1.492
11700SOL    HW146728   2.031   1.745   1.523
11700SOL    HW246729   2.037   1.621   1.438
11701SOL     OW46730   0.405   2.088   9.633
11701SOL    HW146731   0.383   2.007   9.679
11701SOL    HW246732   0.429   2.150   9.702
11702SOL     OW46733   2.368   3.233  19.119
11702SOL    HW146734   2.434   3.289  19.079
11702SOL    HW246735   2.318   3.199  19.046
11703SOL     OW46736   2.406   1.563   1.252
11703SOL    HW146737   2.393   1.528   1.340
11703SOL    HW246738   2.322   1.547   1.208
11704SOL     OW46739   2.329   3.806  22.652
11704SOL    HW146740   2.300   3.889  22.613
11704SOL    HW246741   2.423   3.803  22.635
11705SOL     OW46742   0.517   0.262   0.153
11705SOL    HW146743   0.557   0.215   0.226
11705SOL    HW246744   0.511   0.198   0.083
11706SOL     OW46745   1.893   1.041   2.558
11706SOL    HW146746   1.947   1.004   2.628
11706SOL    HW246747   1.805   1.008   2.576
11707SOL     OW46748   4.042   1.332   6.503
11707SOL    HW146749   3.967   1.367   6.551
11707SOL    HW246750   4.075   1.261   6.558
11708SOL     OW46751   3.342   1.133  23.619
11708SOL    HW146752   3.417   1.186  23.592
11708SOL    HW246753   3.379   1.047  23.639
11709SOL     OW46754   4.293   0.005  20.410
11709SOL    HW146755   4.274   4.716  20.472
11709SOL    HW246756   4.270   0.086  20.456
11710SOL     OW46757   2.429   3.098   2.753
11710SOL    HW146758   2.355   3.060   2.800
11710SOL    HW246759   2.485   3.135   2.822
11711SOL     OW46760   0.750   0.966   2.913
11711SOL    HW146761   0.800   0.981   2.833
11711SOL    HW246762   0.664   1.003   2.895
11712SOL     OW46763   2.305   3.884   4.843
11712SOL    HW146764   2.339   3.961   4.798
11712SOL    HW246765   2.262   3.833   4.775
11713SOL     OW46766   3.277   0.546  18.877
11713SOL    HW146767   3.233   0.477  18.926
11713SOL    HW246768   3.250   0.628  18.919
11714SOL     OW46769   1.283   4.234   1.178
11714SOL    HW146770   1.221   4.243   1.105
11714SOL    HW246771   1.228   4.214   1.254
11715SOL     OW46772   0.222   0.236   6.010
11715SOL    HW146773   0.287   0.166   6.008
11715SOL    HW246774   0.236   0.279   6.094
11716SOL     OW46775   1.868   4.031  24.287
11716SOL    HW146776   1.842   3.939  24.290
11716SOL    HW246777   1.787   4.080  24.305
11717SOL     OW46778   3.443   3.787   7.829
11717SOL    HW146779   3.529   3.750   7.809
11717SOL    HW246780   3.396   3.783   7.745
11718SOL     OW46781   3.150   1.555   4.361
11718SOL    HW146782   3.101   1.476   4.384
11718SOL    HW246783   3.087   1.626   4.369
11719SOL     OW46784   2.732   0.096   5.639
11719SOL    HW146785   2.741   0.035   5.566
11719SOL    HW246786   2.736   0.183   5.599
11720SOL     OW46787   3.110   4.233   0.516
11720SOL    HW146788   3.184   4.259   0.461
11720SOL    HW246789   3.150   4.205   0.598
11721SOL     OW46790   0.258   2.946   3.248
11721SOL    HW146791   0.190   3.005   3.216
11721SOL    HW246792   0.304   2.997   3.315
11722SOL     OW46793   3.630   1.376   0.647
11722SOL    HW146794   3.684   1.354   0.571
11722SOL    HW246795   3.669   1.327   0.720
11723SOL     OW46796   4.151   4.656   9.171
11723SOL    HW146797   4.232   4.663   9.120
11723SOL    HW246798   4.151   4.734   9.226
11724SOL     OW46799   3.945   3.976  24.414
11724SOL    HW146800   4.024   3.952  24.462
11724SOL    HW246801   3.873   3.941  24.468
11725SOL     OW46802   4.267   2.843  25.443
11725SOL    HW146803   4.286   2.782  25.515
11725SOL    HW246804   4.194   2.896  25.476
11726SOL     OW46805   4.766   1.260   5.513
11726SOL    HW146806   4.773   1.356   5.521
11726SOL    HW246807   0.040   1.239   5.438
11727SOL     OW46808   2.417   1.535  25.665
11727SOL    HW146809   2.341   1.477  25.666
11727SOL    HW246810   2.492   1.475  25.657
11728SOL     OW46811   3.851   2.683  21.412
11728SOL    HW146812   3.870   2.777  21.417
11728SOL    HW246813   3.755   2.678  21.406
11729SOL     OW46814   3.544   2.168  27.228
11729SOL    HW146815   3.572   2.244  27.178
11729SOL    HW246816   3.494   2.115  27.166
11730SOL     OW46817   4.511   2.189  23.072
11730SOL    HW146818   4.481   2.255  23.010
11730SOL    HW246819   4.431   2.144  23.098
11731SOL     OW46820   0.953   0.342  23.074
11731SOL    HW146821   0.885   0.276  23.062
11731SOL    HW246822   1.014   0.326  23.002
11732SOL     OW46823   4.608   0.921  27.349
11732SOL    HW146824   4.675   0.955  27.408
11732SOL    HW246825   4.614   0.977  27.271
11733SOL     OW46826   1.598   4.537   9.867
11733SOL    HW146827   1.535   4.582   9.923
11733SOL    HW246828   1.666   4.507   9.927
11734SOL     OW46829   1.427   1.486  22.302
11734SOL    HW146830   1.403   1.533  22.222
11734SOL    HW246831   1.351   1.433  22.323
11735SOL     OW46832   1.483   4.425   5.126
11735SOL    HW146833   1.419   4.410   5.056
11735SOL    HW246834   1.449   4.376   5.201
11736SOL     OW46835   2.972   3.622  24.544
11736SOL    HW146836   3.012   3.576  24.469
11736SOL    HW246837   2.880   3.597  24.540
11737SOL     OW46838   3.504   4.614  19.907
11737SOL    HW146839   3.488   4.709  19.907
11737SOL    HW246840   3.462   4.583  19.827
11738SOL     OW46841   3.293   2.067   3.403
11738SOL    HW146842   3.370   2.085   3.348
11738SOL    HW246843   3.239   2.146   3.395
11739SOL     OW46844   3.032   2.714   2.805
11739SOL    HW146845   3.037   2.675   2.893
11739SOL    HW246846   3.106   2.675   2.758
11740SOL     OW46847   4.347   0.933  27.408
11740SOL    HW146848   4.432   0.910  27.370
11740SOL    HW246849   4.353   1.027  27.423
11741SOL     OW46850   3.816   1.394   5.118
11741SOL    HW146851   3.819   1.422   5.210
11741SOL    HW246852   3.768   1.464   5.074
11742SOL     OW46853   1.613   0.426   0.450
11742SOL    HW146854   1.611   0.359   0.382
11742SOL    HW246855   1.664   0.387   0.521
11743SOL     OW46856   0.415   1.359  25.643
11743SOL    HW146857   0.387   1.408  25.720
11743SOL    HW246858   0.334   1.347  25.592
11744SOL     OW46859   3.115   2.034   3.041
11744SOL    HW146860   3.177   2.105   3.023
11744SOL    HW246861   3.059   2.031   2.963
11745SOL     OW46862   1.973   3.294   0.248
11745SOL    HW146863   1.966   3.376   0.199
11745SOL    HW246864   2.004   3.230   0.184
11746SOL     OW46865   1.329   3.621  21.329
11746SOL    HW146866   1.389   3.664  21.269
11746SOL    HW246867   1.242   3.652  21.302
11747SOL     OW46868   3.239   1.060   8.024
11747SOL    HW146869   3.172   0.993   8.012
11747SOL    HW246870   3.322   1.013   8.015
11748SOL     OW46871   4.693   4.627  26.703
11748SOL    HW146872   4.696   4.691  26.775
11748SOL    HW246873   4.600   4.610  26.691
11749SOL     OW46874   0.708   3.958   3.139
11749SOL    HW146875   0.723   3.909   3.059
11749SOL    HW246876   0.672   4.042   3.110
11750SOL     OW46877   0.589   2.364   3.792
11750SOL    HW146878   0.668   2.328   3.831
11750SOL    HW246879   0.596   2.343   3.699
11751SOL     OW46880   3.026   2.103  25.755
11751SOL    HW146881   2.947   2.052  25.774
11751SOL    HW246882   3.065   2.119  25.841
11752SOL     OW46883   0.301   3.656  23.673
11752SOL    HW146884   0.331   3.608  23.749
11752SOL    HW246885   0.225   3.608  23.642
11753SOL     OW46886   0.182   3.885   8.142
11753SOL    HW146887   0.183   3.981   8.142
11753SOL    HW246888   0.151   3.861   8.055
11754SOL     OW46889   1.151   3.397   5.250
11754SOL    HW146890   1.159   3.475   5.195
11754SOL    HW246891   1.071   3.355   5.220
11755SOL     OW46892   0.854   1.135   7.496
11755SOL    HW146893   0.830   1.137   7.403
11755SOL    HW246894   0.772   1.119   7.542
11756SOL     OW46895   3.438   3.661  23.474
11756SOL    HW146896   3.454   3.707  23.391
11756SOL    HW246897   3.345   3.673  23.491
11757SOL     OW46898   1.519   3.339  19.740
11757SOL    HW146899   1.514   3.397  19.664
11757SOL    HW246900   1.497   3.395  19.814
11758SOL     OW46901   0.682   3.664   1.195
11758SOL    HW146902   0.593   3.674   1.229
11758SOL    HW246903   0.703   3.572   1.211
11759SOL     OW46904   4.061   4.056   5.943
11759SOL    HW146905   4.068   4.150   5.927
11759SOL    HW246906   3.982   4.030   5.896
11760SOL     OW46907   2.291   4.193  26.529
11760SOL    HW146908   2.303   4.110  26.484
11760SOL    HW246909   2.361   4.249  26.494
11761SOL     OW46910   2.498   2.799   7.064
11761SOL    HW146911   2.425   2.738   7.075
11761SOL    HW246912   2.492   2.828   6.973
11762SOL     OW46913   4.671   1.171   3.135
11762SOL    HW146914   4.619   1.177   3.215
11762SOL    HW246915   4.761   1.160   3.165
11763SOL     OW46916   4.770   3.924   5.967
11763SOL    HW146917   0.053   3.995   5.973
11763SOL    HW246918   4.713   3.949   5.895
11764SOL     OW46919   2.405   4.179  10.368
11764SOL    HW146920   2.444   4.224  10.443
11764SOL    HW246921   2.375   4.095  10.403
11765SOL     OW46922   2.605   3.550   5.935
11765SOL    HW146923   2.529   3.552   5.993
11765SOL    HW246924   2.594   3.470   5.883
11766SOL     OW46925   2.180   3.197   1.261
11766SOL    HW146926   2.271   3.191   1.231
11766SOL    HW246927   2.149   3.281   1.228
11767SOL     OW46928   0.635   3.854  22.637
11767SOL    HW146929   0.660   3.767  22.604
11767SOL    HW246930   0.550   3.871  22.596
11768SOL     OW46931   3.683   2.059   7.065
11768SOL    HW146932   3.760   2.061   7.008
11768SOL    HW246933   3.696   2.132   7.126
11769SOL     OW46934   4.516   2.728   4.863
11769SOL    HW146935   4.533   2.746   4.771
11769SOL    HW246936   4.483   2.810   4.898
11770SOL     OW46937   1.771   4.737   0.077
11770SOL    HW146938   1.769   4.645   0.052
11770SOL    HW246939   1.774   0.004  28.517
11771SOL     OW46940   1.549   3.233   6.822
11771SOL    HW146941   1.524   3.149   6.861
11771SOL    HW246942   1.632   3.215   6.778
11772SOL     OW46943   1.820   0.063  22.086
11772SOL    HW146944   1.900   0.014  22.072
11772SOL    HW246945   1.848   0.144  22.128
11773SOL     OW46946   1.404   2.599   8.736
11773SOL    HW146947   1.355   2.569   8.812
11773SOL    HW246948   1.388   2.693   8.732
11774SOL     OW46949   3.572   1.101   9.244
11774SOL    HW146950   3.598   1.152   9.320
11774SOL    HW246951   3.588   1.159   9.170
11775SOL     OW46952   0.860   3.343  22.931
11775SOL    HW146953   0.920   3.333  22.857
11775SOL    HW246954   0.901   3.294  23.002
11776SOL     OW46955   1.629   4.362  21.178
11776SOL    HW146956   1.602   4.416  21.104
11776SOL    HW246957   1.604   4.413  21.255
11777SOL     OW46958   1.428   0.515  26.362
11777SOL    HW146959   1.410   0.601  26.324
11777SOL    HW246960   1.437   0.532  26.456
11778SOL     OW46961   3.165   3.670  18.395
11778SOL    HW146962   3.168   3.735  18.324
11778SOL    HW246963   3.079   3.683  18.435
11779SOL     OW46964   2.932   3.640  18.524
11779SOL    HW146965   2.847   3.604  18.549
11779SOL    HW246966   2.912   3.725  18.485
11780SOL     OW46967   2.273   0.502  27.633
11780SOL    HW146968   2.179   0.489  27.629
11780SOL    HW246969   2.305   0.432  27.691
11781SOL     OW46970   3.643   4.762  26.462
11781SOL    HW146971   3.636   0.067  26.421
11781SOL    HW246972   3.700   4.776  26.538
11782SOL     OW46973   3.119   4.301   7.568
11782SOL    HW146974   3.031   4.316   7.603
11782SOL    HW246975   3.137   4.379   7.514
11783SOL     OW46976   0.012   0.245   4.861
11783SOL    HW146977   4.771   0.321   4.915
11783SOL    HW246978   0.009   0.278   4.771
11784SOL     OW46979   1.937   2.596  23.503
11784SOL    HW146980   1.943   2.609  23.408
11784SOL    HW246981   2.009   2.648  23.539
11785SOL     OW46982   1.809   3.821  20.564
11785SOL    HW146983   1.745   3.884  20.531
11785SOL    HW246984   1.762   3.738  20.566
11786SOL     OW46985   0.877   3.247  24.008
11786SOL    HW146986   0.844   3.277  24.093
11786SOL    HW246987   0.807   3.192  23.974
11787SOL     OW46988   4.748   2.030  17.600
11787SOL    HW146989   0.014   1.965  17.652
11787SOL    HW246990   4.655   2.006  17.611
11788SOL     OW46991   2.010   1.885  22.287
11788SOL    HW146992   2.033   1.973  22.318
11788SOL    HW246993   2.000   1.895  22.192
11789SOL     OW46994   4.282   1.934  28.019
11789SOL    HW146995   4.240   1.944  28.105
11789SOL    HW246996   4.332   2.015  28.007
11790SOL     OW46997   1.585   0.865   6.489
11790SOL    HW146998   1.536   0.838   6.412
11790SOL    HW246999   1.640   0.937   6.459
11791SOL     OW47000   3.942   0.346  23.515
11791SOL    HW147001   3.866   0.331  23.572
11791SOL    HW247002   3.959   0.440  23.520
11792SOL     OW47003   3.852   3.246  23.335
11792SOL    HW147004   3.851   3.312  23.404
11792SOL    HW247005   3.804   3.285  23.262
11793SOL     OW47006   1.684   1.332  23.006
11793SOL    HW147007   1.665   1.372  23.091
11793SOL    HW247008   1.765   1.375  22.977
11794SOL     OW47009   4.194   0.038  18.684
11794SOL    HW147010   4.261   0.089  18.640
11794SOL    HW247011   4.225   0.028  18.773
11795SOL     OW47012   1.802   3.257  22.511
11795SOL    HW147013   1.715   3.295  22.499
11795SOL    HW247014   1.785   3.170  22.549
11796SOL     OW47015   0.697   1.495   7.624
11796SOL    HW147016   0.631   1.528   7.685
11796SOL    HW247017   0.721   1.571   7.571
11797SOL     OW47018   1.998   1.649   5.340
11797SOL    HW147019   2.047   1.639   5.258
11797SOL    HW247020   1.947   1.568   5.347
11798SOL     OW47021   3.398   0.302  17.149
11798SOL    HW147022   3.332   0.363  17.115
11798SOL    HW247023   3.438   0.263  17.070
11799SOL     OW47024   0.629   2.045   0.041
11799SOL    HW147025   0.632   2.137   0.018
11799SOL    HW247026   0.697   2.004  28.509
11800SOL     OW47027   2.042   0.120   2.350
11800SOL    HW147028   2.086   0.035   2.353
11800SOL    HW247029   2.032   0.138   2.256
11801SOL     OW47030   4.212   0.877  27.086
11801SOL    HW147031   4.144   0.896  27.151
11801SOL    HW247032   4.164   0.863  27.005
11802SOL     OW47033   2.272   3.847   6.329
11802SOL    HW147034   2.203   3.796   6.372
11802SOL    HW247035   2.302   3.908   6.397
11803SOL     OW47036   1.329   2.161  17.466
11803SOL    HW147037   1.323   2.097  17.536
11803SOL    HW247038   1.353   2.109  17.389
11804SOL     OW47039   2.098   2.243   7.764
11804SOL    HW147040   2.034   2.199   7.708
11804SOL    HW247041   2.178   2.193   7.752
11805SOL     OW47042   0.387   0.204   1.533
11805SOL    HW147043   0.382   0.239   1.444
11805SOL    HW247044   0.470   0.157   1.537
11806SOL     OW47045   1.696   0.707  26.482
11806SOL    HW147046   1.730   0.732  26.568
11806SOL    HW247047   1.696   0.611  26.483
11807SOL     OW47048   3.425   1.469  27.885
11807SOL    HW147049   3.378   1.510  27.958
11807SOL    HW247050   3.400   1.521  27.809
11808SOL     OW47051   4.200   3.268   0.405
11808SOL    HW147052   4.238   3.330   0.467
11808SOL    HW247053   4.106   3.274   0.419
11809SOL     OW47054   2.166   3.426   4.495
11809SOL    HW147055   2.172   3.385   4.581
11809SOL    HW247056   2.250   3.472   4.485
11810SOL     OW47057   2.381   2.105   8.050
11810SOL    HW147058   2.332   2.106   8.132
11810SOL    HW247059   2.409   2.014   8.040
11811SOL     OW47060   4.326   2.325   8.975
11811SOL    HW147061   4.295   2.352   9.062
11811SOL    HW247062   4.421   2.318   8.985
11812SOL     OW47063   3.069   4.571   5.268
11812SOL    HW147064   3.063   4.548   5.175
11812SOL    HW247065   3.000   4.520   5.310
11813SOL     OW47066   3.738   0.968   3.351
11813SOL    HW147067   3.710   0.979   3.441
11813SOL    HW247068   3.831   0.946   3.356
11814SOL     OW47069   3.595   4.177  24.199
11814SOL    HW147070   3.673   4.230  24.184
11814SOL    HW247071   3.607   4.138  24.286
11815SOL     OW47072   0.649   4.021   6.714
11815SOL    HW147073   0.714   4.055   6.776
11815SOL    HW247074   0.698   3.959   6.660
11816SOL     OW47075   2.300   2.587  24.938
11816SOL    HW147076   2.206   2.571  24.937
11816SOL    HW247077   2.315   2.644  25.013
11817SOL     OW47078   1.117   4.516  22.424
11817SOL    HW147079   1.133   4.515  22.330
11817SOL    HW247080   1.080   4.430  22.443
11818SOL     OW47081   3.562   1.808   4.343
11818SOL    HW147082   3.477   1.768   4.322
11818SOL    HW247083   3.620   1.779   4.273
11819SOL     OW47084   0.614   0.293  23.466
11819SOL    HW147085   0.535   0.314  23.416
11819SOL    HW247086   0.686   0.319  23.408
11820SOL     OW47087   0.348   2.667  27.249
11820SOL    HW147088   0.256   2.687  27.235
11820SOL    HW247089   0.347   2.580  27.290
11821SOL     OW47090   1.459   0.486   7.784
11821SOL    HW147091   1.509   0.406   7.802
11821SOL    HW247092   1.525   0.550   7.757
11822SOL     OW47093   4.107   2.332   0.831
11822SOL    HW147094   4.149   2.392   0.770
11822SOL    HW247095   4.067   2.265   0.775
11823SOL     OW47096   2.035   4.155   1.362
11823SOL    HW147097   2.068   4.190   1.279
11823SOL    HW247098   1.969   4.091   1.337
11824SOL     OW47099   0.205   3.470  21.166
11824SOL    HW147100   0.288   3.517  21.170
11824SOL    HW247101   0.228   3.385  21.128
11825SOL     OW47102   0.221   2.561   7.309
11825SOL    HW147103   0.302   2.531   7.267
11825SOL    HW247104   0.153   2.549   7.243
11826SOL     OW47105   1.505   2.285  27.235
11826SOL    HW147106   1.550   2.296  27.318
11826SOL    HW247107   1.485   2.374  27.206
11827SOL     OW47108   3.374   3.353  25.019
11827SOL    HW147109   3.347   3.277  24.968
11827SOL    HW247110   3.334   3.428  24.974
11828SOL     OW47111   1.671   3.998  21.733
11828SOL    HW147112   1.595   3.974  21.787
11828SOL    HW247113   1.638   3.993  21.643
11829SOL     OW47114   1.249   4.052   0.270
11829SOL    HW147115   1.252   4.012   0.357
11829SOL    HW247116   1.312   4.000   0.219
11830SOL     OW47117   1.048   3.039  27.457
11830SOL    HW147118   0.975   3.017  27.515
11830SOL    HW247119   1.126   3.022  27.510
11831SOL     OW47120   4.180   1.436  18.015
11831SOL    HW147121   4.098   1.408  18.057
11831SOL    HW247122   4.228   1.355  17.999
11832SOL     OW47123   3.823   1.508  24.799
11832SOL    HW147124   3.842   1.593  24.760
11832SOL    HW247125   3.769   1.528  24.876
11833SOL     OW47126   1.233   1.443  25.424
11833SOL    HW147127   1.253   1.536  25.413
11833SOL    HW247128   1.257   1.424  25.515
11834SOL     OW47129   0.350   3.753   2.080
11834SOL    HW147130   0.346   3.662   2.051
11834SOL    HW247131   0.440   3.765   2.110
11835SOL     OW47132   4.332   4.717  24.269
11835SOL    HW147133   4.346   4.673  24.353
11835SOL    HW247134   4.254   4.675  24.232
11836SOL     OW47135   4.337   1.928   9.150
11836SOL    HW147136   4.253   1.939   9.195
11836SOL    HW247137   4.325   1.973   9.067
11837SOL     OW47138   2.297   4.192   5.075
11837SOL    HW147139   2.335   4.112   5.113
11837SOL    HW247140   2.366   4.257   5.083
11838SOL     OW47141   3.228   3.493  27.996
11838SOL    HW147142   3.314   3.534  27.996
11838SOL    HW247143   3.220   3.453  27.909
11839SOL     OW47144   2.927   3.346   1.324
11839SOL    HW147145   2.897   3.278   1.386
11839SOL    HW247146   3.015   3.368   1.353
11840SOL     OW47147   1.931   4.452   3.933
11840SOL    HW147148   1.836   4.458   3.925
11840SOL    HW247149   1.963   4.484   3.848
11841SOL     OW47150   3.080   3.992   3.549
11841SOL    HW147151   3.151   3.992   3.613
11841SOL    HW247152   3.004   3.961   3.598
11842SOL     OW47153   2.212   4.141  25.270
11842SOL    HW147154   2.190   4.060  25.315
11842SOL    HW247155   2.184   4.210  25.330
11843SOL     OW47156   4.502   4.461   7.313
11843SOL    HW147157   4.497   4.380   7.362
11843SOL    HW247158   4.468   4.528   7.372
11844SOL     OW47159   2.143   2.223  25.923
11844SOL    HW147160   2.084   2.148  25.935
11844SOL    HW247161   2.169   2.247  26.012
11845SOL     OW47162   2.061   2.450  20.522
11845SOL    HW147163   1.993   2.386  20.499
11845SOL    HW247164   2.037   2.482  20.608
11846SOL     OW47165   1.310   4.253  26.689
11846SOL    HW147166   1.265   4.268  26.606
11846SOL    HW247167   1.375   4.323  26.694
11847SOL     OW47168   3.759   1.848  20.239
11847SOL    HW147169   3.789   1.828  20.150
11847SOL    HW247170   3.818   1.917  20.269
11848SOL     OW47171   0.343   1.456  27.265
11848SOL    HW147172   0.288   1.507  27.326
11848SOL    HW247173   0.393   1.522  27.218
11849SOL     OW47174   2.774   0.189   0.590
11849SOL    HW147175   2.771   0.264   0.532
11849SOL    HW247176   2.861   0.151   0.577
11850SOL     OW47177   4.499   1.764   1.930
11850SOL    HW147178   4.577   1.790   1.980
11850SOL    HW247179   4.532   1.742   1.843
11851SOL     OW47180   1.354   2.083   3.894
11851SOL    HW147181   1.259   2.076   3.900
11851SOL    HW247182   1.377   2.046   3.809
11852SOL     OW47183   3.889   2.030   6.130
11852SOL    HW147184   3.794   2.025   6.135
11852SOL    HW247185   3.912   1.970   6.059
11853SOL     OW47186   1.191   3.742  18.683
11853SOL    HW147187   1.131   3.738  18.608
11853SOL    HW247188   1.187   3.833  18.711
11854SOL     OW47189   3.704   4.298  23.914
11854SOL    HW147190   3.757   4.338  23.844
11854SOL    HW247191   3.720   4.353  23.990
11855SOL     OW47192   4.289   2.923  27.947
11855SOL    HW147193   4.379   2.916  27.916
11855SOL    HW247194   4.285   2.864  28.022
11856SOL     OW47195   1.263   2.238  19.250
11856SOL    HW147196   1.183   2.260  19.202
11856SOL    HW247197   1.265   2.301  19.322
11857SOL     OW47198   2.667   3.268  23.444
11857SOL    HW147199   2.655   3.212  23.367
11857SOL    HW247200   2.712   3.213  23.508
11858SOL     OW47201   2.934   0.495  20.488
11858SOL    HW147202   2.839   0.506  20.494
11858SOL    HW247203   2.949   0.402  20.499
11859SOL     OW47204   4.614   1.233   1.490
11859SOL    HW147205   4.638   1.169   1.422
11859SOL    HW247206   4.565   1.301   1.443
11860SOL     OW47207   2.185   0.775   5.010
11860SOL    HW147208   2.197   0.795   4.917
11860SOL    HW247209   2.090   0.778   5.023
11861SOL     OW47210   0.687   4.517  21.878
11861SOL    HW147211   0.657   4.478  21.796
11861SOL    HW247212   0.607   4.545  21.923
11862SOL     OW47213   2.571   0.580   1.593
11862SOL    HW147214   2.486   0.606   1.556
11862SOL    HW247215   2.635   0.628   1.541
11863SOL     OW47216   2.612   2.606   7.256
11863SOL    HW147217   2.655   2.525   7.228
11863SOL    HW247218   2.591   2.652   7.175
11864SOL     OW47219   1.956   3.273   4.335
11864SOL    HW147220   1.893   3.343   4.316
11864SOL    HW247221   2.027   3.317   4.383
11865SOL     OW47222   2.767   1.219   0.770
11865SOL    HW147223   2.759   1.139   0.822
11865SOL    HW247224   2.754   1.289   0.833
11866SOL     OW47225   3.904   2.153   4.538
11866SOL    HW147226   3.808   2.151   4.529
11866SOL    HW247227   3.922   2.238   4.577
11867SOL     OW47228   1.559   0.909  25.464
11867SOL    HW147229   1.548   0.838  25.527
11867SOL    HW247230   1.584   0.865  25.382
11868SOL     OW47231   0.665   1.263   6.788
11868SOL    HW147232   0.641   1.337   6.843
11868SOL    HW247233   0.753   1.239   6.817
11869SOL     OW47234   1.764   3.489  11.013
11869SOL    HW147235   1.753   3.583  11.001
11869SOL    HW247236   1.858   3.476  11.022
11870SOL     OW47237   1.932   3.319  21.372
11870SOL    HW147238   2.014   3.350  21.334
11870SOL    HW247239   1.946   3.327  21.467
11871SOL     OW47240   1.586   1.084  17.773
11871SOL    HW147241   1.574   1.001  17.727
11871SOL    HW247242   1.529   1.145  17.728
11872SOL     OW47243   3.625   3.692   6.176
11872SOL    HW147244   3.537   3.654   6.182
11872SOL    HW247245   3.659   3.688   6.266
11873SOL     OW47246   0.734   0.210  25.965
11873SOL    HW147247   0.793   0.186  26.036
11873SOL    HW247248   0.656   0.157  25.979
11874SOL     OW47249   2.290   3.094   3.103
11874SOL    HW147250   2.299   3.174   3.052
11874SOL    HW247251   2.342   3.110   3.182
11875SOL     OW47252   1.516   3.244   5.734
11875SOL    HW147253   1.456   3.227   5.807
11875SOL    HW247254   1.542   3.157   5.704
11876SOL     OW47255   1.755   3.865   0.430
11876SOL    HW147256   1.812   3.919   0.486
11876SOL    HW247257   1.714   3.803   0.490
11877SOL     OW47258   2.285   0.538   1.778
11877SOL    HW147259   2.195   0.565   1.796
11877SOL    HW247260   2.304   0.576   1.692
11878SOL     OW47261   1.815   2.940  26.608
11878SOL    HW147262   1.827   2.933  26.513
11878SOL    HW247263   1.818   3.033  26.626
11879SOL     OW47264   4.595   1.744   5.474
11879SOL    HW147265   4.610   1.838   5.479
11879SOL    HW247266   4.501   1.735   5.460
11880SOL     OW47267   3.797   1.446  21.117
11880SOL    HW147268   3.806   1.445  21.022
11880SOL    HW247269   3.753   1.529  21.137
11881SOL     OW47270   0.926   0.108   4.067
11881SOL    HW147271   0.880   0.133   4.147
11881SOL    HW247272   1.018   0.121   4.087
11882SOL     OW47273   3.323   2.781   1.534
11882SOL    HW147274   3.268   2.733   1.597
11882SOL    HW247275   3.267   2.791   1.457
11883SOL     OW47276   2.385   4.519   6.396
11883SOL    HW147277   2.434   4.600   6.386
11883SOL    HW247278   2.443   4.451   6.363
11884SOL     OW47279   4.133   4.367  21.341
11884SOL    HW147280   4.095   4.391  21.257
11884SOL    HW247281   4.128   4.271  21.343
11885SOL     OW47282   4.694   3.410  18.325
11885SOL    HW147283   4.697   3.391  18.419
11885SOL    HW247284   4.605   3.388  18.299
11886SOL     OW47285   3.104   2.331  22.781
11886SOL    HW147286   3.142   2.289  22.859
11886SOL    HW247287   3.176   2.332  22.718
11887SOL     OW47288   4.319   2.717  20.696
11887SOL    HW147289   4.365   2.670  20.766
11887SOL    HW247290   4.387   2.733  20.630
11888SOL     OW47291   4.265   0.888   3.707
11888SOL    HW147292   4.252   0.809   3.654
11888SOL    HW247293   4.181   0.901   3.752
11889SOL     OW47294   0.827   2.525  25.866
11889SOL    HW147295   0.912   2.568  25.866
11889SOL    HW247296   0.842   2.441  25.910
11890SOL     OW47297   4.488   4.429  23.078
11890SOL    HW147298   4.573   4.458  23.046
11890SOL    HW247299   4.452   4.377  23.006
11891SOL     OW47300   1.479   0.587  20.367
11891SOL    HW147301   1.441   0.502  20.347
11891SOL    HW247302   1.470   0.637  20.286
11892SOL     OW47303   1.111   2.722  27.756
11892SOL    HW147304   1.114   2.737  27.851
11892SOL    HW247305   1.093   2.628  27.747
11893SOL     OW47306   2.854   3.024  28.130
11893SOL    HW147307   2.884   3.057  28.045
11893SOL    HW247308   2.905   2.944  28.143
11894SOL     OW47309   0.588   3.354  25.457
11894SOL    HW147310   0.598   3.328  25.548
11894SOL    HW247311   0.501   3.394  25.453
11895SOL     OW47312   3.590   2.832   8.607
11895SOL    HW147313   3.500   2.804   8.592
11895SOL    HW247314   3.584   2.927   8.616
11896SOL     OW47315   0.143   3.312  18.236
11896SOL    HW147316   0.064   3.350  18.273
11896SOL    HW247317   0.146   3.223  18.271
11897SOL     OW47318   4.447   0.721   9.875
11897SOL    HW147319   4.365   0.683   9.909
11897SOL    HW247320   4.421   0.807   9.841
11898SOL     OW47321   1.560   2.094  26.704
11898SOL    HW147322   1.542   2.000  26.708
11898SOL    HW247323   1.499   2.132  26.767
11899SOL     OW47324   0.010   2.356  17.640
11899SOL    HW147325   0.080   2.362  17.574
11899SOL    HW247326   4.777   2.261  17.650
11900SOL     OW47327   3.459   3.728  25.781
11900SOL    HW147328   3.463   3.677  25.862
11900SOL    HW247329   3.541   3.709  25.736
11901SOL     OW47330   1.792   2.213  20.085
11901SOL    HW147331   1.810   2.142  20.024
11901SOL    HW247332   1.794   2.172  20.171
11902SOL     OW47333   2.987   0.256  21.571
11902SOL    HW147334   2.999   0.204  21.493
11902SOL    HW247335   2.995   0.347  21.541
11903SOL     OW47336   0.063   3.005   1.184
11903SOL    HW147337   0.088   2.988   1.275
11903SOL    HW247338   4.765   2.953   1.170
11904SOL     OW47339   1.804   1.613  24.718
11904SOL    HW147340   1.789   1.708  24.723
11904SOL    HW247341   1.716   1.575  24.722
11905SOL     OW47342   4.220   1.443  27.168
11905SOL    HW147343   4.202   1.349  27.170
11905SOL    HW247344   4.305   1.452  27.210
11906SOL     OW47345   2.991   3.801  21.473
11906SOL    HW147346   2.946   3.781  21.555
11906SOL    HW247347   3.082   3.813  21.498
11907SOL     OW47348   4.458   1.995   2.373
11907SOL    HW147349   4.376   1.987   2.421
11907SOL    HW247350   4.438   1.963   2.285
11908SOL     OW47351   4.403   1.295   4.611
11908SOL    HW147352   4.385   1.287   4.705
11908SOL    HW247353   4.430   1.207   4.585
11909SOL     OW47354   1.866   0.617   8.109
11909SOL    HW147355   1.917   0.654   8.038
11909SOL    HW247356   1.903   0.655   8.189
11910SOL     OW47357   2.817   1.701  18.494
11910SOL    HW147358   2.801   1.694  18.400
11910SOL    HW247359   2.848   1.614  18.520
11911SOL     OW47360   2.704   1.104   7.946
11911SOL    HW147361   2.796   1.095   7.921
11911SOL    HW247362   2.706   1.150   8.030
11912SOL     OW47363   1.169   3.182  25.053
11912SOL    HW147364   1.154   3.225  24.969
11912SOL    HW247365   1.188   3.091  25.031
11913SOL     OW47366   2.266   2.840   7.391
11913SOL    HW147367   2.226   2.847   7.477
11913SOL    HW247368   2.354   2.806   7.408
11914SOL     OW47369   1.708   2.206   6.111
11914SOL    HW147370   1.761   2.157   6.049
11914SOL    HW247371   1.755   2.289   6.123
11915SOL     OW47372   1.925   2.336  26.967
11915SOL    HW147373   1.903   2.334  26.874
11915SOL    HW247374   1.849   2.379  27.008
11916SOL     OW47375   4.089   3.962   6.668
11916SOL    HW147376   4.130   3.912   6.598
11916SOL    HW247377   4.097   4.054   6.640
11917SOL     OW47378   3.956   1.335  22.284
11917SOL    HW147379   3.946   1.241  22.296
11917SOL    HW247380   3.884   1.360  22.226
11918SOL     OW47381   1.291   4.724   8.849
11918SOL    HW147382   1.287   4.742   8.943
11918SOL    HW247383   1.207   4.682   8.830
11919SOL     OW47384   3.868   4.581  22.028
11919SOL    HW147385   3.825   4.657  22.068
11919SOL    HW247386   3.856   4.594  21.934
11920SOL     OW47387   0.783   2.079   2.281
11920SOL    HW147388   0.807   2.049   2.193
11920SOL    HW247389   0.717   2.016   2.311
11921SOL     OW47390   1.091   3.481  22.774
11921SOL    HW147391   1.052   3.555  22.821
11921SOL    HW247392   1.171   3.461  22.822
11922SOL     OW47393   1.749   2.755  24.318
11922SOL    HW147394   1.799   2.696  24.374
11922SOL    HW247395   1.664   2.764  24.362
11923SOL     OW47396   3.810   0.507  23.994
11923SOL    HW147397   3.718   0.534  23.998
11923SOL    HW247398   3.808   0.423  23.947
11924SOL     OW47399   1.728   0.981  21.297
11924SOL    HW147400   1.812   0.992  21.341
11924SOL    HW247401   1.739   1.024  21.212
11925SOL     OW47402   2.518   1.320   5.989
11925SOL    HW147403   2.432   1.349   6.019
11925SOL    HW247404   2.525   1.229   6.018
11926SOL     OW47405   4.756   2.830   6.264
11926SOL    HW147406   0.061   2.834   6.222
11926SOL    HW247407   4.773   2.798   6.352
11927SOL     OW47408   3.339   3.312   3.531
11927SOL    HW147409   3.283   3.329   3.607
11927SOL    HW247410   3.366   3.398   3.501
11928SOL     OW47411   2.234   2.243  20.317
11928SOL    HW147412   2.326   2.256  20.295
11928SOL    HW247413   2.203   2.331  20.340
11929SOL     OW47414   3.895   3.197  25.668
11929SOL    HW147415   3.851   3.159  25.744
11929SOL    HW247416   3.830   3.256  25.630
11930SOL     OW47417   3.883   2.177   5.676
11930SOL    HW147418   3.829   2.155   5.600
11930SOL    HW247419   3.855   2.265   5.701
11931SOL     OW47420   4.477   2.651   8.938
11931SOL    HW147421   4.532   2.703   8.880
11931SOL    HW247422   4.529   2.572   8.956
11932SOL     OW47423   0.794   0.574   9.728
11932SOL    HW147424   0.819   0.485   9.754
11932SOL    HW247425   0.755   0.563   9.641
11933SOL     OW47426   2.378   4.693  27.266
11933SOL    HW147427   2.436   4.725  27.335
11933SOL    HW247428   2.332   4.770  27.234
11934SOL     OW47429   3.176   0.207  10.934
11934SOL    HW147430   3.167   0.126  10.985
11934SOL    HW247431   3.238   0.184  10.864
11935SOL     OW47432   1.082   1.114  12.474
11935SOL    HW147433   1.031   1.053  12.527
11935SOL    HW247434   1.100   1.188  12.532
11936SOL     OW47435   4.490   3.569   7.144
11936SOL    HW147436   4.563   3.536   7.092
11936SOL    HW247437   4.527   3.581   7.232
11937SOL     OW47438   0.906   1.042  21.680
11937SOL    HW147439   0.884   0.978  21.612
11937SOL    HW247440   1.000   1.056  21.670
11938SOL     OW47441   3.255   4.556   3.271
11938SOL    HW147442   3.171   4.573   3.313
11938SOL    HW247443   3.233   4.497   3.198
11939SOL     OW47444   3.364   2.617  25.580
11939SOL    HW147445   3.318   2.620  25.664
11939SOL    HW247446   3.372   2.524  25.561
11940SOL     OW47447   3.005   4.547   7.809
11940SOL    HW147448   2.944   4.607   7.852
11940SOL    HW247449   2.948   4.486   7.761
11941SOL     OW47450   0.613   2.177  22.613
11941SOL    HW147451   0.543   2.211  22.669
11941SOL    HW247452   0.573   2.103  22.567
11942SOL     OW47453   3.127   3.518  21.896
11942SOL    HW147454   3.138   3.597  21.949
11942SOL    HW247455   3.183   3.531  21.820
11943SOL     OW47456   0.702   3.363   7.570
11943SOL    HW147457   0.725   3.360   7.477
11943SOL    HW247458   0.610   3.389   7.571
11944SOL     OW47459   3.043   4.725   0.088
11944SOL    HW147460   3.105   4.744   0.018
11944SOL    HW247461   3.089   4.662   0.144
11945SOL     OW47462   1.080   1.625   2.524
11945SOL    HW147463   1.089   1.712   2.485
11945SOL    HW247464   1.171   1.596   2.537
11946SOL     OW47465   0.093   0.518  25.989
11946SOL    HW147466   0.081   0.577  26.063
11946SOL    HW247467   0.007   0.513  25.948
11947SOL     OW47468   1.317   3.211   5.270
11947SOL    HW147469   1.277   3.284   5.223
11947SOL    HW247470   1.285   3.133   5.225
11948SOL     OW47471   3.112   0.506   7.656
11948SOL    HW147472   3.175   0.435   7.640
11948SOL    HW247473   3.166   0.581   7.678
11949SOL     OW47474   1.151   2.532  18.956
11949SOL    HW147475   1.116   2.529  18.867
11949SOL    HW247476   1.228   2.589  18.951
11950SOL     OW47477   0.975   0.687  23.114
11950SOL    HW147478   0.989   0.708  23.206
11950SOL    HW247479   0.907   0.749  23.085
11951SOL     OW47480   4.254   3.841   4.316
11951SOL    HW147481   4.349   3.850   4.319
11951SOL    HW247482   4.228   3.880   4.233
11952SOL     OW47483   2.591   2.872  20.518
11952SOL    HW147484   2.600   2.870  20.422
11952SOL    HW247485   2.524   2.806  20.537
11953SOL     OW47486   4.111   3.246  17.073
11953SOL    HW147487   4.033   3.294  17.100
11953SOL    HW247488   4.082   3.194  16.998
11954SOL     OW47489   2.010   1.435  24.886
11954SOL    HW147490   1.951   1.492  24.837
11954SOL    HW247491   2.096   1.477  24.879
11955SOL     OW47492   3.968   1.585   4.530
11955SOL    HW147493   4.054   1.579   4.571
11955SOL    HW247494   3.956   1.678   4.511
11956SOL     OW47495   2.790   4.280   1.214
11956SOL    HW147496   2.695   4.265   1.220
11956SOL    HW247497   2.819   4.285   1.305
11957SOL     OW47498   0.219   2.875  23.276
11957SOL    HW147499   0.263   2.808  23.329
11957SOL    HW247500   0.242   2.958  23.317
11958SOL     OW47501   3.047   3.897   3.890
11958SOL    HW147502   2.966   3.865   3.851
11958SOL    HW247503   3.068   3.976   3.841
11959SOL     OW47504   3.036   3.752   2.232
11959SOL    HW147505   2.977   3.813   2.278
11959SOL    HW247506   3.046   3.790   2.145
11960SOL     OW47507   2.362   3.339   8.037
11960SOL    HW147508   2.350   3.429   8.068
11960SOL    HW247509   2.403   3.294   8.112
11961SOL     OW47510   3.411   4.419   1.884
11961SOL    HW147511   3.334   4.406   1.828
11961SOL    HW247512   3.477   4.361   1.847
11962SOL     OW47513   4.379   2.167  27.906
11962SOL    HW147514   4.402   2.200  27.819
11962SOL    HW247515   4.369   2.246  27.959
11963SOL     OW47516   0.937   3.198   9.512
11963SOL    HW147517   0.926   3.147   9.593
11963SOL    HW247518   0.856   3.183   9.464
11964SOL     OW47519   0.302   1.067   3.444
11964SOL    HW147520   0.309   1.134   3.512
11964SOL    HW247521   0.379   1.012   3.456
11965SOL     OW47522   4.719   2.091   7.761
11965SOL    HW147523   0.021   2.063   7.799
11965SOL    HW247524   4.703   2.030   7.689
11966SOL     OW47525   4.566   0.998  23.755
11966SOL    HW147526   4.575   1.089  23.725
11966SOL    HW247527   4.504   1.003  23.828
11967SOL     OW47528   3.400   0.088  22.527
11967SOL    HW147529   3.472   0.061  22.469
11967SOL    HW247530   3.321   0.064  22.480
11968SOL     OW47531   2.165   1.188  23.645
11968SOL    HW147532   2.160   1.253  23.715
11968SOL    HW247533   2.102   1.219  23.579
11969SOL     OW47534   4.727   3.416   7.118
11969SOL    HW147535   4.721   3.330   7.161
11969SOL    HW247536   4.703   3.399   7.027
11970SOL     OW47537   3.521   3.190   2.337
11970SOL    HW147538   3.532   3.278   2.302
11970SOL    HW247539   3.533   3.200   2.431
11971SOL     OW47540   1.433   1.304  23.202
11971SOL    HW147541   1.381   1.232  23.239
11971SOL    HW247542   1.494   1.328  23.272
11972SOL     OW47543   0.225   1.748  27.173
11972SOL    HW147544   0.233   1.722  27.264
11972SOL    HW247545   0.315   1.760  27.143
11973SOL     OW47546   4.257   3.257  23.168
11973SOL    HW147547   4.234   3.308  23.246
11973SOL    HW247548   4.177   3.207  23.149
11974SOL     OW47549   4.158   0.766   0.517
11974SOL    HW147550   4.203   0.833   0.568
11974SOL    HW247551   4.223   0.734   0.455
11975SOL     OW47552   1.584   3.296   3.515
11975SOL    HW147553   1.534   3.364   3.561
11975SOL    HW247554   1.588   3.328   3.424
11976SOL     OW47555   3.511   3.093  24.548
11976SOL    HW147556   3.498   3.000  24.564
11976SOL    HW247557   3.547   3.097  24.460
11977SOL     OW47558   1.989   0.439  27.712
11977SOL    HW147559   1.992   0.360  27.658
11977SOL    HW247560   1.990   0.407  27.802
11978SOL     OW47561   2.679   1.988  28.439
11978SOL    HW147562   2.654   2.012  28.350
11978SOL    HW247563   2.622   2.041  28.495
11979SOL     OW47564   1.471   1.856   8.561
11979SOL    HW147565   1.526   1.779   8.545
11979SOL    HW247566   1.479   1.873   8.655
11980SOL     OW47567   4.780   1.199   0.701
11980SOL    HW147568   0.092   1.177   0.689
11980SOL    HW247569   4.734   1.117   0.684
11981SOL     OW47570   2.661   1.099   1.066
11981SOL    HW147571   2.614   1.176   1.098
11981SOL    HW247572   2.611   1.070   0.990
11982SOL     OW47573   3.783   1.677  17.604
11982SOL    HW147574   3.850   1.612  17.584
11982SOL    HW247575   3.705   1.626  17.628
11983SOL     OW47576   2.793   0.031  21.452
11983SOL    HW147577   2.846   4.740  21.488
11983SOL    HW247578   2.856   0.084  21.403
11984SOL     OW47579   3.003   3.210  23.951
11984SOL    HW147580   3.045   3.219  23.865
11984SOL    HW247581   2.940   3.282  23.954
11985SOL     OW47582   0.435   2.125   2.801
11985SOL    HW147583   0.402   2.123   2.891
11985SOL    HW247584   0.474   2.211   2.792
11986SOL     OW47585   4.559   1.636   3.010
11986SOL    HW147586   4.524   1.547   2.998
11986SOL    HW247587   4.651   1.629   2.985
11987SOL     OW47588   2.187   4.530   1.816
11987SOL    HW147589   2.280   4.506   1.805
11987SOL    HW247590   2.157   4.472   1.887
11988SOL     OW47591   0.572   3.249   2.633
11988SOL    HW147592   0.575   3.189   2.707
11988SOL    HW247593   0.484   3.288   2.637
11989SOL     OW47594   1.754   3.659  17.894
11989SOL    HW147595   1.695   3.705  17.835
11989SOL    HW247596   1.779   3.725  17.959
11990SOL     OW47597   1.128   4.738   5.712
11990SOL    HW147598   1.140   4.755   5.806
11990SOL    HW247599   1.209   4.768   5.672
11991SOL     OW47600   2.805   1.289  27.934
11991SOL    HW147601   2.894   1.253  27.933
11991SOL    HW247602   2.757   1.234  27.872
11992SOL     OW47603   0.399   3.142  20.364
11992SOL    HW147604   0.488   3.179  20.366
11992SOL    HW247605   0.376   3.141  20.272
11993SOL     OW47606   3.097   0.716  22.590
11993SOL    HW147607   3.053   0.637  22.560
11993SOL    HW247608   3.055   0.738  22.673
11994SOL     OW47609   3.085   1.931   0.118
11994SOL    HW147610   3.002   1.885   0.110
11994SOL    HW247611   3.068   2.018   0.080
11995SOL     OW47612   1.294   4.199  10.305
11995SOL    HW147613   1.371   4.160  10.346
11995SOL    HW247614   1.295   4.290  10.334
11996SOL     OW47615   3.453   0.068   5.869
11996SOL    HW147616   3.365   0.087   5.837
11996SOL    HW247617   3.502   0.041   5.792
11997SOL     OW47618   4.535   2.414   3.511
11997SOL    HW147619   4.495   2.423   3.597
11997SOL    HW247620   4.484   2.472   3.454
11998SOL     OW47621   4.449   1.548   2.116
11998SOL    HW147622   4.354   1.549   2.131
11998SOL    HW247623   4.467   1.629   2.069
11999SOL     OW47624   1.590   3.377   3.267
11999SOL    HW147625   1.589   3.348   3.175
11999SOL    HW247626   1.554   3.465   3.264
12000SOL     OW47627   1.336   4.635  26.614
12000SOL    HW147628   1.252   4.614  26.654
12000SOL    HW247629   1.400   4.587  26.667
12001SOL     OW47630   2.172   0.275  23.757
12001SOL    HW147631   2.219   0.347  23.715
12001SOL    HW247632   2.237   0.204  23.763
12002SOL     OW47633   3.492   2.041  25.853
12002SOL    HW147634   3.521   2.027  25.943
12002SOL    HW247635   3.403   2.004  25.851
12003SOL     OW47636   0.472   2.040  27.872
12003SOL    HW147637   0.484   2.074  27.961
12003SOL    HW247638   0.396   2.086  27.838
12004SOL     OW47639   3.373   3.363   1.977
12004SOL    HW147640   3.292   3.327   2.015
12004SOL    HW247641   3.380   3.451   2.016
12005SOL     OW47642   2.181   1.103   7.778
12005SOL    HW147643   2.250   1.062   7.726
12005SOL    HW247644   2.137   1.162   7.717
12006SOL     OW47645   1.695   2.130   3.209
12006SOL    HW147646   1.646   2.064   3.258
12006SOL    HW247647   1.768   2.154   3.266
12007SOL     OW47648   3.660   4.102  11.418
12007SOL    HW147649   3.662   4.009  11.395
12007SOL    HW247650   3.729   4.111  11.485
12008SOL     OW47651   2.122   1.601   8.891
12008SOL    HW147652   2.076   1.517   8.886
12008SOL    HW247653   2.140   1.623   8.799
12009SOL     OW47654   2.773   3.371  18.300
12009SOL    HW147655   2.820   3.451  18.275
12009SOL    HW247656   2.782   3.313  18.225
12010SOL     OW47657   2.487   0.631   0.109
12010SOL    HW147658   2.454   0.636   0.019
12010SOL    HW247659   2.564   0.687   0.109
12011SOL     OW47660   2.354   0.733   7.775
12011SOL    HW147661   2.405   0.810   7.800
12011SOL    HW247662   2.402   0.696   7.700
12012SOL     OW47663   3.144   4.659  25.385
12012SOL    HW147664   3.212   4.712  25.427
12012SOL    HW247665   3.189   4.614  25.314
12013SOL     OW47666   4.702   2.163  19.648
12013SOL    HW147667   4.678   2.253  19.625
12013SOL    HW247668   0.003   2.172  19.697
12014SOL     OW47669   1.212   2.398  22.174
12014SOL    HW147670   1.219   2.312  22.215
12014SOL    HW247671   1.292   2.407  22.121
12015SOL     OW47672   0.472   1.854  26.407
12015SOL    HW147673   0.378   1.853  26.427
12015SOL    HW247674   0.503   1.936  26.446
12016SOL     OW47675   4.682   1.076  28.488
12016SOL    HW147676   4.622   1.147  28.465
12016SOL    HW247677   4.678   1.071   0.061
12017SOL     OW47678   3.809   3.885  23.528
12017SOL    HW147679   3.848   3.922  23.608
12017SOL    HW247680   3.764   3.807  23.558
12018SOL     OW47681   3.169   1.933   5.100
12018SOL    HW147682   3.102   1.878   5.060
12018SOL    HW247683   3.129   1.964   5.182
12019SOL     OW47684   4.444   4.030  27.324
12019SOL    HW147685   4.484   4.065  27.245
12019SOL    HW247686   4.451   4.101  27.388
12020SOL     OW47687   4.127   1.826  20.362
12020SOL    HW147688   4.050   1.851  20.414
12020SOL    HW247689   4.194   1.890  20.386
12021SOL     OW47690   1.490   1.211  25.221
12021SOL    HW147691   1.543   1.141  25.184
12021SOL    HW247692   1.506   1.286  25.164
12022SOL     OW47693   4.638   3.446   2.825
12022SOL    HW147694   4.562   3.441   2.767
12022SOL    HW247695   4.603   3.424   2.912
12023SOL     OW47696   1.147   1.962   0.995
12023SOL    HW147697   1.121   1.901   0.927
12023SOL    HW247698   1.158   2.046   0.950
12024SOL     OW47699   4.675   3.582   7.758
12024SOL    HW147700   4.615   3.649   7.724
12024SOL    HW247701   4.674   3.595   7.853
12025SOL     OW47702   1.104   4.085   7.031
12025SOL    HW147703   1.163   4.140   6.979
12025SOL    HW247704   1.159   4.013   7.061
12026SOL     OW47705   4.695   4.265  21.604
12026SOL    HW147706   4.772   4.319  21.586
12026SOL    HW247707   4.640   4.275  21.526
12027SOL     OW47708   1.026   4.731   7.946
12027SOL    HW147709   0.936   4.725   7.978
12027SOL    HW247710   1.057   4.641   7.945
12028SOL     OW47711   0.170   1.971  26.152
12028SOL    HW147712   0.246   1.968  26.094
12028SOL    HW247713   0.187   2.046  26.210
12029SOL     OW47714   3.814   3.446  21.125
12029SOL    HW147715   3.814   3.503  21.048
12029SOL    HW247716   3.861   3.368  21.097
12030SOL     OW47717   1.707   3.419  25.562
12030SOL    HW147718   1.612   3.420  25.567
12030SOL    HW247719   1.729   3.501  25.518
12031SOL     OW47720   2.047   4.143   3.489
12031SOL    HW147721   2.134   4.142   3.528
12031SOL    HW247722   2.011   4.229   3.513
12032SOL     OW47723   0.062   3.755   2.112
12032SOL    HW147724   0.150   3.741   2.078
12032SOL    HW247725   0.030   3.668   2.135
12033SOL     OW47726   1.725   0.539  23.740
12033SOL    HW147727   1.799   0.480  23.751
12033SOL    HW247728   1.653   0.497  23.787
12034SOL     OW47729   3.372   3.930   6.706
12034SOL    HW147730   3.452   3.960   6.664
12034SOL    HW247731   3.384   3.949   6.799
12035SOL     OW47732   2.373   3.793  25.503
12035SOL    HW147733   2.359   3.888  25.508
12035SOL    HW247734   2.411   3.770  25.587
12036SOL     OW47735   4.381   3.105  21.904
12036SOL    HW147736   4.406   3.126  21.814
12036SOL    HW247737   4.439   3.033  21.929
12037SOL     OW47738   0.353   4.465   5.000
12037SOL    HW147739   0.268   4.497   4.969
12037SOL    HW247740   0.386   4.535   5.055
12038SOL     OW47741   1.290   2.811  19.971
12038SOL    HW147742   1.365   2.829  19.914
12038SOL    HW247743   1.232   2.886  19.958
12039SOL     OW47744   4.244   4.183   8.397
12039SOL    HW147745   4.288   4.255   8.440
12039SOL    HW247746   4.234   4.211   8.306
12040SOL     OW47747   0.159   4.341  10.767
12040SOL    HW147748   0.079   4.340  10.819
12040SOL    HW247749   0.185   4.433  10.766
12041SOL     OW47750   0.276   1.221  10.271
12041SOL    HW147751   0.187   1.233  10.304
12041SOL    HW247752   0.273   1.251  10.180
12042SOL     OW47753   4.382   3.218   8.217
12042SOL    HW147754   4.304   3.211   8.162
12042SOL    HW247755   4.371   3.300   8.264
12043SOL     OW47756   1.924   3.869  25.921
12043SOL    HW147757   1.834   3.882  25.950
12043SOL    HW247758   1.918   3.804  25.851
12044SOL     OW47759   2.887   1.587   0.700
12044SOL    HW147760   2.909   1.659   0.759
12044SOL    HW247761   2.971   1.556   0.666
12045SOL     OW47762   3.050   4.739  11.055
12045SOL    HW147763   3.132   4.736  11.103
12045SOL    HW247764   2.993   0.016  11.106
12046SOL     OW47765   2.630   0.796   9.886
12046SOL    HW147766   2.702   0.858   9.891
12046SOL    HW247767   2.649   0.730   9.952
12047SOL     OW47768   0.035   0.042   8.933
12047SOL    HW147769   0.120   0.009   8.906
12047SOL    HW247770   0.049   0.075   9.022
12048SOL     OW47771   2.235   4.510   1.372
12048SOL    HW147772   2.237   4.464   1.288
12048SOL    HW247773   2.223   4.441   1.437
12049SOL     OW47774   2.078   4.276  20.799
12049SOL    HW147775   2.069   4.264  20.705
12049SOL    HW247776   2.119   4.362  20.808
12050SOL     OW47777   3.115   0.182  10.048
12050SOL    HW147778   3.210   0.169  10.043
12050SOL    HW247779   3.086   0.184   9.957
12051SOL     OW47780   3.516   1.403  21.776
12051SOL    HW147781   3.434   1.388  21.729
12051SOL    HW247782   3.498   1.478  21.832
12052SOL     OW47783   4.044   1.269  23.795
12052SOL    HW147784   4.026   1.189  23.745
12052SOL    HW247785   4.100   1.240  23.867
12053SOL     OW47786   1.874   2.880  26.336
12053SOL    HW147787   1.858   2.929  26.256
12053SOL    HW247788   1.967   2.857  26.333
12054SOL     OW47789   2.811   2.476   2.556
12054SOL    HW147790   2.840   2.563   2.581
12054SOL    HW247791   2.892   2.430   2.531
12055SOL     OW47792   4.274   3.400  22.847
12055SOL    HW147793   4.356   3.358  22.821
12055SOL    HW247794   4.207   3.333  22.834
12056SOL     OW47795   1.720   2.064  24.503
12056SOL    HW147796   1.642   2.118  24.515
12056SOL    HW247797   1.733   2.062  24.408
12057SOL     OW47798   3.469   2.389  10.699
12057SOL    HW147799   3.553   2.353  10.668
12057SOL    HW247800   3.485   2.409  10.791
12058SOL     OW47801   3.936   4.360   3.009
12058SOL    HW147802   3.961   4.452   3.006
12058SOL    HW247803   3.984   4.320   2.936
12059SOL     OW47804   2.854   1.314  21.977
12059SOL    HW147805   2.916   1.364  22.031
12059SOL    HW247806   2.801   1.266  22.040
12060SOL     OW47807   4.207   1.109  20.344
12060SOL    HW147808   4.136   1.098  20.407
12060SOL    HW247809   4.259   1.030  20.351
12061SOL     OW47810   1.927   3.003   4.686
12061SOL    HW147811   1.955   2.916   4.713
12061SOL    HW247812   1.897   3.045   4.767
12062SOL     OW47813   3.049   0.206   4.015
12062SOL    HW147814   3.081   0.124   4.053
12062SOL    HW247815   3.041   0.187   3.921
12063SOL     OW47816   1.025   4.146  26.400
12063SOL    HW147817   0.937   4.183  26.394
12063SOL    HW247818   1.077   4.213  26.445
12064SOL     OW47819   3.975   4.716  20.319
12064SOL    HW147820   3.918   4.769  20.262
12064SOL    HW247821   3.946   4.737  20.407
12065SOL     OW47822   4.271   0.363   0.728
12065SOL    HW147823   4.208   0.346   0.657
12065SOL    HW247824   4.259   0.455   0.748
12066SOL     OW47825   1.698   4.508   5.884
12066SOL    HW147826   1.710   4.600   5.908
12066SOL    HW247827   1.787   4.472   5.884
12067SOL     OW47828   2.927   2.774  18.936
12067SOL    HW147829   2.946   2.681  18.925
12067SOL    HW247830   2.866   2.795  18.865
12068SOL     OW47831   2.167   1.418   8.300
12068SOL    HW147832   2.197   1.509   8.305
12068SOL    HW247833   2.164   1.388   8.391
12069SOL     OW47834   2.564   3.774   2.318
12069SOL    HW147835   2.534   3.686   2.341
12069SOL    HW247836   2.539   3.784   2.226
12070SOL     OW47837   2.119   4.629   9.366
12070SOL    HW147838   2.101   4.700   9.427
12070SOL    HW247839   2.129   4.551   9.422
12071SOL     OW47840   0.218   2.022   8.313
12071SOL    HW147841   0.196   1.968   8.389
12071SOL    HW247842   0.235   2.108   8.349
12072SOL     OW47843   3.506   2.328  18.245
12072SOL    HW147844   3.503   2.423  18.249
12072SOL    HW247845   3.439   2.299  18.307
12073SOL     OW47846   1.675   1.265   2.143
12073SOL    HW147847   1.747   1.263   2.206
12073SOL    HW247848   1.645   1.175   2.137
12074SOL     OW47849   2.223   2.884   7.707
12074SOL    HW147850   2.152   2.851   7.761
12074SOL    HW247851   2.303   2.852   7.749
12075SOL     OW47852   3.220   2.008   2.724
12075SOL    HW147853   3.274   1.929   2.726
12075SOL    HW247854   3.131   1.976   2.710
12076SOL     OW47855   1.916   0.852   9.626
12076SOL    HW147856   1.966   0.783   9.669
12076SOL    HW247857   1.866   0.807   9.558
12077SOL     OW47858   0.321   2.219  11.412
12077SOL    HW147859   0.376   2.203  11.489
12077SOL    HW247860   0.247   2.268  11.445
12078SOL     OW47861   0.545   4.552  27.180
12078SOL    HW147862   0.465   4.512  27.145
12078SOL    HW247863   0.599   4.569  27.103
12079SOL     OW47864   0.056   4.444   8.974
12079SOL    HW147865   0.038   4.364   8.926
12079SOL    HW247866   4.753   4.469   9.012
12080SOL     OW47867   3.636   4.096  19.633
12080SOL    HW147868   3.576   4.077  19.562
12080SOL    HW247869   3.610   4.182  19.666
12081SOL     OW47870   1.772   4.624   4.848
12081SOL    HW147871   1.831   4.687   4.808
12081SOL    HW247872   1.774   4.548   4.790
12082SOL     OW47873   3.964   1.643   8.235
12082SOL    HW147874   4.039   1.698   8.213
12082SOL    HW247875   3.928   1.682   8.314
12083SOL     OW47876   4.454   1.461  27.310
12083SOL    HW147877   4.514   1.490  27.241
12083SOL    HW247878   4.503   1.474  27.391
12084SOL     OW47879   0.910   1.516   5.709
12084SOL    HW147880   0.861   1.446   5.754
12084SOL    HW247881   0.979   1.469   5.662
12085SOL     OW47882   1.812   4.445  24.777
12085SOL    HW147883   1.777   4.520  24.826
12085SOL    HW247884   1.761   4.370  24.808
12086SOL     OW47885   2.692   2.986  22.777
12086SOL    HW147886   2.618   2.929  22.799
12086SOL    HW247887   2.674   3.068  22.824
12087SOL     OW47888   3.695   4.735  25.920
12087SOL    HW147889   3.791   4.731  25.919
12087SOL    HW247890   3.668   4.668  25.857
12088SOL     OW47891   3.884   2.866   2.754
12088SOL    HW147892   3.882   2.960   2.772
12088SOL    HW247893   3.929   2.858   2.670
12089SOL     OW47894   2.922   0.841  20.204
12089SOL    HW147895   2.868   0.919  20.196
12089SOL    HW247896   3.001   0.871  20.248
12090SOL     OW47897   2.515   0.974  26.485
12090SOL    HW147898   2.554   0.995  26.400
12090SOL    HW247899   2.553   0.889  26.508
12091SOL     OW47900   3.245   0.754  24.220
12091SOL    HW147901   3.289   0.675  24.251
12091SOL    HW247902   3.211   0.730  24.134
12092SOL     OW47903   4.039   2.339   5.133
12092SOL    HW147904   3.987   2.305   5.060
12092SOL    HW247905   4.117   2.283   5.134
12093SOL     OW47906   4.232   4.361   8.152
12093SOL    HW147907   4.162   4.351   8.088
12093SOL    HW247908   4.305   4.399   8.103
12094SOL     OW47909   1.737   0.264  28.118
12094SOL    HW147910   1.687   0.342  28.092
12094SOL    HW247911   1.825   0.297  28.136
12095SOL     OW47912   2.422   0.309  23.539
12095SOL    HW147913   2.367   0.385  23.519
12095SOL    HW247914   2.381   0.237  23.492
12096SOL     OW47915   3.704   1.809  27.294
12096SOL    HW147916   3.671   1.803  27.384
12096SOL    HW247917   3.628   1.786  27.240
12097SOL     OW47918   3.585   3.054  19.390
12097SOL    HW147919   3.550   3.126  19.336
12097SOL    HW247920   3.597   2.982  19.329
12098SOL     OW47921   0.330   4.483   2.459
12098SOL    HW147922   0.272   4.471   2.535
12098SOL    HW247923   0.308   4.410   2.401
12099SOL     OW47924   4.645   4.253  28.139
12099SOL    HW147925   4.691   4.191  28.083
12099SOL    HW247926   4.568   4.279  28.089
12100SOL     OW47927   1.572   3.091  21.091
12100SOL    HW147928   1.604   3.181  21.090
12100SOL    HW247929   1.482   3.098  21.124
12101SOL     OW47930   0.288   4.482  27.863
12101SOL    HW147931   0.353   4.414  27.847
12101SOL    HW247932   0.225   4.472  27.791
12102SOL     OW47933   3.266   4.118   0.713
12102SOL    HW147934   3.300   4.112   0.802
12102SOL    HW247935   3.286   4.033   0.674
12103SOL     OW47936   0.351   3.800   0.161
12103SOL    HW147937   0.273   3.755   0.128
12103SOL    HW247938   0.375   3.861   0.091
12104SOL     OW47939   2.442   3.473   6.732
12104SOL    HW147940   2.400   3.435   6.809
12104SOL    HW247941   2.536   3.470   6.752
12105SOL     OW47942   1.243   4.170  21.906
12105SOL    HW147943   1.170   4.221  21.871
12105SOL    HW247944   1.315   4.233  21.911
12106SOL     OW47945   2.249   3.047  18.661
12106SOL    HW147946   2.307   3.117  18.690
12106SOL    HW247947   2.295   3.005  18.588
12107SOL     OW47948   2.662   1.927   7.080
12107SOL    HW147949   2.585   1.984   7.078
12107SOL    HW247950   2.736   1.986   7.093
12108SOL     OW47951   3.084   0.283  23.161
12108SOL    HW147952   3.060   0.279  23.253
12108SOL    HW247953   3.003   0.264  23.114
12109SOL     OW47954   3.635   3.106   6.474
12109SOL    HW147955   3.721   3.119   6.435
12109SOL    HW247956   3.576   3.158   6.419
12110SOL     OW47957   4.516   1.680  18.077
12110SOL    HW147958   4.559   1.627  18.011
12110SOL    HW247959   4.428   1.642  18.084
12111SOL     OW47960   4.089   3.962  26.669
12111SOL    HW147961   4.093   3.903  26.594
12111SOL    HW247962   4.024   4.028  26.644
12112SOL     OW47963   3.409   2.534   8.305
12112SOL    HW147964   3.403   2.629   8.300
12112SOL    HW247965   3.327   2.503   8.268
12113SOL     OW47966   0.340   4.107  23.321
12113SOL    HW147967   0.260   4.122  23.372
12113SOL    HW247968   0.362   4.016  23.337
12114SOL     OW47969   1.244   3.361  21.137
12114SOL    HW147970   1.189   3.322  21.204
12114SOL    HW247971   1.191   3.432  21.101
12115SOL     OW47972   0.083   2.531   9.450
12115SOL    HW147973   0.148   2.466   9.476
12115SOL    HW247974   0.005   2.508   9.500
12116SOL     OW47975   4.506   0.050   5.835
12116SOL    HW147976   4.573   0.115   5.856
12116SOL    HW247977   4.428   0.078   5.883
12117SOL     OW47978   3.890   3.011  26.099
12117SOL    HW147979   3.899   2.930  26.048
12117SOL    HW247980   3.836   2.985  26.174
12118SOL     OW47981   3.838   3.072   2.912
12118SOL    HW147982   3.744   3.078   2.930
12118SOL    HW247983   3.872   3.014   2.981
12119SOL     OW47984   3.488   2.751  27.850
12119SOL    HW147985   3.479   2.752  27.755
12119SOL    HW247986   3.449   2.834  27.879
12120SOL     OW47987   0.431   1.786  24.573
12120SOL    HW147988   0.505   1.749  24.621
12120SOL    HW247989   0.466   1.805  24.486
12121SOL     OW47990   2.184   0.841   5.684
12121SOL    HW147991   2.215   0.827   5.594
12121SOL    HW247992   2.214   0.763   5.732
12122SOL     OW47993   2.801   1.086  20.157
12122SOL    HW147994   2.750   1.086  20.076
12122SOL    HW247995   2.806   1.178  20.183
12123SOL     OW47996   2.200   2.997   2.841
12123SOL    HW147997   2.109   2.970   2.849
12123SOL    HW247998   2.229   3.010   2.932
12124SOL     OW47999   2.016   3.683  24.261
12124SOL    HW148000   2.041   3.596  24.229
12124SOL    HW248001   1.929   3.670  24.300
12125SOL     OW48002   2.655   1.122   2.387
12125SOL    HW148003   2.599   1.087   2.456
12125SOL    HW248004   2.657   1.053   2.320
12126SOL     OW48005   3.860   0.960  24.234
12126SOL    HW148006   3.784   0.991  24.184
12126SOL    HW248007   3.910   1.039  24.251
12127SOL     OW48008   2.909   2.152   4.703
12127SOL    HW148009   2.903   2.059   4.726
12127SOL    HW248010   3.001   2.164   4.680
12128SOL     OW48011   0.392   3.455   5.363
12128SOL    HW148012   0.431   3.449   5.450
12128SOL    HW248013   0.419   3.541   5.330
12129SOL     OW48014   0.186   3.329  23.167
12129SOL    HW148015   0.106   3.331  23.114
12129SOL    HW248016   0.247   3.275  23.117
12130SOL     OW48017   0.252   2.420   0.340
12130SOL    HW148018   0.278   2.337   0.300
12130SOL    HW248019   0.156   2.417   0.341
12131SOL     OW48020   1.416   1.041   6.303
12131SOL    HW148021   1.327   1.014   6.327
12131SOL    HW248022   1.421   1.022   6.209
12132SOL     OW48023   0.153   2.796   7.474
12132SOL    HW148024   0.106   2.824   7.396
12132SOL    HW248025   0.210   2.725   7.444
12133SOL     OW48026   1.712   0.265  25.200
12133SOL    HW148027   1.705   0.274  25.295
12133SOL    HW248028   1.625   0.236  25.172
12134SOL     OW48029   0.434   1.692  10.054
12134SOL    HW148030   0.400   1.728   9.972
12134SOL    HW248031   0.362   1.641  10.089
12135SOL     OW48032   1.483   2.800  24.449
12135SOL    HW148033   1.389   2.787  24.457
12135SOL    HW248034   1.522   2.741  24.513
12136SOL     OW48035   4.269   3.692   1.974
12136SOL    HW148036   4.275   3.622   2.039
12136SOL    HW248037   4.294   3.771   2.022
12137SOL     OW48038   2.321   1.228   5.409
12137SOL    HW148039   2.352   1.315   5.431
12137SOL    HW248040   2.383   1.196   5.344
12138SOL     OW48041   0.125   0.860   1.085
12138SOL    HW148042   0.056   0.815   1.037
12138SOL    HW248043   0.110   0.953   1.068
12139SOL     OW48044   1.683   2.606  17.765
12139SOL    HW148045   1.637   2.550  17.827
12139SOL    HW248046   1.726   2.545  17.704
12140SOL     OW48047   2.875   3.557   2.095
12140SOL    HW148048   2.910   3.623   2.154
12140SOL    HW248049   2.801   3.600   2.053
12141SOL     OW48050   1.120   0.612  21.114
12141SOL    HW148051   1.199   0.645  21.157
12141SOL    HW248052   1.144   0.606  21.021
12142SOL     OW48053   2.021   3.466   2.140
12142SOL    HW148054   2.061   3.535   2.192
12142SOL    HW248055   2.095   3.423   2.097
12143SOL     OW48056   4.714   3.739   9.107
12143SOL    HW148057   4.735   3.647   9.116
12143SOL    HW248058   4.777   3.784   9.165
12144SOL     OW48059   4.168   2.446   8.239
12144SOL    HW148060   4.238   2.476   8.181
12144SOL    HW248061   4.101   2.513   8.233
12145SOL     OW48062   3.247   0.452  20.395
12145SOL    HW148063   3.270   0.529  20.448
12145SOL    HW248064   3.159   0.470  20.362
12146SOL     OW48065   0.794   2.058  20.567
12146SOL    HW148066   0.768   2.111  20.492
12146SOL    HW248067   0.712   2.030  20.607
12147SOL     OW48068   1.161   4.041   6.281
12147SOL    HW148069   1.157   3.947   6.293
12147SOL    HW248070   1.071   4.071   6.294
12148SOL     OW48071   3.343   1.985   7.224
12148SOL    HW148072   3.369   2.051   7.288
12148SOL    HW248073   3.292   1.922   7.274
12149SOL     OW48074   3.203   1.917  18.307
12149SOL    HW148075   3.210   1.843  18.247
12149SOL    HW248076   3.146   1.980  18.261
12150SOL     OW48077   2.036   3.649   9.426
12150SOL    HW148078   1.988   3.604   9.356
12150SOL    HW248079   1.992   3.622   9.507
12151SOL     OW48080   3.329   1.241  25.343
12151SOL    HW148081   3.243   1.282  25.330
12151SOL    HW248082   3.391   1.305  25.306
12152SOL     OW48083   0.238   1.801   2.992
12152SOL    HW148084   0.331   1.825   2.992
12152SOL    HW248085   0.200   1.853   3.062
12153SOL     OW48086   0.498   2.022  18.174
12153SOL    HW148087   0.545   2.039  18.255
12153SOL    HW248088   0.498   2.106  18.127
12154SOL     OW48089   0.722   3.852  26.831
12154SOL    HW148090   0.652   3.889  26.885
12154SOL    HW248091   0.727   3.912  26.756
12155SOL     OW48092   3.348   1.686  17.461
12155SOL    HW148093   3.366   1.657  17.371
12155SOL    HW248094   3.341   1.605  17.511
12156SOL     OW48095   0.907   1.645   5.359
12156SOL    HW148096   0.947   1.558   5.368
12156SOL    HW248097   0.866   1.661   5.444
12157SOL     OW48098   1.720   4.592   3.663
12157SOL    HW148099   1.664   4.559   3.734
12157SOL    HW248100   1.706   4.687   3.664
12158SOL     OW48101   1.940   4.173  25.704
12158SOL    HW148102   1.868   4.222  25.663
12158SOL    HW248103   1.961   4.224  25.783
12159SOL     OW48104   3.074   4.109  20.373
12159SOL    HW148105   2.989   4.094  20.332
12159SOL    HW248106   3.063   4.189  20.424
12160SOL     OW48107   0.431   2.633   5.567
12160SOL    HW148108   0.503   2.690   5.591
12160SOL    HW248109   0.354   2.690   5.570
12161SOL     OW48110   4.343   1.639  23.716
12161SOL    HW148111   4.292   1.589  23.652
12161SOL    HW248112   4.394   1.701  23.663
12162SOL     OW48113   0.571   2.032  23.790
12162SOL    HW148114   0.622   1.956  23.761
12162SOL    HW248115   0.511   2.049  23.717
12163SOL     OW48116   3.895   3.949   8.268
12163SOL    HW148117   3.961   3.912   8.326
12163SOL    HW248118   3.821   3.971   8.325
12164SOL     OW48119   4.623   1.641  27.182
12164SOL    HW148120   4.597   1.668  27.094
12164SOL    HW248121   4.685   1.709  27.210
12165SOL     OW48122   4.032   2.402  17.535
12165SOL    HW148123   4.092   2.328  17.537
12165SOL    HW248124   3.951   2.366  17.500
12166SOL     OW48125   1.230   0.658  27.209
12166SOL    HW148126   1.263   0.646  27.298
12166SOL    HW248127   1.176   0.737  27.215
12167SOL     OW48128   2.693   0.460  10.342
12167SOL    HW148129   2.694   0.379  10.291
12167SOL    HW248130   2.669   0.433  10.430
12168SOL     OW48131   0.278   0.431   6.225
12168SOL    HW148132   0.322   0.485   6.160
12168SOL    HW248133   0.326   0.448   6.307
12169SOL     OW48134   2.059   4.263  20.523
12169SOL    HW148135   1.975   4.309  20.523
12169SOL    HW248136   2.040   4.180  20.479
12170SOL     OW48137   1.784   1.500  10.087
12170SOL    HW148138   1.731   1.462  10.157
12170SOL    HW248139   1.801   1.590  10.115
12171SOL     OW48140   2.063   0.987   2.949
12171SOL    HW148141   2.109   0.956   3.027
12171SOL    HW248142   2.131   0.989   2.881
12172SOL     OW48143   4.208   0.111   9.566
12172SOL    HW148144   4.117   0.085   9.581
12172SOL    HW248145   4.258   0.056   9.627
12173SOL     OW48146   4.774   4.171  23.385
12173SOL    HW148147   0.043   4.241  23.345
12173SOL    HW248148   4.689   4.173  23.340
12174SOL     OW48149   0.698   2.443  25.146
12174SOL    HW148150   0.638   2.413  25.077
12174SOL    HW248151   0.720   2.364  25.194
12175SOL     OW48152   2.825   3.723   5.360
12175SOL    HW148153   2.854   3.814   5.353
12175SOL    HW248154   2.789   3.716   5.449
12176SOL     OW48155   3.304   3.083   6.354
12176SOL    HW148156   3.241   3.115   6.290
12176SOL    HW248157   3.390   3.095   6.312
12177SOL     OW48158   4.392   1.198  25.071
12177SOL    HW148159   4.379   1.196  24.976
12177SOL    HW248160   4.342   1.274  25.100
12178SOL     OW48161   4.305   2.152   4.584
12178SOL    HW148162   4.311   2.131   4.491
12178SOL    HW248163   4.393   2.183   4.607
12179SOL     OW48164   4.583   2.191   1.582
12179SOL    HW148165   4.565   2.097   1.573
12179SOL    HW248166   4.500   2.229   1.610
12180SOL     OW48167   3.723   1.679   0.386
12180SOL    HW148168   3.684   1.594   0.365
12180SOL    HW248169   3.689   1.700   0.473
12181SOL     OW48170   3.892   4.062  11.574
12181SOL    HW148171   3.911   3.977  11.613
12181SOL    HW248172   3.849   4.111  11.644
12182SOL     OW48173   0.547   1.820  19.916
12182SOL    HW148174   0.474   1.759  19.914
12182SOL    HW248175   0.606   1.785  19.983
12183SOL     OW48176   4.693   1.439  19.312
12183SOL    HW148177   4.767   1.486  19.273
12183SOL    HW248178   4.720   1.423  19.403
12184SOL     OW48179   0.563   0.562  25.318
12184SOL    HW148180   0.536   0.504  25.247
12184SOL    HW248181   0.482   0.580  25.365
12185SOL     OW48182   3.867   2.279   4.256
12185SOL    HW148183   3.937   2.298   4.318
12185SOL    HW248184   3.812   2.215   4.301
12186SOL     OW48185   0.904   4.182  11.572
12186SOL    HW148186   0.853   4.157  11.649
12186SOL    HW248187   0.967   4.247  11.604
12187SOL     OW48188   1.259   3.690  26.770
12187SOL    HW148189   1.232   3.633  26.843
12187SOL    HW248190   1.178   3.706  26.722
12188SOL     OW48191   2.736   4.516  22.695
12188SOL    HW148192   2.724   4.462  22.772
12188SOL    HW248193   2.812   4.479  22.650
12189SOL     OW48194   0.326   2.105  10.746
12189SOL    HW148195   0.351   2.021  10.708
12189SOL    HW248196   0.276   2.082  10.825
12190SOL     OW48197   4.231   2.642   5.095
12190SOL    HW148198   4.178   2.579   5.144
12190SOL    HW248199   4.178   2.721   5.092
12191SOL     OW48200   3.341   2.523  21.747
12191SOL    HW148201   3.371   2.441  21.786
12191SOL    HW248202   3.305   2.573  21.820
12192SOL     OW48203   0.980   3.626  17.443
12192SOL    HW148204   0.902   3.679  17.428
12192SOL    HW248205   1.044   3.659  17.380
12193SOL     OW48206   0.645   0.937  18.703
12193SOL    HW148207   0.722   0.959  18.755
12193SOL    HW248208   0.681   0.905  18.620
12194SOL     OW48209   1.777   3.646  27.889
12194SOL    HW148210   1.689   3.617  27.866
12194SOL    HW248211   1.831   3.567  27.880
12195SOL     OW48212   0.173   1.209   6.726
12195SOL    HW148213   0.158   1.130   6.674
12195SOL    HW248214   0.240   1.257   6.677
12196SOL     OW48215   2.730   1.696   4.128
12196SOL    HW148216   2.811   1.747   4.139
12196SOL    HW248217   2.683   1.742   4.059
12197SOL     OW48218   0.942   3.810  22.626
12197SOL    HW148219   0.963   3.757  22.703
12197SOL    HW248220   0.869   3.764  22.584
12198SOL     OW48221   1.431   1.500  24.081
12198SOL    HW148222   1.344   1.510  24.120
12198SOL    HW248223   1.482   1.453  24.147
12199SOL     OW48224   0.087   0.421  24.454
12199SOL    HW148225   0.045   0.503  24.481
12199SOL    HW248226   0.015   0.363  24.431
12200SOL     OW48227   2.186   2.816   0.598
12200SOL    HW148228   2.165   2.908   0.586
12200SOL    HW248229   2.105   2.776   0.629
12201SOL     OW48230   3.287   1.196   9.099
12201SOL    HW148231   3.315   1.164   9.185
12201SOL    HW248232   3.337   1.277   9.086
12202SOL     OW48233   4.008   2.488  22.309
12202SOL    HW148234   4.058   2.433  22.370
12202SOL    HW248235   3.927   2.440  22.293
12203SOL     OW48236   0.490   0.988  20.433
12203SOL    HW148237   0.485   0.904  20.479
12203SOL    HW248238   0.493   1.053  20.503
12204SOL     OW48239   4.701   0.688   9.967
12204SOL    HW148240   4.688   0.613  10.025
12204SOL    HW248241   4.619   0.694   9.918
12205SOL     OW48242   2.805   4.411  26.292
12205SOL    HW148243   2.781   4.383  26.381
12205SOL    HW248244   2.818   4.506  26.300
12206SOL     OW48245   2.038   3.382   7.870
12206SOL    HW148246   1.982   3.346   7.939
12206SOL    HW248247   2.069   3.305   7.822
12207SOL     OW48248   4.666   1.774   8.469
12207SOL    HW148249   4.595   1.825   8.430
12207SOL    HW248250   4.625   1.692   8.495
12208SOL     OW48251   3.252   1.879   8.926
12208SOL    HW148252   3.194   1.804   8.941
12208SOL    HW248253   3.248   1.895   8.832
12209SOL     OW48254   2.041   1.704   9.578
12209SOL    HW148255   2.077   1.621   9.607
12209SOL    HW248256   2.015   1.749   9.659
12210SOL     OW48257   0.678   4.212  23.739
12210SOL    HW148258   0.604   4.273  23.738
12210SOL    HW248259   0.661   4.155  23.813
12211SOL     OW48260   2.945   1.740  26.755
12211SOL    HW148261   2.961   1.683  26.679
12211SOL    HW248262   2.993   1.698  26.827
12212SOL     OW48263   1.854   3.128   8.852
12212SOL    HW148264   1.921   3.064   8.829
12212SOL    HW248265   1.778   3.075   8.876
12213SOL     OW48266   3.270   0.129  19.520
12213SOL    HW148267   3.329   0.158  19.450
12213SOL    HW248268   3.299   0.177  19.597
12214SOL     OW48269   1.177   3.667   2.529
12214SOL    HW148270   1.228   3.597   2.489
12214SOL    HW248271   1.213   3.747   2.490
12215SOL     OW48272   0.162   1.095   2.459
12215SOL    HW148273   0.128   1.007   2.474
12215SOL    HW248274   0.084   1.148   2.442
12216SOL     OW48275   2.851   3.994  20.831
12216SOL    HW148276   2.931   4.037  20.803
12216SOL    HW248277   2.786   4.064  20.838
12217SOL     OW48278   4.289   3.930   8.301
12217SOL    HW148279   4.270   4.014   8.344
12217SOL    HW248280   4.312   3.954   8.212
12218SOL     OW48281   0.548   3.305   6.851
12218SOL    HW148282   0.613   3.318   6.920
12218SOL    HW248283   0.600   3.295   6.771
12219SOL     OW48284   3.971   2.443  22.708
12219SOL    HW148285   3.891   2.431  22.657
12219SOL    HW248286   4.016   2.517  22.666
12220SOL     OW48287   2.882   1.444   7.904
12220SOL    HW148288   2.934   1.365   7.914
12220SOL    HW248289   2.910   1.501   7.976
12221SOL     OW48290   4.575   4.401  24.914
12221SOL    HW148291   4.665   4.374  24.898
12221SOL    HW248292   4.562   4.391  25.008
12222SOL     OW48293   0.912   0.688   2.810
12222SOL    HW148294   1.002   0.688   2.842
12222SOL    HW248295   0.886   0.780   2.811
12223SOL     OW48296   4.319   4.378  24.366
12223SOL    HW148297   4.352   4.375  24.276
12223SOL    HW248298   4.232   4.338  24.361
12224SOL     OW48299   1.739   0.817   9.164
12224SOL    HW148300   1.716   0.724   9.154
12224SOL    HW248301   1.672   0.864   9.114
12225SOL     OW48302   3.627   0.638   5.023
12225SOL    HW148303   3.573   0.663   5.098
12225SOL    HW248304   3.696   0.583   5.061
12226SOL     OW48305   2.006   3.427  22.695
12226SOL    HW148306   2.027   3.334  22.703
12226SOL    HW248307   1.926   3.429  22.642
12227SOL     OW48308   1.164   2.164  26.698
12227SOL    HW148309   1.233   2.138  26.759
12227SOL    HW248310   1.198   2.243  26.656
12228SOL     OW48311   4.721   4.530  22.982
12228SOL    HW148312   0.034   4.546  22.972
12228SOL    HW248313   4.688   4.525  22.892
12229SOL     OW48314   4.210   3.812  21.524
12229SOL    HW148315   4.147   3.776  21.587
12229SOL    HW248316   4.212   3.748  21.453
12230SOL     OW48317   4.482   2.828  26.896
12230SOL    HW148318   4.421   2.889  26.938
12230SOL    HW248319   4.569   2.861  26.917
12231SOL     OW48320   0.366   3.370   2.809
12231SOL    HW148321   0.310   3.380   2.886
12231SOL    HW248322   0.356   3.453   2.762
12232SOL     OW48323   4.357   3.641   5.220
12232SOL    HW148324   4.392   3.611   5.136
12232SOL    HW248325   4.270   3.600   5.226
12233SOL     OW48326   1.433   1.582   9.053
12233SOL    HW148327   1.413   1.566   9.146
12233SOL    HW248328   1.398   1.505   9.008
12234SOL     OW48329   0.717   1.011   8.237
12234SOL    HW148330   0.801   0.980   8.271
12234SOL    HW248331   0.736   1.100   8.206
12235SOL     OW48332   2.657   3.353   4.468
12235SOL    HW148333   2.631   3.280   4.525
12235SOL    HW248334   2.627   3.328   4.381
12236SOL     OW48335   1.961   1.828   1.201
12236SOL    HW148336   2.003   1.827   1.115
12236SOL    HW248337   1.883   1.774   1.190
12237SOL     OW48338   0.678   1.439  28.411
12237SOL    HW148339   0.685   1.525  28.370
12237SOL    HW248340   0.601   1.399  28.371
12238SOL     OW48341   0.031   2.567  23.623
12238SOL    HW148342   0.006   2.658  23.608
12238SOL    HW248343   0.125   2.571  23.642
12239SOL     OW48344   1.139   3.595   7.593
12239SOL    HW148345   1.100   3.510   7.575
12239SOL    HW248346   1.203   3.608   7.523
12240SOL     OW48347   2.950   3.104   8.475
12240SOL    HW148348   2.943   3.130   8.383
12240SOL    HW248349   2.900   3.170   8.523
12241SOL     OW48350   1.893   3.413  21.901
12241SOL    HW148351   1.862   3.353  21.833
12241SOL    HW248352   1.877   3.366  21.983
12242SOL     OW48353   2.803   0.664   3.173
12242SOL    HW148354   2.788   0.608   3.249
12242SOL    HW248355   2.801   0.753   3.207
12243SOL     OW48356   2.274   3.687  10.508
12243SOL    HW148357   2.297   3.687  10.601
12243SOL    HW248358   2.184   3.654  10.506
12244SOL     OW48359   3.939   4.185  20.579
12244SOL    HW148360   3.853   4.146  20.564
12244SOL    HW248361   3.980   4.186  20.493
12245SOL     OW48362   3.912   0.780  28.410
12245SOL    HW148363   3.966   0.829  28.348
12245SOL    HW248364   3.936   0.688  28.394
12246SOL     OW48365   3.528   2.495  25.867
12246SOL    HW148366   3.515   2.401  25.852
12246SOL    HW248367   3.440   2.532  25.864
12247SOL     OW48368   1.226   0.876   4.413
12247SOL    HW148369   1.167   0.883   4.338
12247SOL    HW248370   1.251   0.967   4.432
12248SOL     OW48371   2.104   1.313  23.323
12248SOL    HW148372   2.101   1.312  23.227
12248SOL    HW248373   2.012   1.314  23.350
12249SOL     OW48374   2.819   0.503   8.296
12249SOL    HW148375   2.909   0.483   8.323
12249SOL    HW248376   2.819   0.489   8.201
12250SOL     OW48377   1.368   0.676   9.364
12250SOL    HW148378   1.422   0.599   9.346
12250SOL    HW248379   1.293   0.641   9.413
12251SOL     OW48380   3.529   3.167   0.135
12251SOL    HW148381   3.462   3.208   0.190
12251SOL    HW248382   3.588   3.238   0.111
12252SOL     OW48383   1.810   3.234   0.473
12252SOL    HW148384   1.843   3.266   0.389
12252SOL    HW248385   1.812   3.311   0.531
12253SOL     OW48386   3.517   1.096   1.293
12253SOL    HW148387   3.583   1.079   1.225
12253SOL    HW248388   3.449   1.030   1.277
12254SOL     OW48389   1.294   3.174  26.200
12254SOL    HW148390   1.355   3.129  26.140
12254SOL    HW248391   1.215   3.120  26.198
12255SOL     OW48392   0.745   2.405  23.339
12255SOL    HW148393   0.802   2.416  23.416
12255SOL    HW248394   0.794   2.446  23.267
12256SOL     OW48395   0.654   4.278   4.451
12256SOL    HW148396   0.722   4.215   4.427
12256SOL    HW248397   0.611   4.240   4.527
12257SOL     OW48398   0.554   3.253  19.682
12257SOL    HW148399   0.487   3.307  19.641
12257SOL    HW248400   0.589   3.200  19.611
12258SOL     OW48401   2.547   4.355  27.341
12258SOL    HW148402   2.512   4.269  27.362
12258SOL    HW248403   2.493   4.416  27.391
12259SOL     OW48404   0.816   0.198   3.067
12259SOL    HW148405   0.734   0.178   3.111
12259SOL    HW248406   0.838   0.287   3.096
12260SOL     OW48407   3.197   2.518  10.057
12260SOL    HW148408   3.263   2.575  10.017
12260SOL    HW248409   3.218   2.521  10.151
12261SOL     OW48410   3.061   2.307  26.622
12261SOL    HW148411   3.013   2.256  26.687
12261SOL    HW248412   3.130   2.249  26.591
12262SOL     OW48413   0.624   1.301  24.847
12262SOL    HW148414   0.642   1.388  24.883
12262SOL    HW248415   0.539   1.277  24.885
12263SOL     OW48416   1.823   4.608   3.070
12263SOL    HW148417   1.816   4.653   2.986
12263SOL    HW248418   1.890   4.541   3.056
12264SOL     OW48419   2.540   0.063  25.857
12264SOL    HW148420   2.488   0.058  25.777
12264SOL    HW248421   2.501   0.135  25.907
12265SOL     OW48422   1.261   1.569  18.303
12265SOL    HW148423   1.225   1.489  18.263
12265SOL    HW248424   1.197   1.637  18.280
12266SOL     OW48425   0.100   2.157   2.830
12266SOL    HW148426   0.009   2.157   2.861
12266SOL    HW248427   0.152   2.149   2.909
12267SOL     OW48428   0.726   3.806  27.194
12267SOL    HW148429   0.635   3.827  27.215
12267SOL    HW248430   0.760   3.765  27.274
12268SOL     OW48431   2.564   4.370   6.297
12268SOL    HW148432   2.650   4.393   6.262
12268SOL    HW248433   2.520   4.324   6.226
12269SOL     OW48434   1.019   1.913  24.607
12269SOL    HW148435   0.933   1.921  24.647
12269SOL    HW248436   1.078   1.898  24.681
12270SOL     OW48437   3.755   3.478  11.442
12270SOL    HW148438   3.838   3.434  11.424
12270SOL    HW248439   3.698   3.410  11.477
12271SOL     OW48440   4.244   3.696   3.821
12271SOL    HW148441   4.233   3.680   3.727
12271SOL    HW248442   4.159   3.728   3.851
12272SOL     OW48443   2.459   4.330  20.048
12272SOL    HW148444   2.462   4.415  20.092
12272SOL    HW248445   2.402   4.277  20.104
12273SOL     OW48446   1.403   3.943   3.001
12273SOL    HW148447   1.473   3.965   3.062
12273SOL    HW248448   1.432   3.978   2.917
12274SOL     OW48449   0.047   1.150   9.643
12274SOL    HW148450   0.116   1.085   9.654
12274SOL    HW248451   0.079   1.210   9.576
12275SOL     OW48452   1.935   0.721   5.282
12275SOL    HW148453   1.963   0.652   5.222
12275SOL    HW248454   2.013   0.739   5.335
12276SOL     OW48455   2.760   1.190   3.264
12276SOL    HW148456   2.731   1.101   3.283
12276SOL    HW248457   2.854   1.180   3.245
12277SOL     OW48458   3.634   0.752  23.424
12277SOL    HW148459   3.602   0.685  23.484
12277SOL    HW248460   3.572   0.751  23.351
12278SOL     OW48461   0.142   1.892   3.226
12278SOL    HW148462   0.153   1.800   3.250
12278SOL    HW248463   0.101   1.933   3.302
12279SOL     OW48464   2.016   3.900   6.004
12279SOL    HW148465   1.963   3.924   5.928
12279SOL    HW248466   2.072   3.828   5.973
12280SOL     OW48467   0.893   4.532  26.443
12280SOL    HW148468   0.839   4.601  26.482
12280SOL    HW248469   0.974   4.576  26.418
12281SOL     OW48470   0.313   2.092  24.439
12281SOL    HW148471   0.263   2.048  24.370
12281SOL    HW248472   0.322   2.026  24.508
12282SOL     OW48473   1.808   1.885  28.164
12282SOL    HW148474   1.894   1.867  28.126
12282SOL    HW248475   1.827   1.913  28.253
12283SOL     OW48476   4.446   3.317  28.353
12283SOL    HW148477   4.441   3.410  28.332
12283SOL    HW248478   4.523   3.286  28.305
12284SOL     OW48479   4.658   0.479  17.460
12284SOL    HW148480   4.619   0.405  17.414
12284SOL    HW248481   4.752   0.473  17.441
12285SOL     OW48482   1.948   1.044   8.857
12285SOL    HW148483   1.997   1.011   8.782
12285SOL    HW248484   1.922   0.966   8.905
12286SOL     OW48485   1.993   3.231  22.970
12286SOL    HW148486   2.030   3.318  22.958
12286SOL    HW248487   1.985   3.196  22.881
12287SOL     OW48488   2.449   0.690  24.841
12287SOL    HW148489   2.523   0.684  24.902
12287SOL    HW248490   2.371   0.681  24.897
12288SOL     OW48491   2.972   3.902   7.739
12288SOL    HW148492   3.040   3.970   7.732
12288SOL    HW248493   2.959   3.873   7.649
12289SOL     OW48494   2.014   1.892  22.747
12289SOL    HW148495   2.082   1.843  22.794
12289SOL    HW248496   1.987   1.833  22.676
12290SOL     OW48497   4.302   2.199   6.484
12290SOL    HW148498   4.334   2.241   6.404
12290SOL    HW248499   4.247   2.127   6.454
12291SOL     OW48500   1.404   1.288   3.328
12291SOL    HW148501   1.436   1.201   3.305
12291SOL    HW248502   1.359   1.275   3.411
12292SOL     OW48503   1.474   2.446  21.726
12292SOL    HW148504   1.535   2.418  21.659
12292SOL    HW248505   1.413   2.504  21.680
12293SOL     OW48506   4.467   0.684  28.194
12293SOL    HW148507   4.534   0.735  28.239
12293SOL    HW248508   4.504   0.666  28.107
12294SOL     OW48509   2.407   1.783   1.971
12294SOL    HW148510   2.337   1.799   1.909
12294SOL    HW248511   2.454   1.708   1.934
12295SOL     OW48512   1.184   0.082   6.893
12295SOL    HW148513   1.152   4.775   6.877
12295SOL    HW248514   1.279   0.076   6.879
12296SOL     OW48515   1.575   1.769  17.099
12296SOL    HW148516   1.585   1.770  17.004
12296SOL    HW248517   1.664   1.768  17.133
12297SOL     OW48518   3.841   1.190   2.768
12297SOL    HW148519   3.920   1.136   2.765
12297SOL    HW248520   3.829   1.220   2.678
12298SOL     OW48521   1.891   2.682   8.547
12298SOL    HW148522   1.884   2.623   8.472
12298SOL    HW248523   1.978   2.720   8.540
12299SOL     OW48524   2.105   1.081  25.320
12299SOL    HW148525   2.187   1.129  25.308
12299SOL    HW248526   2.038   1.150  25.325
12300SOL     OW48527   4.755   1.367   8.967
12300SOL    HW148528   0.008   1.410   8.889
12300SOL    HW248529   0.009   1.277   8.962
12301SOL     OW48530   3.523   2.219  23.427
12301SOL    HW148531   3.464   2.198  23.355
12301SOL    HW248532   3.559   2.135  23.454
12302SOL     OW48533   3.228   2.266  24.191
12302SOL    HW148534   3.294   2.335  24.204
12302SOL    HW248535   3.224   2.222  24.276
12303SOL     OW48536   2.147   2.722  27.194
12303SOL    HW148537   2.231   2.760  27.170
12303SOL    HW248538   2.156   2.699  27.286
12304SOL     OW48539   1.368   2.990   0.435
12304SOL    HW148540   1.305   3.047   0.390
12304SOL    HW248541   1.445   3.045   0.448
12305SOL     OW48542   1.980   1.924   5.244
12305SOL    HW148543   1.978   1.847   5.302
12305SOL    HW248544   1.990   1.888   5.156
12306SOL     OW48545   2.736   0.244  27.527
12306SOL    HW148546   2.790   0.315  27.494
12306SOL    HW248547   2.659   0.244  27.470
12307SOL     OW48548   0.975   0.094  23.426
12307SOL    HW148549   1.065   0.063  23.441
12307SOL    HW248550   0.932   0.081  23.511
12308SOL     OW48551   4.115   1.457  26.928
12308SOL    HW148552   4.125   1.449  27.022
12308SOL    HW248553   4.198   1.493  26.897
12309SOL     OW48554   3.159   3.590   8.761
12309SOL    HW148555   3.220   3.576   8.689
12309SOL    HW248556   3.165   3.684   8.779
12310SOL     OW48557   1.176   3.120   8.285
12310SOL    HW148558   1.243   3.054   8.303
12310SOL    HW248559   1.170   3.123   8.190
12311SOL     OW48560   1.306   4.415  23.708
12311SOL    HW148561   1.258   4.496  23.729
12311SOL    HW248562   1.395   4.431  23.739
12312SOL     OW48563   2.178   2.453  27.073
12312SOL    HW148564   2.163   2.521  27.138
12312SOL    HW248565   2.093   2.440  27.031
12313SOL     OW48566   0.290   2.309   7.648
12313SOL    HW148567   0.359   2.346   7.593
12313SOL    HW248568   0.209   2.337   7.607
12314SOL     OW48569   4.516   0.660  25.201
12314SOL    HW148570   4.524   0.734  25.261
12314SOL    HW248571   4.552   0.692  25.118
12315SOL     OW48572   2.965   3.090  17.895
12315SOL    HW148573   2.934   3.005  17.864
12315SOL    HW248574   3.055   3.096  17.861
12316SOL     OW48575   3.040   3.618  23.760
12316SOL    HW148576   3.078   3.539  23.721
12316SOL    HW248577   3.115   3.667  23.793
12317SOL     OW48578   4.612   3.917   8.268
12317SOL    HW148579   4.646   3.996   8.309
12317SOL    HW248580   4.529   3.945   8.227
12318SOL     OW48581   1.211   1.520   7.577
12318SOL    HW148582   1.147   1.589   7.597
12318SOL    HW248583   1.160   1.454   7.529
12319SOL     OW48584   2.382   0.265  25.474
12319SOL    HW148585   2.329   0.296  25.401
12319SOL    HW248586   2.471   0.291  25.452
12320SOL     OW48587   0.783   2.334   0.252
12320SOL    HW148588   0.764   2.420   0.215
12320SOL    HW248589   0.856   2.349   0.311
12321SOL     OW48590   0.937   2.212   8.026
12321SOL    HW148591   1.011   2.196   8.084
12321SOL    HW248592   0.899   2.294   8.057
12322SOL     OW48593   2.528   3.188   3.222
12322SOL    HW148594   2.511   3.109   3.171
12322SOL    HW248595   2.587   3.160   3.292
12323SOL     OW48596   1.239   1.259  22.672
12323SOL    HW148597   1.185   1.267  22.593
12323SOL    HW248598   1.225   1.169  22.703
12324SOL     OW48599   0.975   3.716  24.227
12324SOL    HW148600   0.949   3.661  24.153
12324SOL    HW248601   0.925   3.797  24.214
12325SOL     OW48602   2.599   0.225   6.340
12325SOL    HW148603   2.606   0.312   6.301
12325SOL    HW248604   2.508   0.199   6.324
12326SOL     OW48605   1.676   0.032   8.095
12326SOL    HW148606   1.584   0.010   8.082
12326SOL    HW248607   1.675   0.108   8.154
12327SOL     OW48608   3.766   1.831  23.997
12327SOL    HW148609   3.672   1.823  23.981
12327SOL    HW248610   3.797   1.894  23.932
12328SOL     OW48611   3.258   4.418  21.474
12328SOL    HW148612   3.189   4.353  21.485
12328SOL    HW248613   3.237   4.462  21.392
12329SOL     OW48614   3.017   2.219  25.152
12329SOL    HW148615   2.998   2.286  25.217
12329SOL    HW248616   3.064   2.266  25.082
12330SOL     OW48617   1.461   3.863  23.397
12330SOL    HW148618   1.444   3.862  23.492
12330SOL    HW248619   1.551   3.832  23.389
12331SOL     OW48620   2.589   0.177  26.777
12331SOL    HW148621   2.622   0.254  26.730
12331SOL    HW248622   2.653   0.163  26.847
12332SOL     OW48623   2.654   0.225   7.614
12332SOL    HW148624   2.592   0.295   7.634
12332SOL    HW248625   2.610   0.171   7.549
12333SOL     OW48626   0.267   4.173   8.087
12333SOL    HW148627   0.194   4.184   8.026
12333SOL    HW248628   0.345   4.178   8.031
12334SOL     OW48629   2.919   1.582   8.675
12334SOL    HW148630   2.832   1.544   8.690
12334SOL    HW248631   2.921   1.658   8.732
12335SOL     OW48632   2.324   3.402  25.343
12335SOL    HW148633   2.297   3.483  25.299
12335SOL    HW248634   2.383   3.432  25.412
12336SOL     OW48635   0.997   4.616   0.592
12336SOL    HW148636   0.968   4.531   0.623
12336SOL    HW248637   0.973   4.617   0.499
12337SOL     OW48638   4.525   4.097   2.205
12337SOL    HW148639   4.615   4.077   2.181
12337SOL    HW248640   4.495   4.157   2.136
12338SOL     OW48641   0.888   4.128   0.863
12338SOL    HW148642   0.909   4.076   0.785
12338SOL    HW248643   0.813   4.083   0.902
12339SOL     OW48644   3.854   3.588  20.298
12339SOL    HW148645   3.796   3.515  20.276
12339SOL    HW248646   3.908   3.599  20.219
12340SOL     OW48647   3.359   0.207  24.869
12340SOL    HW148648   3.308   0.127  24.864
12340SOL    HW248649   3.296   0.277  24.854
12341SOL     OW48650   3.415   3.352  19.664
12341SOL    HW148651   3.386   3.366  19.574
12341SOL    HW248652   3.503   3.314  19.655
12342SOL     OW48653   2.376   1.101   6.274
12342SOL    HW148654   2.341   1.023   6.317
12342SOL    HW248655   2.303   1.163   6.272
12343SOL     OW48656   0.036   1.180   7.831
12343SOL    HW148657   0.090   1.118   7.782
12343SOL    HW248658   0.078   1.265   7.817
12344SOL     OW48659   0.749   4.599  18.693
12344SOL    HW148660   0.807   4.602  18.617
12344SOL    HW248661   0.687   4.670  18.677
12345SOL     OW48662   3.268   2.125  26.636
12345SOL    HW148663   3.361   2.107  26.650
12345SOL    HW248664   3.224   2.063  26.694
12346SOL     OW48665   4.562   4.574  27.711
12346SOL    HW148666   4.466   4.580  27.705
12346SOL    HW248667   4.594   4.620  27.634
12347SOL     OW48668   2.061   3.830  18.412
12347SOL    HW148669   2.087   3.913  18.374
12347SOL    HW248670   1.967   3.822  18.392
12348SOL     OW48671   1.976   0.186  20.484
12348SOL    HW148672   2.045   0.165  20.547
12348SOL    HW248673   1.949   0.101  20.449
12349SOL     OW48674   0.870   3.129   6.874
12349SOL    HW148675   0.824   3.067   6.818
12349SOL    HW248676   0.863   3.092   6.962
12350SOL     OW48677   4.769   3.449   0.008
12350SOL    HW148678   0.050   3.483  28.466
12350SOL    HW248679   4.769   3.355  28.518
12351SOL     OW48680   3.818   0.653  19.178
12351SOL    HW148681   3.730   0.657  19.215
12351SOL    HW248682   3.823   0.728  19.118
12352SOL     OW48683   1.372   1.182  21.696
12352SOL    HW148684   1.308   1.115  21.719
12352SOL    HW248685   1.437   1.136  21.643
12353SOL     OW48686   1.754   1.795   4.067
12353SOL    HW148687   1.675   1.796   4.014
12353SOL    HW248688   1.767   1.887   4.092
12354SOL     OW48689   3.300   2.589  24.333
12354SOL    HW148690   3.220   2.633  24.359
12354SOL    HW248691   3.370   2.637  24.377
12355SOL     OW48692   4.245   0.458  24.526
12355SOL    HW148693   4.243   0.445  24.431
12355SOL    HW248694   4.157   0.435  24.555
12356SOL     OW48695   1.451   3.676  17.763
12356SOL    HW148696   1.414   3.628  17.689
12356SOL    HW248697   1.391   3.658  17.835
12357SOL     OW48698   3.137   2.016   5.520
12357SOL    HW148699   3.042   2.011   5.525
12357SOL    HW248700   3.155   2.083   5.455
12358SOL     OW48701   0.068   0.778   9.747
12358SOL    HW148702   4.773   0.752   9.694
12358SOL    HW248703   0.035   0.777   9.837
12359SOL     OW48704   2.414   1.812  25.257
12359SOL    HW148705   2.495   1.773  25.222
12359SOL    HW248706   2.420   1.798  25.351
12360SOL     OW48707   1.948   2.665   0.562
12360SOL    HW148708   1.971   2.574   0.581
12360SOL    HW248709   1.882   2.687   0.627
12361SOL     OW48710   3.725   3.765   3.032
12361SOL    HW148711   3.701   3.792   2.943
12361SOL    HW248712   3.660   3.807   3.088
12362SOL     OW48713   0.425   4.467   9.265
12362SOL    HW148714   0.381   4.399   9.316
12362SOL    HW248715   0.355   4.520   9.228
12363SOL     OW48716   4.658   4.601  20.523
12363SOL    HW148717   4.639   4.508  20.513
12363SOL    HW248718   4.737   4.604  20.577
12364SOL     OW48719   3.680   3.221   4.454
12364SOL    HW148720   3.631   3.302   4.468
12364SOL    HW248721   3.691   3.184   4.542
12365SOL     OW48722   4.316   3.334  26.677
12365SOL    HW148723   4.244   3.276  26.701
12365SOL    HW248724   4.297   3.416  26.724
12366SOL     OW48725   1.407   3.484   5.708
12366SOL    HW148726   1.469   3.415   5.730
12366SOL    HW248727   1.387   3.470   5.615
12367SOL     OW48728   3.787   4.473   1.398
12367SOL    HW148729   3.762   4.471   1.490
12367SOL    HW248730   3.713   4.514   1.354
12368SOL     OW48731   2.180   2.502  25.912
12368SOL    HW148732   2.088   2.512  25.939
12368SOL    HW248733   2.190   2.408  25.897
12369SOL     OW48734   4.486   0.675  27.290
12369SOL    HW148735   4.459   0.766  27.303
12369SOL    HW248736   4.566   0.666  27.343
12370SOL     OW48737   2.663   1.685   6.567
12370SOL    HW148738   2.645   1.721   6.654
12370SOL    HW248739   2.759   1.683   6.561
12371SOL     OW48740   3.777   0.531  27.516
12371SOL    HW148741   3.797   0.624  27.528
12371SOL    HW248742   3.861   0.486  27.528
12372SOL     OW48743   2.207   1.963  16.774
12372SOL    HW148744   2.268   1.897  16.741
12372SOL    HW248745   2.253   2.046  16.763
12373SOL     OW48746   3.894   0.855  22.202
12373SOL    HW148747   3.972   0.802  22.218
12373SOL    HW248748   3.853   0.816  22.125
12374SOL     OW48749   0.241   3.012   0.033
12374SOL    HW148750   0.210   3.005  28.465
12374SOL    HW248751   0.324   3.060   0.026
12375SOL     OW48752   2.572   1.649  26.807
12375SOL    HW148753   2.602   1.649  26.716
12375SOL    HW248754   2.519   1.570  26.816
12376SOL     OW48755   0.317   0.555   9.915
12376SOL    HW148756   0.290   0.471   9.880
12376SOL    HW248757   0.348   0.604   9.838
12377SOL     OW48758   3.558   1.005  21.422
12377SOL    HW148759   3.531   1.096  21.404
12377SOL    HW248760   3.634   0.991  21.366
12378SOL     OW48761   2.249   0.750  20.378
12378SOL    HW148762   2.297   0.822  20.418
12378SOL    HW248763   2.205   0.706  20.451
12379SOL     OW48764   4.485   2.551  22.051
12379SOL    HW148765   4.488   2.595  21.966
12379SOL    HW248766   4.393   2.532  22.065
12380SOL     OW48767   0.198   3.935   6.244
12380SOL    HW148768   0.138   3.965   6.175
12380SOL    HW248769   0.170   3.845   6.262
12381SOL     OW48770   4.346   4.241   9.387
12381SOL    HW148771   4.303   4.273   9.308
12381SOL    HW248772   4.425   4.294   9.394
12382SOL     OW48773   3.673   2.098   4.417
12382SOL    HW148774   3.672   2.006   4.444
12382SOL    HW248775   3.607   2.104   4.348
12383SOL     OW48776   3.884   2.328   7.849
12383SOL    HW148777   3.955   2.372   7.802
12383SOL    HW248778   3.868   2.382   7.926
12384SOL     OW48779   1.041   0.161   9.532
12384SOL    HW148780   0.968   0.208   9.490
12384SOL    HW248781   1.067   0.095   9.467
12385SOL     OW48782   1.016   4.394  20.630
12385SOL    HW148783   1.028   4.390  20.535
12385SOL    HW248784   0.926   4.426  20.642
12386SOL     OW48785   4.633   2.125   5.203
12386SOL    HW148786   4.602   2.211   5.230
12386SOL    HW248787   4.718   2.142   5.162
12387SOL     OW48788   0.073   3.851  27.612
12387SOL    HW148789   0.019   3.918  27.656
12387SOL    HW248790   0.046   3.769  27.652
12388SOL     OW48791   1.880   4.250   7.598
12388SOL    HW148792   1.964   4.228   7.638
12388SOL    HW248793   1.827   4.283   7.670
12389SOL     OW48794   0.286   0.245  22.451
12389SOL    HW148795   0.339   0.324  22.436
12389SOL    HW248796   0.298   0.226  22.544
12390SOL     OW48797   4.249   0.841   8.175
12390SOL    HW148798   4.309   0.911   8.151
12390SOL    HW248799   4.262   0.829   8.269
12391SOL     OW48800   0.635   2.807   7.979
12391SOL    HW148801   0.707   2.847   7.930
12391SOL    HW248802   0.571   2.783   7.912
12392SOL     OW48803   3.349   0.160   4.060
12392SOL    HW148804   3.355   0.255   4.062
12392SOL    HW248805   3.367   0.133   4.150
12393SOL     OW48806   0.471   4.374   5.555
12393SOL    HW148807   0.496   4.426   5.479
12393SOL    HW248808   0.377   4.388   5.564
12394SOL     OW48809   3.629   2.600   3.152
12394SOL    HW148810   3.681   2.607   3.071
12394SOL    HW248811   3.691   2.620   3.222
12395SOL     OW48812   4.038   0.267  20.347
12395SOL    HW148813   4.018   0.358  20.369
12395SOL    HW248814   4.043   0.222  20.431
12396SOL     OW48815   0.674   4.174   5.594
12396SOL    HW148816   0.626   4.257   5.593
12396SOL    HW248817   0.645   4.132   5.675
12397SOL     OW48818   1.582   3.363   1.175
12397SOL    HW148819   1.511   3.329   1.229
12397SOL    HW248820   1.603   3.448   1.215
12398SOL     OW48821   1.746   3.881  27.991
12398SOL    HW148822   1.687   3.850  28.060
12398SOL    HW248823   1.749   3.809  27.928
12399SOL     OW48824   3.066   0.852   5.686
12399SOL    HW148825   2.998   0.790   5.715
12399SOL    HW248826   3.022   0.937   5.688
12400SOL     OW48827   1.271   1.705  26.708
12400SOL    HW148828   1.343   1.681  26.649
12400SOL    HW248829   1.192   1.697  26.655
12401SOL     OW48830   2.014   0.254   9.105
12401SOL    HW148831   1.943   0.292   9.054
12401SOL    HW248832   2.087   0.315   9.095
12402SOL     OW48833   2.596   4.493  23.596
12402SOL    HW148834   2.532   4.437  23.640
12402SOL    HW248835   2.544   4.551  23.542
12403SOL     OW48836   1.758   2.136   5.541
12403SOL    HW148837   1.756   2.206   5.607
12403SOL    HW248838   1.677   2.088   5.555
12404SOL     OW48839   4.718   0.706  22.775
12404SOL    HW148840   4.769   0.725  22.696
12404SOL    HW248841   0.001   0.673  22.838
12405SOL     OW48842   0.116   4.258   2.175
12405SOL    HW148843   0.085   4.171   2.151
12405SOL    HW248844   0.199   4.268   2.128
12406SOL     OW48845   0.871   1.502  19.827
12406SOL    HW148846   0.831   1.533  19.907
12406SOL    HW248847   0.798   1.487  19.767
12407SOL     OW48848   2.290   2.230  11.186
12407SOL    HW148849   2.259   2.149  11.227
12407SOL    HW248850   2.243   2.234  11.103
12408SOL     OW48851   4.379   3.913   5.238
12408SOL    HW148852   4.342   3.825   5.230
12408SOL    HW248853   4.307   3.966   5.272
12409SOL     OW48854   2.269   2.990   3.934
12409SOL    HW148855   2.269   3.009   3.840
12409SOL    HW248856   2.177   2.979   3.956
12410SOL     OW48857   3.904   2.877  25.110
12410SOL    HW148858   3.864   2.944  25.164
12410SOL    HW248859   3.906   2.915  25.022
12411SOL     OW48860   4.084   2.832  20.664
12411SOL    HW148861   4.036   2.784  20.731
12411SOL    HW248862   4.175   2.807  20.677
12412SOL     OW48863   3.061   4.506  19.358
12412SOL    HW148864   2.966   4.511  19.365
12412SOL    HW248865   3.082   4.568  19.287
12413SOL     OW48866   4.760   2.911   1.428
12413SOL    HW148867   4.672   2.923   1.461
12413SOL    HW248868   0.014   2.836   1.476
12414SOL     OW48869   3.335   2.025   6.949
12414SOL    HW148870   3.341   2.015   7.044
12414SOL    HW248871   3.401   2.091   6.928
12415SOL     OW48872   1.629   1.362   4.637
12415SOL    HW148873   1.646   1.298   4.568
12415SOL    HW248874   1.546   1.402   4.613
12416SOL     OW48875   3.600   0.915  24.551
12416SOL    HW148876   3.510   0.949  24.545
12416SOL    HW248877   3.639   0.938  24.467
12417SOL     OW48878   1.057   1.536  20.186
12417SOL    HW148879   1.121   1.597  20.148
12417SOL    HW248880   1.105   1.453  20.193
12418SOL     OW48881   2.439   4.555   5.686
12418SOL    HW148882   2.408   4.569   5.596
12418SOL    HW248883   2.469   4.464   5.686
12419SOL     OW48884   0.252   4.228  27.276
12419SOL    HW148885   0.313   4.156  27.260
12419SOL    HW248886   0.297   4.284  27.339
12420SOL     OW48887   3.377   4.133   6.966
12420SOL    HW148888   3.385   4.226   6.984
12420SOL    HW248889   3.433   4.091   7.032
12421SOL     OW48890   0.355   2.068  20.029
12421SOL    HW148891   0.441   2.082  20.069
12421SOL    HW248892   0.327   1.983  20.062
12422SOL     OW48893   4.710   0.675  19.263
12422SOL    HW148894   4.725   0.616  19.188
12422SOL    HW248895   4.729   0.622  19.340
12423SOL     OW48896   3.273   1.426   0.183
12423SOL    HW148897   3.242   1.503   0.136
12423SOL    HW248898   3.367   1.425   0.171
12424SOL     OW48899   1.437   3.496   4.836
12424SOL    HW148900   1.474   3.449   4.761
12424SOL    HW248901   1.427   3.586   4.806
12425SOL     OW48902   1.294   2.487   8.486
12425SOL    HW148903   1.200   2.475   8.501
12425SOL    HW248904   1.331   2.498   8.574
12426SOL     OW48905   2.718   1.673   0.374
12426SOL    HW148906   2.807   1.679   0.340
12426SOL    HW248907   2.729   1.655   0.468
12427SOL     OW48908   2.389   2.922   0.901
12427SOL    HW148909   2.351   2.844   0.941
12427SOL    HW248910   2.484   2.908   0.907
12428SOL     OW48911   3.160   3.712   2.515
12428SOL    HW148912   3.094   3.706   2.446
12428SOL    HW248913   3.238   3.746   2.471
12429SOL     OW48914   2.122   1.265   9.763
12429SOL    HW148915   2.112   1.195   9.699
12429SOL    HW248916   2.085   1.343   9.720
12430SOL     OW48917   3.992   2.870  17.176
12430SOL    HW148918   4.024   2.797  17.228
12430SOL    HW248919   4.070   2.909  17.138
12431SOL     OW48920   1.510   0.515   6.581
12431SOL    HW148921   1.598   0.524   6.545
12431SOL    HW248922   1.508   0.426   6.618
12432SOL     OW48923   2.623   3.767   6.122
12432SOL    HW148924   2.594   3.686   6.079
12432SOL    HW248925   2.587   3.837   6.067
12433SOL     OW48926   1.201   3.913  25.060
12433SOL    HW148927   1.131   3.933  25.123
12433SOL    HW248928   1.202   3.987  25.001
12434SOL     OW48929   1.425   1.803  25.085
12434SOL    HW148930   1.429   1.898  25.096
12434SOL    HW248931   1.512   1.772  25.110
12435SOL     OW48932   0.330   1.642   7.045
12435SOL    HW148933   0.289   1.558   7.066
12435SOL    HW248934   0.263   1.689   6.994
12436SOL     OW48935   0.466   3.377  10.572
12436SOL    HW148936   0.465   3.304  10.509
12436SOL    HW248937   0.557   3.405  10.575
12437SOL     OW48938   4.548   3.860   7.804
12437SOL    HW148939   4.560   3.892   7.715
12437SOL    HW248940   4.593   3.924   7.859
12438SOL     OW48941   3.961   1.887  21.243
12438SOL    HW148942   3.978   1.936  21.324
12438SOL    HW248943   3.898   1.941  21.195
12439SOL     OW48944   3.410   1.007  10.069
12439SOL    HW148945   3.410   1.022  10.164
12439SOL    HW248946   3.438   0.916  10.060
12440SOL     OW48947   4.579   2.575   6.541
12440SOL    HW148948   4.659   2.628   6.532
12440SOL    HW248949   4.508   2.638   6.532
12441SOL     OW48950   0.582   1.983  25.757
12441SOL    HW148951   0.560   1.904  25.707
12441SOL    HW248952   0.512   2.045  25.736
12442SOL     OW48953   0.270   0.393  24.661
12442SOL    HW148954   0.245   0.485  24.656
12442SOL    HW248955   0.235   0.355  24.581
12443SOL     OW48956   1.441   2.972   3.817
12443SOL    HW148957   1.481   2.963   3.903
12443SOL    HW248958   1.480   2.902   3.765
12444SOL     OW48959   4.285   0.953  24.146
12444SOL    HW148960   4.357   0.916  24.096
12444SOL    HW248961   4.285   0.903  24.228
12445SOL     OW48962   2.759   0.034   9.399
12445SOL    HW148963   2.689   0.069   9.344
12445SOL    HW248964   2.722   0.031   9.487
12446SOL     OW48965   0.757   0.962  26.069
12446SOL    HW148966   0.761   1.056  26.048
12446SOL    HW248967   0.669   0.949  26.105
12447SOL     OW48968   0.042   1.915   1.226
12447SOL    HW148969   4.728   1.911   1.226
12447SOL    HW248970   0.068   1.868   1.146
12448SOL     OW48971   0.789   2.548   2.675
12448SOL    HW148972   0.852   2.529   2.745
12448SOL    HW248973   0.839   2.542   2.594
12449SOL     OW48974   3.426   1.181  27.874
12449SOL    HW148975   3.403   1.274  27.875
12449SOL    HW248976   3.380   1.144  27.949
12450SOL     OW48977   4.386   3.993   9.498
12450SOL    HW148978   4.369   4.079   9.460
12450SOL    HW248979   4.482   3.984   9.494
12451SOL     OW48980   1.737   1.189   8.567
12451SOL    HW148981   1.745   1.102   8.604
12451SOL    HW248982   1.825   1.226   8.572
12452SOL     OW48983   2.770   3.070  10.882
12452SOL    HW148984   2.857   3.042  10.913
12452SOL    HW248985   2.721   3.089  10.962
12453SOL     OW48986   4.254   3.389  20.686
12453SOL    HW148987   4.313   3.348  20.622
12453SOL    HW248988   4.186   3.430  20.633
12454SOL     OW48989   4.509   4.309  24.049
12454SOL    HW148990   4.573   4.240  24.067
12454SOL    HW248991   4.525   4.374  24.118
12455SOL     OW48992   0.220   1.103  10.741
12455SOL    HW148993   0.275   1.118  10.664
12455SOL    HW248994   0.170   1.024  10.721
12456SOL     OW48995   2.295   1.578  18.993
12456SOL    HW148996   2.295   1.586  19.088
12456SOL    HW248997   2.317   1.665  18.961
12457SOL     OW48998   2.827   3.217  23.660
12457SOL    HW148999   2.801   3.161  23.733
12457SOL    HW249000   2.841   3.303  23.698
12458SOL     OW49001   1.586   0.410  24.212
12458SOL    HW149002   1.506   0.361  24.229
12458SOL    HW249003   1.655   0.360  24.257
12459SOL     OW49004   2.473   1.364  22.329
12459SOL    HW149005   2.541   1.363  22.262
12459SOL    HW249006   2.485   1.448  22.374
12460SOL     OW49007   1.777   1.027  23.726
12460SOL    HW149008   1.753   0.940  23.758
12460SOL    HW249009   1.844   1.011  23.660
12461SOL     OW49010   0.755   2.243  23.853
12461SOL    HW149011   0.821   2.178  23.878
12461SOL    HW249012   0.680   2.191  23.825
12462SOL     OW49013   3.043   3.673  10.693
12462SOL    HW149014   3.097   3.650  10.769
12462SOL    HW249015   3.077   3.758  10.664
12463SOL     OW49016   0.885   3.102   3.525
12463SOL    HW149017   0.866   3.072   3.436
12463SOL    HW249018   0.848   3.191   3.528
12464SOL     OW49019   4.505   1.063   1.768
12464SOL    HW149020   4.598   1.044   1.780
12464SOL    HW249021   4.503   1.143   1.715
12465SOL     OW49022   2.111   3.446   6.156
12465SOL    HW149023   2.035   3.486   6.198
12465SOL    HW249024   2.084   3.356   6.138
12466SOL     OW49025   0.052   3.081  20.997
12466SOL    HW149026   0.038   2.989  20.974
12466SOL    HW249027   0.110   3.114  20.928
12467SOL     OW49028   4.417   3.284  20.486
12467SOL    HW149029   4.439   3.361  20.434
12467SOL    HW249030   4.340   3.246  20.442
12468SOL     OW49031   0.675   0.997  22.077
12468SOL    HW149032   0.724   1.058  22.021
12468SOL    HW249033   0.652   0.924  22.020
12469SOL     OW49034   1.875   0.985  26.417
12469SOL    HW149035   1.943   0.927  26.382
12469SOL    HW249036   1.797   0.929  26.423
12470SOL     OW49037   4.160   3.951  26.929
12470SOL    HW149038   4.132   3.962  26.838
12470SOL    HW249039   4.255   3.963  26.927
12471SOL     OW49040   1.493   4.363  20.405
12471SOL    HW149041   1.438   4.294  20.443
12471SOL    HW249042   1.460   4.444  20.443
12472SOL     OW49043   1.085   4.226   1.705
12472SOL    HW149044   1.135   4.297   1.664
12472SOL    HW249045   1.037   4.186   1.633
12473SOL     OW49046   1.883   0.259   2.072
12473SOL    HW149047   1.793   0.231   2.093
12473SOL    HW249048   1.914   0.195   2.009
12474SOL     OW49049   4.196   3.828   6.450
12474SOL    HW149050   4.159   3.883   6.382
12474SOL    HW249051   4.290   3.829   6.434
12475SOL     OW49052   0.273   2.371  22.963
12475SOL    HW149053   0.270   2.290  22.912
12475SOL    HW249054   0.295   2.343  23.051
12476SOL     OW49055   2.639   1.463  21.422
12476SOL    HW149056   2.576   1.523  21.381
12476SOL    HW249057   2.601   1.442  21.507
12477SOL     OW49058   4.361   1.293   5.882
12477SOL    HW149059   4.304   1.228   5.840
12477SOL    HW249060   4.303   1.341   5.941
12478SOL     OW49061   2.577   3.008  12.362
12478SOL    HW149062   2.608   2.970  12.444
12478SOL    HW249063   2.583   3.102  12.375
12479SOL     OW49064   4.422   1.378  21.570
12479SOL    HW149065   4.334   1.412  21.587
12479SOL    HW249066   4.443   1.325  21.647
12480SOL     OW49067   0.735   1.213  25.998
12480SOL    HW149068   0.740   1.226  25.903
12480SOL    HW249069   0.649   1.247  26.022
12481SOL     OW49070   4.727   2.162   3.430
12481SOL    HW149071   4.675   2.229   3.475
12481SOL    HW249072   4.685   2.152   3.345
12482SOL     OW49073   1.085   2.793  18.633
12482SOL    HW149074   1.040   2.791  18.548
12482SOL    HW249075   1.055   2.714  18.677
12483SOL     OW49076   2.145   1.516   8.610
12483SOL    HW149077   2.228   1.470   8.600
12483SOL    HW249078   2.082   1.464   8.561
12484SOL     OW49079   3.742   0.086  10.273
12484SOL    HW149080   3.766   0.154  10.335
12484SOL    HW249081   3.690   0.024  10.323
12485SOL     OW49082   1.008   4.178   1.104
12485SOL    HW149083   0.988   4.143   1.017
12485SOL    HW249084   0.944   4.248   1.116
12486SOL     OW49085   2.565   1.595   3.767
12486SOL    HW149086   2.494   1.628   3.713
12486SOL    HW249087   2.595   1.671   3.816
12487SOL     OW49088   4.228   3.187   0.754
12487SOL    HW149089   4.217   3.113   0.696
12487SOL    HW249090   4.295   3.160   0.816
12488SOL     OW49091   3.198   1.144   2.153
12488SOL    HW149092   3.242   1.204   2.093
12488SOL    HW249093   3.141   1.091   2.096
12489SOL     OW49094   3.521   0.083  23.201
12489SOL    HW149095   3.429   0.106  23.189
12489SOL    HW249096   3.536   0.010  23.141
12490SOL     OW49097   4.240   0.576  24.925
12490SOL    HW149098   4.232   0.546  25.016
12490SOL    HW249099   4.154   0.559  24.887
12491SOL     OW49100   3.629   4.381  26.082
12491SOL    HW149101   3.574   4.410  26.010
12491SOL    HW249102   3.586   4.301  26.114
12492SOL     OW49103   3.502   2.916  25.069
12492SOL    HW149104   3.415   2.890  25.039
12492SOL    HW249105   3.560   2.895  24.995
12493SOL     OW49106   0.771   0.124  25.524
12493SOL    HW149107   0.802   0.150  25.438
12493SOL    HW249108   0.815   0.183  25.585
12494SOL     OW49109   3.321   3.650   1.743
12494SOL    HW149110   3.328   3.647   1.838
12494SOL    HW249111   3.228   3.669   1.727
12495SOL     OW49112   2.281   1.232   4.799
12495SOL    HW149113   2.214   1.285   4.756
12495SOL    HW249114   2.292   1.273   4.885
12496SOL     OW49115   3.577   1.102  23.194
12496SOL    HW149116   3.665   1.141  23.190
12496SOL    HW249117   3.587   1.017  23.151
12497SOL     OW49118   1.932   2.645  21.113
12497SOL    HW149119   1.875   2.722  21.123
12497SOL    HW249120   1.874   2.577  21.081
12498SOL     OW49121   2.436   4.395  18.653
12498SOL    HW149122   2.374   4.337  18.697
12498SOL    HW249123   2.414   4.387  18.560
12499SOL     OW49124   4.565   0.365  28.244
12499SOL    HW149125   4.653   0.395  28.218
12499SOL    HW249126   4.543   0.420  28.319
12500SOL     OW49127   3.612   2.076   8.235
12500SOL    HW149128   3.556   2.142   8.277
12500SOL    HW249129   3.611   2.100   8.143
12501SOL     OW49130   1.265   1.492  27.613
12501SOL    HW149131   1.233   1.420  27.559
12501SOL    HW249132   1.316   1.546  27.552
12502SOL     OW49133   3.088   3.367  23.627
12502SOL    HW149134   3.031   3.325  23.562
12502SOL    HW249135   3.140   3.295  23.664
12503SOL     OW49136   0.042   3.242  10.020
12503SOL    HW149137   0.065   3.202  10.104
12503SOL    HW249138   0.037   3.169   9.959
12504SOL     OW49139   1.443   0.410   1.077
12504SOL    HW149140   1.390   0.485   1.052
12504SOL    HW249141   1.530   0.429   1.042
12505SOL     OW49142   0.537   3.766  11.006
12505SOL    HW149143   0.488   3.797  11.082
12505SOL    HW249144   0.472   3.765  10.935
12506SOL     OW49145   1.565   2.664  11.921
12506SOL    HW149146   1.608   2.736  11.967
12506SOL    HW249147   1.583   2.587  11.974
12507SOL     OW49148   1.701   0.808   5.142
12507SOL    HW149149   1.689   0.884   5.084
12507SOL    HW249150   1.750   0.843   5.217
12508SOL     OW49151   3.177   3.736   4.089
12508SOL    HW149152   3.142   3.779   4.167
12508SOL    HW249153   3.149   3.791   4.016
12509SOL     OW49154   3.238   4.770   7.324
12509SOL    HW149155   3.290   0.005   7.402
12509SOL    HW249156   3.161   4.723   7.355
12510SOL     OW49157   1.153   0.807   2.227
12510SOL    HW149158   1.110   0.880   2.271
12510SOL    HW249159   1.083   0.764   2.179
12511SOL     OW49160   1.744   2.665   9.452
12511SOL    HW149161   1.736   2.732   9.384
12511SOL    HW249162   1.715   2.708   9.532
12512SOL     OW49163   1.730   2.724   3.382
12512SOL    HW149164   1.735   2.663   3.308
12512SOL    HW249165   1.647   2.770   3.370
12513SOL     OW49166   2.377   3.110  27.824
12513SOL    HW149167   2.340   3.195  27.846
12513SOL    HW249168   2.471   3.120  27.842
12514SOL     OW49169   1.741   1.157  26.824
12514SOL    HW149170   1.788   1.135  26.904
12514SOL    HW249171   1.809   1.162  26.757
12515SOL     OW49172   2.520   3.863   7.947
12515SOL    HW149173   2.427   3.841   7.939
12515SOL    HW249174   2.561   3.819   7.872
12516SOL     OW49175   3.573   4.776   2.198
12516SOL    HW149176   3.508   0.064   2.183
12516SOL    HW249177   3.550   4.740   2.284
12517SOL     OW49178   3.598   3.662  24.658
12517SOL    HW149179   3.628   3.588  24.606
12517SOL    HW249180   3.666   3.673  24.725
12518SOL     OW49181   3.900   4.046   4.418
12518SOL    HW149182   3.853   4.105   4.476
12518SOL    HW249183   3.991   4.075   4.423
12519SOL     OW49184   4.260   1.406   1.104
12519SOL    HW149185   4.228   1.357   1.028
12519SOL    HW249186   4.283   1.492   1.069
12520SOL     OW49187   3.553   1.502  18.060
12520SOL    HW149188   3.559   1.573  18.124
12520SOL    HW249189   3.528   1.425  18.111
12521SOL     OW49190   4.215   1.876   6.035
12521SOL    HW149191   4.208   1.954   5.981
12521SOL    HW249192   4.226   1.804   5.972
12522SOL     OW49193   0.797   1.757   4.598
12522SOL    HW149194   0.843   1.705   4.663
12522SOL    HW249195   0.832   1.845   4.608
12523SOL     OW49196   2.119   2.222   9.473
12523SOL    HW149197   2.107   2.281   9.399
12523SOL    HW249198   2.061   2.148   9.455
12524SOL     OW49199   4.490   3.594   4.999
12524SOL    HW149200   4.521   3.565   4.914
12524SOL    HW249201   4.528   3.681   5.010
12525SOL     OW49202   2.741   2.646  19.124
12525SOL    HW149203   2.791   2.728  19.128
12525SOL    HW249204   2.668   2.666  19.065
12526SOL     OW49205   0.958   1.120   6.308
12526SOL    HW149206   0.981   1.207   6.341
12526SOL    HW249207   1.017   1.060   6.353
12527SOL     OW49208   3.424   2.745  20.285
12527SOL    HW149209   3.488   2.782  20.345
12527SOL    HW249210   3.374   2.821  20.253
12528SOL     OW49211   3.815   1.557  17.957
12528SOL    HW149212   3.858   1.486  18.005
12528SOL    HW249213   3.722   1.548  17.979
12529SOL     OW49214   0.529   1.848   8.145
12529SOL    HW149215   0.476   1.805   8.212
12529SOL    HW249216   0.546   1.935   8.180
12530SOL     OW49217   3.431   2.399  10.287
12530SOL    HW149218   3.420   2.461  10.359
12530SOL    HW249219   3.343   2.388  10.251
12531SOL     OW49220   4.492   3.948  28.082
12531SOL    HW149221   4.529   3.862  28.100
12531SOL    HW249222   4.553   3.988  28.019
12532SOL     OW49223   2.238   3.222  26.478
12532SOL    HW149224   2.232   3.178  26.563
12532SOL    HW249225   2.152   3.261  26.465
12533SOL     OW49226   4.483   0.786   7.863
12533SOL    HW149227   4.523   0.873   7.870
12533SOL    HW249228   4.491   0.749   7.951
12534SOL     OW49229   4.192   3.106   2.062
12534SOL    HW149230   4.097   3.099   2.048
12534SOL    HW249231   4.200   3.143   2.150
12535SOL     OW49232   4.300   0.722  18.264
12535SOL    HW149233   4.353   0.676  18.329
12535SOL    HW249234   4.225   0.755  18.314
12536SOL     OW49235   1.054   1.348   0.083
12536SOL    HW149236   0.959   1.347   0.077
12536SOL    HW249237   1.083   1.276   0.027
12537SOL     OW49238   1.300   2.669  10.794
12537SOL    HW149239   1.258   2.731  10.854
12537SOL    HW249240   1.354   2.613  10.849
12538SOL     OW49241   0.192   0.028   1.795
12538SOL    HW149242   0.213   4.716   1.805
12538SOL    HW249243   0.099   0.029   1.770
12539SOL     OW49244   1.922   2.090  23.316
12539SOL    HW149245   1.910   2.132  23.230
12539SOL    HW249246   1.855   2.130  23.371
12540SOL     OW49247   3.327   3.961   2.086
12540SOL    HW149248   3.303   4.052   2.099
12540SOL    HW249249   3.381   3.961   2.006
12541SOL     OW49250   4.260   1.853  25.867
12541SOL    HW149251   4.199   1.816  25.932
12541SOL    HW249252   4.268   1.785  25.800
12542SOL     OW49253   0.119   2.218  23.992
12542SOL    HW149254   0.076   2.272  23.927
12542SOL    HW249255   0.087   2.250  24.076
12543SOL     OW49256   0.625   1.744   0.708
12543SOL    HW149257   0.556   1.778   0.765
12543SOL    HW249258   0.594   1.761   0.619
12544SOL     OW49259   3.276   2.418   2.004
12544SOL    HW149260   3.194   2.464   2.020
12544SOL    HW249261   3.335   2.484   1.968
12545SOL     OW49262   1.940   1.029  20.631
12545SOL    HW149263   2.005   0.991  20.691
12545SOL    HW249264   1.883   0.956  20.608
12546SOL     OW49265   1.465   2.570  27.411
12546SOL    HW149266   1.475   2.595  27.503
12546SOL    HW249267   1.373   2.587  27.391
12547SOL     OW49268   1.090   1.048   2.425
12547SOL    HW149269   1.068   1.011   2.510
12547SOL    HW249270   1.186   1.045   2.421
12548SOL     OW49271   3.710   2.030  21.851
12548SOL    HW149272   3.654   2.106  21.867
12548SOL    HW249273   3.682   1.997  21.765
12549SOL     OW49274   2.985   1.518   2.900
12549SOL    HW149275   2.910   1.468   2.933
12549SOL    HW249276   3.038   1.536   2.978
12550SOL     OW49277   3.814   2.453   0.124
12550SOL    HW149278   3.902   2.478   0.152
12550SOL    HW249279   3.827   2.411   0.039
12551SOL     OW49280   3.205   1.101   9.452
12551SOL    HW149281   3.200   1.193   9.425
12551SOL    HW249282   3.173   1.100   9.542
12552SOL     OW49283   1.797   4.629  11.820
12552SOL    HW149284   1.853   4.691  11.867
12552SOL    HW249285   1.714   4.630  11.868
12553SOL     OW49286   1.242   4.223   1.966
12553SOL    HW149287   1.189   4.188   1.895
12553SOL    HW249288   1.266   4.311   1.938
12554SOL     OW49289   0.091   0.615  11.320
12554SOL    HW149290   0.077   0.684  11.255
12554SOL    HW249291   0.187   0.605  11.324
12555SOL     OW49292   3.715   0.909  22.926
12555SOL    HW149293   3.721   0.997  22.888
12555SOL    HW249294   3.759   0.916  23.010
12556SOL     OW49295   4.587   3.765   2.014
12556SOL    HW149296   4.663   3.788   2.067
12556SOL    HW249297   4.559   3.680   2.048
12557SOL     OW49298   3.004   1.353  26.301
12557SOL    HW149299   2.946   1.426  26.325
12557SOL    HW249300   2.953   1.275  26.321
12558SOL     OW49301   2.052   0.411  26.273
12558SOL    HW149302   2.064   0.324  26.312
12558SOL    HW249303   1.957   0.421  26.266
12559SOL     OW49304   1.148   0.662   1.859
12559SOL    HW149305   1.084   0.729   1.837
12559SOL    HW249306   1.179   0.630   1.774
12560SOL     OW49307   3.654   0.430   7.406
12560SOL    HW149308   3.694   0.344   7.393
12560SOL    HW249309   3.705   0.470   7.476
12561SOL     OW49310   1.757   2.355   0.911
12561SOL    HW149311   1.682   2.394   0.956
12561SOL    HW249312   1.814   2.429   0.891
12562SOL     OW49313   0.153   2.510  20.390
12562SOL    HW149314   0.074   2.468  20.357
12562SOL    HW249315   0.153   2.597  20.351
12563SOL     OW49316   0.556   3.142   7.738
12563SOL    HW149317   0.516   3.198   7.804
12563SOL    HW249318   0.564   3.199   7.661
12564SOL     OW49319   3.254   0.171   7.715
12564SOL    HW149320   3.163   0.171   7.687
12564SOL    HW249321   3.304   0.151   7.636
12565SOL     OW49322   1.341   0.536  10.428
12565SOL    HW149323   1.302   0.623  10.429
12565SOL    HW249324   1.326   0.503  10.339
12566SOL     OW49325   2.184   1.573   5.130
12566SOL    HW149326   2.251   1.556   5.064
12566SOL    HW249327   2.110   1.610   5.081
12567SOL     OW49328   2.760   4.544  27.356
12567SOL    HW149329   2.701   4.481  27.314
12567SOL    HW249330   2.781   4.607  27.287
12568SOL     OW49331   0.230   2.417   8.738
12568SOL    HW149332   0.190   2.503   8.748
12568SOL    HW249333   0.157   2.358   8.721
12569SOL     OW49334   0.688   3.955  26.198
12569SOL    HW149335   0.730   3.957  26.112
12569SOL    HW249336   0.595   3.941  26.178
12570SOL     OW49337   4.711   2.646  26.386
12570SOL    HW149338   0.023   2.625  26.401
12570SOL    HW249339   4.712   2.738  26.361
12571SOL     OW49340   0.601   4.390  25.333
12571SOL    HW149341   0.582   4.474  25.376
12571SOL    HW249342   0.549   4.327  25.383
12572SOL     OW49343   0.935   4.324  22.491
12572SOL    HW149344   0.924   4.239  22.535
12572SOL    HW249345   0.873   4.321  22.418
12573SOL     OW49346   4.582   4.141  27.107
12573SOL    HW149347   4.592   4.223  27.058
12573SOL    HW249348   4.646   4.147  27.177
12574SOL     OW49349   2.576   4.561  21.680
12574SOL    HW149350   2.484   4.568  21.655
12574SOL    HW249351   2.599   4.649  21.712
12575SOL     OW49352   3.686   3.162   4.719
12575SOL    HW149353   3.593   3.179   4.735
12575SOL    HW249354   3.725   3.160   4.807
12576SOL     OW49355   4.647   1.789   6.482
12576SOL    HW149356   4.611   1.875   6.460
12576SOL    HW249357   4.609   1.730   6.416
12577SOL     OW49358   3.363   3.959   3.673
12577SOL    HW149359   3.372   3.991   3.763
12577SOL    HW249360   3.376   3.865   3.680
12578SOL     OW49361   3.150   0.846   8.775
12578SOL    HW149362   3.087   0.915   8.757
12578SOL    HW249363   3.236   0.886   8.759
12579SOL     OW49364   1.326   1.707  25.493
12579SOL    HW149365   1.239   1.716  25.455
12579SOL    HW249366   1.335   1.781  25.553
12580SOL     OW49367   2.799   1.687   1.977
12580SOL    HW149368   2.776   1.594   1.977
12580SOL    HW249369   2.760   1.721   2.058
12581SOL     OW49370   4.165   3.978  24.583
12581SOL    HW149371   4.239   4.003  24.528
12581SOL    HW249372   4.194   3.899  24.628
12582SOL     OW49373   4.497   0.746  25.616
12582SOL    HW149374   4.450   0.823  25.582
12582SOL    HW249375   4.588   0.776  25.625
12583SOL     OW49376   2.137   0.397   3.938
12583SOL    HW149377   2.187   0.465   3.982
12583SOL    HW249378   2.113   0.434   3.853
12584SOL     OW49379   2.622   1.282  20.996
12584SOL    HW149380   2.579   1.250  21.076
12584SOL    HW249381   2.658   1.203  20.956
12585SOL     OW49382   1.142   4.037   3.023
12585SOL    HW149383   1.228   4.000   3.002
12585SOL    HW249384   1.146   4.127   2.991
12586SOL     OW49385   4.153   4.557   8.369
12586SOL    HW149386   4.171   4.497   8.297
12586SOL    HW249387   4.235   4.603   8.384
12587SOL     OW49388   2.806   1.568   1.127
12587SOL    HW149389   2.801   1.663   1.117
12587SOL    HW249390   2.782   1.552   1.218
12588SOL     OW49391   3.831   2.409   8.452
12588SOL    HW149392   3.748   2.456   8.464
12588SOL    HW249393   3.813   2.320   8.481
12589SOL     OW49394   2.503   1.428  18.275
12589SOL    HW149395   2.505   1.333  18.284
12589SOL    HW249396   2.578   1.448  18.218
12590SOL     OW49397   1.373   3.276   3.920
12590SOL    HW149398   1.457   3.292   3.962
12590SOL    HW249399   1.380   3.187   3.885
12591SOL     OW49400   1.189   1.531   6.973
12591SOL    HW149401   1.142   1.559   7.052
12591SOL    HW249402   1.236   1.452   7.000
12592SOL     OW49403   0.793   4.104  27.189
12592SOL    HW149404   0.815   4.016  27.221
12592SOL    HW249405   0.700   4.113  27.208
12593SOL     OW49406   2.293   2.073   3.757
12593SOL    HW149407   2.370   2.058   3.812
12593SOL    HW249408   2.322   2.049   3.669
12594SOL     OW49409   0.266   0.446  26.906
12594SOL    HW149410   0.188   0.408  26.947
12594SOL    HW249411   0.240   0.461  26.815
12595SOL     OW49412   3.565   1.050  22.606
12595SOL    HW149413   3.619   0.975  22.583
12595SOL    HW249414   3.605   1.124  22.561
12596SOL     OW49415   0.123   1.282  18.780
12596SOL    HW149416   0.050   1.223  18.799
12596SOL    HW249417   0.178   1.233  18.719
12597SOL     OW49418   4.260   0.094  26.543
12597SOL    HW149419   4.205   0.033  26.495
12597SOL    HW249420   4.293   0.154  26.476
12598SOL     OW49421   1.218   0.384   9.584
12598SOL    HW149422   1.198   0.291   9.570
12598SOL    HW249423   1.145   0.430   9.543
12599SOL     OW49424   1.849   1.210   1.289
12599SOL    HW149425   1.814   1.209   1.378
12599SOL    HW249426   1.773   1.233   1.235
12600SOL     OW49427   2.003   0.310   7.520
12600SOL    HW149428   1.920   0.287   7.562
12600SOL    HW249429   2.051   0.357   7.588
12601SOL     OW49430   2.156   3.888   3.202
12601SOL    HW149431   2.065   3.879   3.229
12601SOL    HW249432   2.205   3.898   3.284
12602SOL     OW49433   2.820   4.175  27.995
12602SOL    HW149434   2.759   4.248  27.992
12602SOL    HW249435   2.828   4.146  27.904
12603SOL     OW49436   2.529   2.027   2.915
12603SOL    HW149437   2.617   1.991   2.923
12603SOL    HW249438   2.498   1.995   2.830
12604SOL     OW49439   4.768   2.773   7.035
12604SOL    HW149440   0.020   2.829   7.105
12604SOL    HW249441   4.767   2.685   7.072
12605SOL     OW49442   0.701   3.815   4.280
12605SOL    HW149443   0.704   3.720   4.265
12605SOL    HW249444   0.609   3.838   4.273
12606SOL     OW49445   2.069   3.065  27.774
12606SOL    HW149446   2.141   3.087  27.833
12606SOL    HW249447   2.076   2.970  27.761
12607SOL     OW49448   3.670   3.124   4.213
12607SOL    HW149449   3.581   3.114   4.178
12607SOL    HW249450   3.659   3.174   4.294
12608SOL     OW49451   2.938   2.171  24.521
12608SOL    HW149452   2.936   2.236  24.591
12608SOL    HW249453   2.856   2.184  24.474
12609SOL     OW49454   0.341   2.262   8.439
12609SOL    HW149455   0.433   2.281   8.457
12609SOL    HW249456   0.293   2.331   8.483
12610SOL     OW49457   1.514   0.178  20.074
12610SOL    HW149458   1.582   0.111  20.076
12610SOL    HW249459   1.490   0.185  19.981
12611SOL     OW49460   1.437   4.466   8.352
12611SOL    HW149461   1.511   4.421   8.310
12611SOL    HW249462   1.412   4.408   8.424
12612SOL     OW49463   1.793   0.351  20.951
12612SOL    HW149464   1.797   0.324  21.043
12612SOL    HW249465   1.805   0.270  20.902
12613SOL     OW49466   3.849   3.312   3.195
12613SOL    HW149467   3.827   3.245   3.131
12613SOL    HW249468   3.826   3.395   3.152
12614SOL     OW49469   1.530   2.941  22.657
12614SOL    HW149470   1.485   2.857  22.665
12614SOL    HW249471   1.460   3.006  22.660
12615SOL     OW49472   0.821   1.941  22.431
12615SOL    HW149473   0.893   1.922  22.371
12615SOL    HW249474   0.747   1.961  22.373
12616SOL     OW49475   2.181   3.933  10.825
12616SOL    HW149476   2.259   3.887  10.792
12616SOL    HW249477   2.201   3.950  10.917
12617SOL     OW49478   3.571   0.810  27.389
12617SOL    HW149479   3.532   0.884  27.343
12617SOL    HW249480   3.539   0.818  27.479
12618SOL     OW49481   4.205   1.304   2.000
12618SOL    HW149482   4.235   1.321   1.911
12618SOL    HW249483   4.210   1.389   2.044
12619SOL     OW49484   2.046   4.412  24.625
12619SOL    HW149485   2.057   4.506  24.612
12619SOL    HW249486   1.996   4.404  24.706
12620SOL     OW49487   0.268   2.528   6.801
12620SOL    HW149488   0.233   2.440   6.789
12620SOL    HW249489   0.340   2.534   6.738
12621SOL     OW49490   4.147   3.059   2.540
12621SOL    HW149491   4.076   3.006   2.502
12621SOL    HW249492   4.178   3.008   2.615
12622SOL     OW49493   4.769   0.455  26.626
12622SOL    HW149494   4.683   0.419  26.604
12622SOL    HW249495   4.771   0.539  26.580
12623SOL     OW49496   2.650   1.051   4.989
12623SOL    HW149497   2.703   0.971   4.995
12623SOL    HW249498   2.713   1.121   4.971
12624SOL     OW49499   2.995   1.786  18.690
12624SOL    HW149500   2.918   1.783  18.634
12624SOL    HW249501   2.978   1.859  18.750
12625SOL     OW49502   4.193   3.023  23.429
12625SOL    HW149503   4.180   2.933  23.460
12625SOL    HW249504   4.115   3.043  23.378
12626SOL     OW49505   3.899   1.779  23.511
12626SOL    HW149506   3.926   1.712  23.448
12626SOL    HW249507   3.817   1.746  23.547
12627SOL     OW49508   0.905   1.721   9.459
12627SOL    HW149509   0.906   1.632   9.494
12627SOL    HW249510   0.938   1.775   9.531
12628SOL     OW49511   4.163   3.452   5.289
12628SOL    HW149512   4.185   3.362   5.263
12628SOL    HW249513   4.208   3.465   5.372
12629SOL     OW49514   3.350   4.107   0.209
12629SOL    HW149515   3.271   4.054   0.204
12629SOL    HW249516   3.412   4.055   0.260
12630SOL     OW49517   0.522   0.184   4.978
12630SOL    HW149518   0.431   0.198   5.004
12630SOL    HW249519   0.520   0.103   4.926
12631SOL     OW49520   1.478   4.177  26.387
12631SOL    HW149521   1.535   4.154  26.461
12631SOL    HW249522   1.431   4.096  26.367
12632SOL     OW49523   2.364   1.296   9.232
12632SOL    HW149524   2.331   1.386   9.237
12632SOL    HW249525   2.444   1.297   9.284
12633SOL     OW49526   1.277   1.672  21.355
12633SOL    HW149527   1.299   1.588  21.394
12633SOL    HW249528   1.220   1.651  21.282
12634SOL     OW49529   1.546   4.196  17.457
12634SOL    HW149530   1.568   4.218  17.548
12634SOL    HW249531   1.597   4.258  17.405
12635SOL     OW49532   3.684   3.051  24.783
12635SOL    HW149533   3.656   3.090  24.866
12635SOL    HW249534   3.608   3.061  24.725
12636SOL     OW49535   3.590   3.090   1.115
12636SOL    HW149536   3.658   3.151   1.088
12636SOL    HW249537   3.617   3.061   1.203
12637SOL     OW49538   2.109   0.218   8.775
12637SOL    HW149539   2.125   0.241   8.684
12637SOL    HW249540   2.084   0.126   8.772
12638SOL     OW49541   3.588   1.047   7.991
12638SOL    HW149542   3.585   1.112   8.061
12638SOL    HW249543   3.656   0.986   8.019
12639SOL     OW49544   3.017   1.409  27.467
12639SOL    HW149545   2.928   1.444  27.459
12639SOL    HW249546   3.061   1.468  27.527
12640SOL     OW49547   3.247   4.205  20.633
12640SOL    HW149548   3.155   4.225  20.613
12640SOL    HW249549   3.286   4.290  20.654
12641SOL     OW49550   2.690   2.085   2.577
12641SOL    HW149551   2.781   2.114   2.573
12641SOL    HW249552   2.639   2.166   2.582
12642SOL     OW49553   2.388   0.621   5.426
12642SOL    HW149554   2.417   0.665   5.506
12642SOL    HW249555   2.379   0.691   5.361
12643SOL     OW49556   1.241   2.564  21.604
12643SOL    HW149557   1.229   2.624  21.531
12643SOL    HW249558   1.153   2.549  21.638
12644SOL     OW49559   0.771   2.528  12.019
12644SOL    HW149560   0.821   2.601  12.057
12644SOL    HW249561   0.680   2.547  12.041
12645SOL     OW49562   3.743   2.884  24.381
12645SOL    HW149563   3.799   2.955  24.348
12645SOL    HW249564   3.670   2.880  24.320
12646SOL     OW49565   2.763   0.045   3.535
12646SOL    HW149566   2.714   0.081   3.608
12646SOL    HW249567   2.817   4.756   3.573
12647SOL     OW49568   1.526   3.376   4.601
12647SOL    HW149569   1.498   3.323   4.526
12647SOL    HW249570   1.612   3.340   4.625
12648SOL     OW49571   0.032   2.373   7.520
12648SOL    HW149572   0.009   2.454   7.565
12648SOL    HW249573   0.033   2.397   7.427
12649SOL     OW49574   3.619   4.347   7.386
12649SOL    HW149575   3.553   4.404   7.426
12649SOL    HW249576   3.569   4.272   7.355
12650SOL     OW49577   2.604   3.966   7.092
12650SOL    HW149578   2.696   3.990   7.080
12650SOL    HW249579   2.556   4.028   7.037
12651SOL     OW49580   0.718   1.619   0.279
12651SOL    HW149581   0.792   1.560   0.291
12651SOL    HW249582   0.756   1.699   0.244
12652SOL     OW49583   0.653   4.761   8.607
12652SOL    HW149584   0.612   4.745   8.522
12652SOL    HW249585   0.599   4.712   8.669
12653SOL     OW49586   3.276   1.722  27.889
12653SOL    HW149587   3.353   1.771  27.859
12653SOL    HW249588   3.230   1.783  27.946
12654SOL     OW49589   2.816   2.588  20.423
12654SOL    HW149590   2.780   2.565  20.338
12654SOL    HW249591   2.907   2.613  20.404
12655SOL     OW49592   0.826   4.658   3.324
12655SOL    HW149593   0.873   4.575   3.324
12655SOL    HW249594   0.879   4.715   3.380
12656SOL     OW49595   3.738   3.308  20.303
12656SOL    HW149596   3.828   3.286  20.328
12656SOL    HW249597   3.684   3.245  20.352
12657SOL     OW49598   3.813   2.397   0.962
12657SOL    HW149599   3.851   2.473   0.920
12657SOL    HW249600   3.885   2.335   0.970
12658SOL     OW49601   0.742   0.707   3.806
12658SOL    HW149602   0.722   0.791   3.846
12658SOL    HW249603   0.657   0.672   3.780
12659SOL     OW49604   4.168   4.101  21.680
12659SOL    HW149605   4.247   4.147  21.652
12659SOL    HW249606   4.184   4.009  21.657
12660SOL     OW49607   0.987   3.826  20.551
12660SOL    HW149608   1.038   3.809  20.472
12660SOL    HW249609   0.954   3.915  20.540
12661SOL     OW49610   0.506   4.730   4.526
12661SOL    HW149611   0.521   4.681   4.607
12661SOL    HW249612   0.528   4.668   4.456
12662SOL     OW49613   3.090   2.270  18.737
12662SOL    HW149614   2.996   2.251  18.732
12662SOL    HW249615   3.118   2.281  18.646
12663SOL     OW49616   0.046   0.409   6.675
12663SOL    HW149617   4.758   0.372   6.620
12663SOL    HW249618   0.087   0.477   6.621
12664SOL     OW49619   3.191   0.016  28.417
12664SOL    HW149620   3.151   0.052  28.338
12664SOL    HW249621   3.208   4.705  28.396
12665SOL     OW49622   4.626   3.225   0.630
12665SOL    HW149623   4.569   3.153   0.601
12665SOL    HW249624   4.650   3.270   0.549
12666SOL     OW49625   1.162   2.930  24.967
12666SOL    HW149626   1.129   2.885  24.888
12666SOL    HW249627   1.098   2.907  25.035
12667SOL     OW49628   0.178   1.267  23.295
12667SOL    HW149629   0.205   1.357  23.311
12667SOL    HW249630   0.115   1.273  23.223
12668SOL     OW49631   2.151   2.834  28.425
12668SOL    HW149632   2.071   2.885  28.436
12668SOL    HW249633   2.134   2.753  28.473
12669SOL     OW49634   1.905   0.179   6.094
12669SOL    HW149635   1.973   0.181   6.026
12669SOL    HW249636   1.860   0.263   6.084
12670SOL     OW49637   0.295   0.093  26.865
12670SOL    HW149638   0.220   0.142  26.831
12670SOL    HW249639   0.293   0.011  26.816
12671SOL     OW49640   3.451   0.747  20.964
12671SOL    HW149641   3.459   0.712  21.052
12671SOL    HW249642   3.443   0.669  20.908
12672SOL     OW49643   0.598   1.675  24.734
12672SOL    HW149644   0.644   1.591  24.730
12672SOL    HW249645   0.655   1.730  24.788
12673SOL     OW49646   4.300   0.956   2.359
12673SOL    HW149647   4.238   1.027   2.342
12673SOL    HW249648   4.310   0.912   2.274
12674SOL     OW49649   4.542   4.091  24.828
12674SOL    HW149650   4.619   4.068  24.776
12674SOL    HW249651   4.516   4.178  24.798
12675SOL     OW49652   3.222   2.269   1.132
12675SOL    HW149653   3.132   2.304   1.130
12675SOL    HW249654   3.245   2.259   1.039
12676SOL     OW49655   4.421   4.553   2.380
12676SOL    HW149656   4.375   4.636   2.393
12676SOL    HW249657   4.372   4.510   2.310
12677SOL     OW49658   2.337   0.217   5.244
12677SOL    HW149659   2.313   0.290   5.186
12677SOL    HW249660   2.254   0.191   5.284
12678SOL     OW49661   2.853   3.672   5.868
12678SOL    HW149662   2.768   3.635   5.893
12678SOL    HW249663   2.918   3.611   5.905
12679SOL     OW49664   3.210   0.423  24.858
12679SOL    HW149665   3.125   0.409  24.898
12679SOL    HW249666   3.195   0.494  24.794
12680SOL     OW49667   1.866   2.737   2.576
12680SOL    HW149668   1.927   2.802   2.610
12680SOL    HW249669   1.916   2.655   2.576
12681SOL     OW49670   0.272   2.678  17.294
12681SOL    HW149671   0.212   2.732  17.345
12681SOL    HW249672   0.353   2.729  17.290
12682SOL     OW49673   1.618   2.143  17.589
12682SOL    HW149674   1.525   2.142  17.566
12682SOL    HW249675   1.663   2.152  17.504
12683SOL     OW49676   0.474   1.966  22.473
12683SOL    HW149677   0.451   1.896  22.534
12683SOL    HW249678   0.466   1.927  22.387
12684SOL     OW49679   1.595   4.115   6.922
12684SOL    HW149680   1.660   4.049   6.945
12684SOL    HW249681   1.563   4.148   7.006
12685SOL     OW49682   2.820   0.630   9.355
12685SOL    HW149683   2.908   0.594   9.372
12685SOL    HW249684   2.815   0.708   9.409
12686SOL     OW49685   0.353   3.749  20.369
12686SOL    HW149686   0.284   3.699  20.326
12686SOL    HW249687   0.372   3.821  20.308
12687SOL     OW49688   2.844   3.081   6.923
12687SOL    HW149689   2.834   3.011   6.988
12687SOL    HW249690   2.783   3.056   6.852
12688SOL     OW49691   4.076   0.984  23.240
12688SOL    HW149692   4.164   0.950  23.225
12688SOL    HW249693   4.073   1.066  23.191
12689SOL     OW49694   4.049   4.427  26.761
12689SOL    HW149695   4.039   4.426  26.666
12689SOL    HW249696   4.141   4.405  26.776
12690SOL     OW49697   0.223   3.453  22.141
12690SOL    HW149698   0.247   3.396  22.215
12690SOL    HW249699   0.240   3.400  22.063
12691SOL     OW49700   0.207   2.101   8.742
12691SOL    HW149701   0.114   2.107   8.723
12691SOL    HW249702   0.218   2.143   8.827
12692SOL     OW49703   4.482   3.048  25.387
12692SOL    HW149704   4.464   3.137  25.359
12692SOL    HW249705   4.400   3.017  25.426
12693SOL     OW49706   4.478   1.961  18.133
12693SOL    HW149707   4.459   1.871  18.106
12693SOL    HW249708   4.509   1.952  18.223
12694SOL     OW49709   1.385   2.572  22.968
12694SOL    HW149710   1.300   2.595  23.004
12694SOL    HW249711   1.448   2.618  23.025
12695SOL     OW49712   3.739   2.421  26.834
12695SOL    HW149713   3.724   2.423  26.740
12695SOL    HW249714   3.826   2.459  26.846
12696SOL     OW49715   4.157   3.467  25.676
12696SOL    HW149716   4.234   3.455  25.621
12696SOL    HW249717   4.168   3.404  25.748
12697SOL     OW49718   1.457   1.223   4.144
12697SOL    HW149719   1.420   1.282   4.078
12697SOL    HW249720   1.546   1.205   4.112
12698SOL     OW49721   4.046   1.071  20.099
12698SOL    HW149722   4.070   1.151  20.146
12698SOL    HW249723   3.993   1.101  20.026
12699SOL     OW49724   3.730   3.088  27.329
12699SOL    HW149725   3.709   3.133  27.247
12699SOL    HW249726   3.811   3.130  27.359
12700SOL     OW49727   1.339   1.762   7.585
12700SOL    HW149728   1.257   1.804   7.557
12700SOL    HW249729   1.331   1.672   7.553
12701SOL     OW49730   2.295   3.787   2.972
12701SOL    HW149731   2.255   3.815   3.054
12701SOL    HW249732   2.239   3.716   2.941
12702SOL     OW49733   1.354   3.938  26.218
12702SOL    HW149734   1.410   3.861  26.217
12702SOL    HW249735   1.300   3.928  26.296
12703SOL     OW49736   1.173   0.222  26.932
12703SOL    HW149737   1.189   0.255  27.020
12703SOL    HW249738   1.104   0.157  26.942
12704SOL     OW49739   2.483   2.671  10.549
12704SOL    HW149740   2.572   2.673  10.515
12704SOL    HW249741   2.438   2.604  10.497
12705SOL     OW49742   4.558   0.629   4.556
12705SOL    HW149743   4.481   0.577   4.535
12705SOL    HW249744   4.586   0.666   4.472
12706SOL     OW49745   3.022   0.095  26.475
12706SOL    HW149746   2.981   0.023  26.524
12706SOL    HW249747   3.102   0.057  26.439
12707SOL     OW49748   4.728   0.958   2.899
12707SOL    HW149749   4.706   0.991   2.986
12707SOL    HW249750   4.777   1.029   2.858
12708SOL     OW49751   2.587   0.309   0.767
12708SOL    HW149752   2.659   0.298   0.705
12708SOL    HW249753   2.630   0.321   0.851
12709SOL     OW49754   3.307   2.720   2.642
12709SOL    HW149755   3.393   2.710   2.601
12709SOL    HW249756   3.262   2.785   2.588
12710SOL     OW49757   4.242   0.232   7.292
12710SOL    HW149758   4.179   0.193   7.232
12710SOL    HW249759   4.189   0.291   7.347
12711SOL     OW49760   2.038   2.394   6.056
12711SOL    HW149761   2.069   2.419   5.969
12711SOL    HW249762   1.947   2.424   6.058
12712SOL     OW49763   2.947   0.475  28.053
12712SOL    HW149764   2.993   0.515  27.980
12712SOL    HW249765   2.971   0.529  28.129
12713SOL     OW49766   4.481   2.308  20.464
12713SOL    HW149767   4.480   2.215  20.487
12713SOL    HW249768   4.392   2.325  20.432
12714SOL     OW49769   4.418   1.839  26.914
12714SOL    HW149770   4.397   1.888  26.993
12714SOL    HW249771   4.495   1.883  26.878
12715SOL     OW49772   1.286   3.744  27.417
12715SOL    HW149773   1.365   3.794  27.437
12715SOL    HW249774   1.295   3.721  27.325
12716SOL     OW49775   0.182   0.291  19.561
12716SOL    HW149776   0.160   0.198  19.560
12716SOL    HW249777   0.277   0.294  19.569
12717SOL     OW49778   3.975   1.245   5.885
12717SOL    HW149779   3.943   1.284   5.966
12717SOL    HW249780   3.919   1.281   5.816
12718SOL     OW49781   1.072   4.082   5.880
12718SOL    HW149782   1.016   4.155   5.853
12718SOL    HW249783   1.023   4.039   5.950
12719SOL     OW49784   2.022   1.411   1.671
12719SOL    HW149785   1.992   1.490   1.716
12719SOL    HW249786   2.055   1.442   1.587
12720SOL     OW49787   2.231   4.623   7.433
12720SOL    HW149788   2.168   4.553   7.451
12720SOL    HW249789   2.193   4.700   7.475
12721SOL     OW49790   1.500   1.298  22.556
12721SOL    HW149791   1.459   1.266  22.637
12721SOL    HW249792   1.454   1.380  22.537
12722SOL     OW49793   1.516   1.822   3.938
12722SOL    HW149794   1.511   1.844   3.845
12722SOL    HW249795   1.465   1.890   3.982
12723SOL     OW49796   3.262   1.866   4.797
12723SOL    HW149797   3.303   1.780   4.794
12723SOL    HW249798   3.205   1.863   4.873
12724SOL     OW49799   1.781   2.231  22.311
12724SOL    HW149800   1.762   2.159  22.371
12724SOL    HW249801   1.731   2.305  22.344
12725SOL     OW49802   4.002   4.221  28.066
12725SOL    HW149803   4.088   4.189  28.038
12725SOL    HW249804   3.971   4.156  28.128
12726SOL     OW49805   4.517   1.086  25.488
12726SOL    HW149806   4.483   1.077  25.577
12726SOL    HW249807   4.590   1.148  25.496
12727SOL     OW49808   0.644   2.088  22.273
12727SOL    HW149809   0.615   2.178  22.290
12727SOL    HW249810   0.734   2.097  22.243
12728SOL     OW49811   2.389   1.187  22.617
12728SOL    HW149812   2.478   1.189  22.653
12728SOL    HW249813   2.373   1.277  22.589
12729SOL     OW49814   1.465   3.773  25.872
12729SOL    HW149815   1.411   3.714  25.924
12729SOL    HW249816   1.409   3.796  25.797
12730SOL     OW49817   1.900   0.347  26.049
12730SOL    HW149818   1.849   0.283  26.099
12730SOL    HW249819   1.985   0.348  26.092
12731SOL     OW49820   0.119   4.254   8.391
12731SOL    HW149821   0.103   4.325   8.330
12731SOL    HW249822   0.215   4.246   8.393
12732SOL     OW49823   2.510   1.171  21.227
12732SOL    HW149824   2.596   1.167  21.270
12732SOL    HW249825   2.457   1.226  21.285
12733SOL     OW49826   0.815   3.837   6.551
12733SOL    HW149827   0.777   3.797   6.473
12733SOL    HW249828   0.891   3.886   6.519
12734SOL     OW49829   2.658   1.626   5.331
12734SOL    HW149830   2.578   1.677   5.342
12734SOL    HW249831   2.627   1.538   5.307
12735SOL     OW49832   1.347   1.863  26.415
12735SOL    HW149833   1.392   1.802  26.473
12735SOL    HW249834   1.258   1.868  26.450
12736SOL     OW49835   1.741   2.764   1.525
12736SOL    HW149836   1.778   2.678   1.546
12736SOL    HW249837   1.809   2.827   1.547
12737SOL     OW49838   2.611   0.356   3.304
12737SOL    HW149839   2.628   0.367   3.397
12737SOL    HW249840   2.671   0.287   3.276
12738SOL     OW49841   0.891   1.465   0.833
12738SOL    HW149842   0.798   1.447   0.827
12738SOL    HW249843   0.918   1.425   0.916
12739SOL     OW49844   3.744   0.900   7.734
12739SOL    HW149845   3.821   0.926   7.683
12739SOL    HW249846   3.778   0.875   7.820
12740SOL     OW49847   2.662   3.079  24.528
12740SOL    HW149848   2.705   3.078  24.614
12740SOL    HW249849   2.590   3.016  24.537
12741SOL     OW49850   4.407   3.091   4.865
12741SOL    HW149851   4.356   3.087   4.784
12741SOL    HW249852   4.428   3.184   4.876
12742SOL     OW49853   3.051   0.745   5.982
12742SOL    HW149854   3.128   0.790   5.947
12742SOL    HW249855   3.034   0.674   5.919
12743SOL     OW49856   3.403   0.287   3.744
12743SOL    HW149857   3.401   0.280   3.648
12743SOL    HW249858   3.374   0.201   3.775
12744SOL     OW49859   1.506   4.368  19.611
12744SOL    HW149860   1.587   4.364  19.560
12744SOL    HW249861   1.534   4.401  19.697
12745SOL     OW49862   2.439   4.328  26.296
12745SOL    HW149863   2.417   4.344  26.204
12745SOL    HW249864   2.507   4.261  26.293
12746SOL     OW49865   0.263   3.185   7.176
12746SOL    HW149866   0.342   3.150   7.137
12746SOL    HW249867   0.195   3.173   7.109
12747SOL     OW49868   0.483   1.248   0.398
12747SOL    HW149869   0.553   1.255   0.463
12747SOL    HW249870   0.509   1.306   0.327
12748SOL     OW49871   4.014   3.858   3.156
12748SOL    HW149872   4.088   3.856   3.095
12748SOL    HW249873   3.938   3.840   3.102
12749SOL     OW49874   0.773   2.921   6.704
12749SOL    HW149875   0.699   2.863   6.686
12749SOL    HW249876   0.847   2.880   6.661
12750SOL     OW49877   1.675   4.128   5.516
12750SOL    HW149878   1.708   4.039   5.523
12750SOL    HW249879   1.650   4.151   5.606
12751SOL     OW49880   0.665   4.609   3.078
12751SOL    HW149881   0.750   4.624   3.119
12751SOL    HW249882   0.673   4.649   2.991
12752SOL     OW49883   0.005   4.037  22.079
12752SOL    HW149884   4.759   4.105  22.017
12752SOL    HW249885   4.735   3.960  22.054
12753SOL     OW49886   3.527   1.511   0.976
12753SOL    HW149887   3.465   1.542   0.910
12753SOL    HW249888   3.483   1.437   1.017
12754SOL     OW49889   0.665   4.596   4.304
12754SOL    HW149890   0.576   4.561   4.304
12754SOL    HW249891   0.721   4.522   4.281
12755SOL     OW49892   0.850   2.512   0.547
12755SOL    HW149893   0.914   2.464   0.495
12755SOL    HW249894   0.859   2.476   0.635
12756SOL     OW49895   4.703   4.621   0.515
12756SOL    HW149896   4.670   4.596   0.429
12756SOL    HW249897   4.770   4.687   0.497
12757SOL     OW49898   2.660   2.789   3.362
12757SOL    HW149899   2.740   2.746   3.334
12757SOL    HW249900   2.681   2.826   3.448
12758SOL     OW49901   2.295   1.830  10.856
12758SOL    HW149902   2.390   1.816  10.846
12758SOL    HW249903   2.286   1.878  10.938
12759SOL     OW49904   4.391   3.996  11.076
12759SOL    HW149905   4.441   3.919  11.048
12759SOL    HW249906   4.322   3.961  11.132
12760SOL     OW49907   3.594   0.386  10.304
12760SOL    HW149908   3.570   0.479  10.306
12760SOL    HW249909   3.685   0.385  10.332
12761SOL     OW49910   4.415   4.284   3.319
12761SOL    HW149911   4.327   4.314   3.340
12761SOL    HW249912   4.415   4.273   3.224
12762SOL     OW49913   2.124   4.002   8.604
12762SOL    HW149914   2.031   3.998   8.584
12762SOL    HW249915   2.131   4.072   8.669
12763SOL     OW49916   4.044   2.000  21.458
12763SOL    HW149917   4.071   2.088  21.431
12763SOL    HW249918   4.118   1.966  21.508
12764SOL     OW49919   1.445   4.137   4.792
12764SOL    HW149920   1.430   4.115   4.884
12764SOL    HW249921   1.536   4.111   4.777
12765SOL     OW49922   2.933   0.181   7.565
12765SOL    HW149923   2.897   0.104   7.523
12765SOL    HW249924   2.857   0.233   7.592
12766SOL     OW49925   3.846   4.017  27.128
12766SOL    HW149926   3.767   3.999  27.178
12766SOL    HW249927   3.893   3.933  27.127
12767SOL     OW49928   3.197   4.040  23.484
12767SOL    HW149929   3.250   4.107  23.442
12767SOL    HW249930   3.227   4.040  23.575
12768SOL     OW49931   2.487   4.011   8.945
12768SOL    HW149932   2.492   4.059   8.862
12768SOL    HW249933   2.411   3.953   8.934
12769SOL     OW49934   3.328   1.994   8.400
12769SOL    HW149935   3.383   1.923   8.367
12769SOL    HW249936   3.382   2.073   8.390
12770SOL     OW49937   3.019   1.062  21.622
12770SOL    HW149938   2.958   1.124  21.663
12770SOL    HW249939   3.105   1.099  21.641
12771SOL     OW49940   2.042   4.384   5.672
12771SOL    HW149941   2.123   4.344   5.641
12771SOL    HW249942   1.982   4.310   5.684
12772SOL     OW49943   1.031   4.482  21.742
12772SOL    HW149944   1.099   4.547  21.722
12772SOL    HW249945   1.018   4.435  21.659
12773SOL     OW49946   3.596   4.020  28.252
12773SOL    HW149947   3.598   3.981  28.339
12773SOL    HW249948   3.568   3.949  28.194
12774SOL     OW49949   2.596   2.154  10.275
12774SOL    HW149950   2.542   2.153  10.196
12774SOL    HW249951   2.677   2.199  10.247
12775SOL     OW49952   1.736   3.137   8.561
12775SOL    HW149953   1.776   3.050   8.570
12775SOL    HW249954   1.731   3.170   8.651
12776SOL     OW49955   2.171   1.784  23.510
12776SOL    HW149956   2.086   1.813  23.478
12776SOL    HW249957   2.180   1.695  23.475
12777SOL     OW49958   3.281   3.787   4.519
12777SOL    HW149959   3.282   3.728   4.595
12777SOL    HW249960   3.364   3.835   4.525
12778SOL     OW49961   1.438   2.969  23.433
12778SOL    HW149962   1.466   2.941  23.346
12778SOL    HW249963   1.495   3.043  23.454
12779SOL     OW49964   0.152   0.307   8.891
12779SOL    HW149965   0.151   0.234   8.953
12779SOL    HW249966   0.221   0.285   8.829
12780SOL     OW49967   3.017   4.043   5.019
12780SOL    HW149968   3.057   3.956   5.020
12780SOL    HW249969   3.089   4.102   4.997
12781SOL     OW49970   3.517   1.298   4.220
12781SOL    HW149971   3.465   1.354   4.163
12781SOL    HW249972   3.468   1.216   4.224
12782SOL     OW49973   0.500   1.894   3.428
12782SOL    HW149974   0.434   1.937   3.482
12782SOL    HW249975   0.584   1.917   3.469
12783SOL     OW49976   0.749   4.654  10.434
12783SOL    HW149977   0.844   4.661  10.436
12783SOL    HW249978   0.728   4.597  10.509
12784SOL     OW49979   1.539   4.637   9.255
12784SOL    HW149980   1.597   4.624   9.331
12784SOL    HW249981   1.493   4.553   9.245
12785SOL     OW49982   0.166   1.931  11.244
12785SOL    HW149983   0.085   1.886  11.269
12785SOL    HW249984   0.213   1.944  11.326
12786SOL     OW49985   1.538   2.521  19.581
12786SOL    HW149986   1.557   2.604  19.538
12786SOL    HW249987   1.595   2.520  19.658
12787SOL     OW49988   2.186   3.091   4.244
12787SOL    HW149989   2.115   3.145   4.278
12787SOL    HW249990   2.143   3.028   4.185
12788SOL     OW49991   3.052   4.457   2.131
12788SOL    HW149992   2.980   4.419   2.081
12788SOL    HW249993   3.020   4.461   2.221
12789SOL     OW49994   2.783   3.906  24.104
12789SOL    HW149995   2.829   3.936  24.026
12789SOL    HW249996   2.852   3.867  24.159
12790SOL     OW49997   4.532   4.530  26.964
12790SOL    HW149998   4.443   4.495  26.975
12790SOL    HW249999   4.534   4.562  26.874
12791SOL     OW50000   0.224   4.314   9.418
12791SOL    HW150001   0.237   4.392   9.472
12791SOL    HW250002   0.130   4.312   9.401
12792SOL     OW50003   2.924   3.845  20.340
12792SOL    HW150004   2.932   3.801  20.255
12792SOL    HW250005   2.832   3.831  20.365
12793SOL     OW50006   3.750   3.285   7.216
12793SOL    HW150007   3.670   3.337   7.204
12793SOL    HW250008   3.814   3.347   7.251
12794SOL     OW50009   4.222   3.939   4.049
12794SOL    HW150010   4.142   3.925   3.999
12794SOL    HW250011   4.284   3.973   3.984
12795SOL     OW50012   3.759   2.124  26.811
12795SOL    HW150013   3.805   2.065  26.872
12795SOL    HW250014   3.760   2.209  26.854
12796SOL     OW50015   0.180   1.525  18.241
12796SOL    HW150016   0.265   1.537  18.283
12796SOL    HW250017   0.192   1.556  18.152
12797SOL     OW50018   4.008   1.075   9.825
12797SOL    HW150019   4.065   1.066   9.749
12797SOL    HW250020   4.036   1.006   9.885
12798SOL     OW50021   0.809   0.676  24.865
12798SOL    HW150022   0.898   0.658  24.895
12798SOL    HW250023   0.776   0.741  24.927
12799SOL     OW50024   0.567   0.706   8.421
12799SOL    HW150025   0.577   0.703   8.326
12799SOL    HW250026   0.657   0.700   8.455
12800SOL     OW50027   3.712   1.112  11.971
12800SOL    HW150028   3.731   1.133  12.062
12800SOL    HW250029   3.616   1.107  11.967
12801SOL     OW50030   1.252   4.539  19.341
12801SOL    HW150031   1.206   4.526  19.424
12801SOL    HW250032   1.192   4.503  19.275
12802SOL     OW50033   1.019   4.024   8.609
12802SOL    HW150034   1.088   3.959   8.600
12802SOL    HW250035   1.045   4.094   8.549
12803SOL     OW50036   1.311   1.669   4.997
12803SOL    HW150037   1.309   1.752   4.950
12803SOL    HW250038   1.224   1.662   5.037
12804SOL     OW50039   0.665   0.109  10.330
12804SOL    HW150040   0.691   0.184  10.384
12804SOL    HW250041   0.681   0.033  10.385
12805SOL     OW50042   4.045   3.048   3.414
12805SOL    HW150043   4.129   3.010   3.438
12805SOL    HW250044   4.015   3.092   3.494
12806SOL     OW50045   3.980   1.856  24.192
12806SOL    HW150046   3.940   1.820  24.113
12806SOL    HW250047   4.071   1.871  24.168
12807SOL     OW50048   2.862   4.101   5.304
12807SOL    HW150049   2.827   4.073   5.389
12807SOL    HW250050   2.957   4.095   5.314
12808SOL     OW50051   2.815   3.864   9.625
12808SOL    HW150052   2.884   3.904   9.571
12808SOL    HW250053   2.829   3.770   9.617
12809SOL     OW50054   3.243   4.133  21.389
12809SOL    HW150055   3.155   4.166  21.404
12809SOL    HW250056   3.231   4.061  21.327
12810SOL     OW50057   2.950   4.352  24.401
12810SOL    HW150058   2.883   4.389  24.344
12810SOL    HW250059   2.963   4.418  24.469
12811SOL     OW50060   0.033   1.934  24.067
12811SOL    HW150061   4.728   1.936  24.109
12811SOL    HW250062   0.053   2.025  24.049
12812SOL     OW50063   3.495   0.496  23.810
12812SOL    HW150064   3.513   0.508  23.903
12812SOL    HW250065   3.448   0.575  23.784
12813SOL     OW50066   0.892   1.375  27.069
12813SOL    HW150067   0.891   1.432  26.992
12813SOL    HW250068   0.801   1.373  27.099
12814SOL     OW50069   4.602   1.866  20.328
12814SOL    HW150070   4.626   1.941  20.382
12814SOL    HW250071   4.514   1.843  20.358
12815SOL     OW50072   4.379   3.091   0.964
12815SOL    HW150073   4.469   3.116   0.941
12815SOL    HW250074   4.389   3.016   1.023
12816SOL     OW50075   1.898   4.632   5.287
12816SOL    HW150076   1.864   4.564   5.228
12816SOL    HW250077   1.982   4.656   5.248
12817SOL     OW50078   3.970   3.328   4.428
12817SOL    HW150079   3.912   3.340   4.353
12817SOL    HW250080   3.926   3.373   4.500
12818SOL     OW50081   0.941   3.340  20.604
12818SOL    HW150082   0.860   3.369  20.561
12818SOL    HW250083   1.010   3.354  20.539
12819SOL     OW50084   0.017   0.628  28.379
12819SOL    HW150085   0.112   0.621  28.393
12819SOL    HW250086   0.003   0.582  28.296
12820SOL     OW50087   0.279   4.724   1.144
12820SOL    HW150088   0.225   4.699   1.219
12820SOL    HW250089   0.274   0.038   1.142
12821SOL     OW50090   1.842   1.284  24.694
12821SOL    HW150091   1.748   1.281  24.711
12821SOL    HW250092   1.880   1.323  24.772
12822SOL     OW50093   2.004   4.272  23.850
12822SOL    HW150094   1.933   4.211  23.869
12822SOL    HW250095   2.040   4.296  23.935
12823SOL     OW50096   2.042   0.395   6.415
12823SOL    HW150097   2.029   0.301   6.405
12823SOL    HW250098   1.960   0.427   6.451
12824SOL     OW50099   2.115   3.241   7.444
12824SOL    HW150100   2.127   3.335   7.431
12824SOL    HW250101   2.025   3.225   7.417
12825SOL     OW50102   4.259   2.896   3.246
12825SOL    HW150103   4.280   2.893   3.340
12825SOL    HW250104   4.218   2.812   3.228
12826SOL     OW50105   0.094   3.863   7.599
12826SOL    HW150106   0.146   3.865   7.518
12826SOL    HW250107   0.105   3.773   7.631
12827SOL     OW50108   4.189   1.206   6.855
12827SOL    HW150109   4.184   1.288   6.905
12827SOL    HW250110   4.196   1.138   6.921
12828SOL     OW50111   3.909   0.238   0.755
12828SOL    HW150112   3.834   0.292   0.780
12828SOL    HW250113   3.974   0.255   0.822
12829SOL     OW50114   1.883   3.076   5.594
12829SOL    HW150115   1.898   3.147   5.657
12829SOL    HW250116   1.834   3.010   5.643
12830SOL     OW50117   4.041   2.512  18.218
12830SOL    HW150118   4.075   2.455  18.286
12830SOL    HW250119   3.949   2.524  18.241
12831SOL     OW50120   3.989   3.517   5.868
12831SOL    HW150121   3.898   3.515   5.896
12831SOL    HW250122   4.033   3.571   5.934
12832SOL     OW50123   4.657   1.953  17.295
12832SOL    HW150124   4.665   1.869  17.250
12832SOL    HW250125   4.607   1.933  17.374
12833SOL     OW50126   1.479   3.918  21.965
12833SOL    HW150127   1.464   3.881  22.052
12833SOL    HW250128   1.441   4.006  21.970
12834SOL     OW50129   2.122   1.052   9.577
12834SOL    HW150130   2.102   0.961   9.556
12834SOL    HW250131   2.067   1.103   9.517
12835SOL     OW50132   3.379   1.164  12.159
12835SOL    HW150133   3.426   1.244  12.140
12835SOL    HW250134   3.394   1.108  12.083
12836SOL     OW50135   3.178   0.495  22.979
12836SOL    HW150136   3.191   0.433  23.051
12836SOL    HW250137   3.090   0.477  22.946
12837SOL     OW50138   1.014   3.349  21.307
12837SOL    HW150139   0.988   3.440  21.291
12837SOL    HW250140   0.998   3.336  21.401
12838SOL     OW50141   1.273   3.111  22.618
12838SOL    HW150142   1.272   3.183  22.555
12838SOL    HW250143   1.250   3.034  22.567
12839SOL     OW50144   0.589   3.256   9.085
12839SOL    HW150145   0.626   3.308   9.013
12839SOL    HW250146   0.665   3.232   9.138
12840SOL     OW50147   1.780   4.502  28.461
12840SOL    HW150148   1.807   4.415  28.492
12840SOL    HW250149   1.808   4.504  28.370
12841SOL     OW50150   4.228   0.182  24.320
12841SOL    HW150151   4.241   0.177  24.415
12841SOL    HW250152   4.250   0.094  24.288
12842SOL     OW50153   4.543   0.060   8.973
12842SOL    HW150154   4.638   0.054   8.961
12842SOL    HW250155   4.528   0.021   9.059
12843SOL     OW50156   0.524   2.356  22.346
12843SOL    HW150157   0.589   2.415  22.308
12843SOL    HW250158   0.444   2.408  22.350
12844SOL     OW50159   3.612   2.841  17.779
12844SOL    HW150160   3.672   2.851  17.705
12844SOL    HW250161   3.666   2.857  17.856
12845SOL     OW50162   3.260   1.359   4.965
12845SOL    HW150163   3.346   1.388   4.934
12845SOL    HW250164   3.236   1.422   5.033
12846SOL     OW50165   0.258   1.475   7.418
12846SOL    HW150166   0.320   1.422   7.467
12846SOL    HW250167   0.268   1.563   7.454
12847SOL     OW50168   3.993   3.311   2.885
12847SOL    HW150169   3.961   3.221   2.888
12847SOL    HW250170   3.944   3.357   2.954
12848SOL     OW50171   0.311   1.509  28.237
12848SOL    HW150172   0.251   1.522  28.310
12848SOL    HW250173   0.395   1.544  28.269
12849SOL     OW50174   3.482   0.459  22.259
12849SOL    HW150175   3.409   0.403  22.233
12849SOL    HW250176   3.451   0.505  22.337
12850SOL     OW50177   1.766   3.560  18.435
12850SOL    HW150178   1.768   3.622  18.361
12850SOL    HW250179   1.823   3.489  18.408
12851SOL     OW50180   4.530   4.715  20.023
12851SOL    HW150181   4.539   4.769  19.945
12851SOL    HW250182   4.577   4.764  20.091
12852SOL     OW50183   1.974   0.872   6.114
12852SOL    HW150184   1.959   0.825   6.196
12852SOL    HW250185   2.069   0.868   6.100
12853SOL     OW50186   1.982   2.733   4.873
12853SOL    HW150187   1.896   2.691   4.864
12853SOL    HW250188   2.022   2.723   4.787
12854SOL     OW50189   0.207   0.734   0.207
12854SOL    HW150190   0.173   0.815   0.170
12854SOL    HW250191   0.144   0.667   0.180
12855SOL     OW50192   4.402   4.481  25.525
12855SOL    HW150193   4.345   4.454  25.452
12855SOL    HW250194   4.409   4.402  25.580
12856SOL     OW50195   2.304   3.111   7.303
12856SOL    HW150196   2.313   3.017   7.318
12856SOL    HW250197   2.243   3.140   7.371
12857SOL     OW50198   2.999   1.558  20.900
12857SOL    HW150199   3.044   1.475  20.909
12857SOL    HW250200   2.913   1.544  20.941
12858SOL     OW50201   2.577   3.826   2.966
12858SOL    HW150202   2.484   3.811   2.984
12858SOL    HW250203   2.585   3.921   2.962
12859SOL     OW50204   2.774   1.395   7.165
12859SOL    HW150205   2.784   1.324   7.102
12859SOL    HW250206   2.686   1.384   7.200
12860SOL     OW50207   4.066   3.471  20.503
12860SOL    HW150208   4.047   3.530  20.430
12860SOL    HW250209   4.028   3.387  20.477
12861SOL     OW50210   2.454   1.591  17.577
12861SOL    HW150211   2.523   1.550  17.526
12861SOL    HW250212   2.383   1.607  17.514
12862SOL     OW50213   0.790   4.202  26.939
12862SOL    HW150214   0.807   4.165  27.026
12862SOL    HW250215   0.836   4.143  26.879
12863SOL     OW50216   2.750   0.236  10.191
12863SOL    HW150217   2.736   0.159  10.246
12863SOL    HW250218   2.786   0.201  10.110
12864SOL     OW50219   3.580   4.270  26.378
12864SOL    HW150220   3.604   4.266  26.471
12864SOL    HW250221   3.571   4.364  26.360
12865SOL     OW50222   0.271   3.588   3.873
12865SOL    HW150223   0.333   3.614   3.805
12865SOL    HW250224   0.326   3.560   3.946
12866SOL     OW50225   2.400   4.510  24.290
12866SOL    HW150226   2.496   4.514  24.293
12866SOL    HW250227   2.373   4.592  24.250
12867SOL     OW50228   3.016   0.532   5.820
12867SOL    HW150229   3.107   0.537   5.788
12867SOL    HW250230   3.009   0.446   5.860
12868SOL     OW50231   0.452   1.932   0.189
12868SOL    HW150232   0.408   1.856   0.153
12868SOL    HW250233   0.514   1.959   0.122
12869SOL     OW50234   3.354   3.362  23.527
12869SOL    HW150235   3.273   3.393  23.568
12869SOL    HW250236   3.358   3.406  23.443
12870SOL     OW50237   1.971   4.693   3.453
12870SOL    HW150238   2.026   4.674   3.377
12870SOL    HW250239   1.935   4.780   3.436
12871SOL     OW50240   3.054   4.062   5.818
12871SOL    HW150241   3.127   4.048   5.878
12871SOL    HW250242   3.081   4.135   5.763
12872SOL     OW50243   0.269   0.620  26.360
12872SOL    HW150244   0.364   0.609  26.353
12872SOL    HW250245   0.257   0.713  26.377
12873SOL     OW50246   1.365   3.471   2.466
12873SOL    HW150247   1.434   3.516   2.514
12873SOL    HW250248   1.386   3.378   2.473
12874SOL     OW50249   2.282   2.536  20.370
12874SOL    HW150250   2.289   2.628  20.394
12874SOL    HW250251   2.213   2.501  20.427
12875SOL     OW50252   2.234   0.795  22.308
12875SOL    HW150253   2.292   0.846  22.253
12875SOL    HW250254   2.224   0.847  22.387
12876SOL     OW50255   3.862   0.137   5.540
12876SOL    HW150256   3.865   0.072   5.470
12876SOL    HW250257   3.939   0.118   5.594
12877SOL     OW50258   1.334   0.524   2.944
12877SOL    HW150259   1.301   0.459   2.883
12877SOL    HW250260   1.269   0.526   3.014
12878SOL     OW50261   1.678   1.214  25.904
12878SOL    HW150262   1.688   1.187  25.995
12878SOL    HW250263   1.633   1.141  25.861
12879SOL     OW50264   4.116   1.520  10.646
12879SOL    HW150265   4.133   1.596  10.590
12879SOL    HW250266   4.021   1.509  10.643
12880SOL     OW50267   0.258   4.366  25.368
12880SOL    HW150268   0.234   4.351  25.277
12880SOL    HW250269   0.215   4.448  25.391
12881SOL     OW50270   2.532   3.562  23.403
12881SOL    HW150271   2.535   3.472  23.373
12881SOL    HW250272   2.563   3.558  23.494
12882SOL     OW50273   4.409   2.375   2.547
12882SOL    HW150274   4.334   2.389   2.489
12882SOL    HW250275   4.413   2.455   2.600
12883SOL     OW50276   0.195   3.331   7.888
12883SOL    HW150277   0.168   3.386   7.961
12883SOL    HW250278   0.291   3.334   7.889
12884SOL     OW50279   3.201   2.358  24.667
12884SOL    HW150280   3.140   2.409  24.721
12884SOL    HW250281   3.248   2.423  24.616
12885SOL     OW50282   1.250   4.564   4.936
12885SOL    HW150283   1.165   4.597   4.965
12885SOL    HW250284   1.296   4.642   4.904
12886SOL     OW50285   0.592   2.110  27.415
12886SOL    HW150286   0.582   2.204  27.420
12886SOL    HW250287   0.616   2.094  27.323
12887SOL     OW50288   3.902   3.260   2.266
12887SOL    HW150289   3.890   3.196   2.196
12887SOL    HW250290   3.817   3.302   2.275
12888SOL     OW50291   2.795   3.237   5.704
12888SOL    HW150292   2.794   3.153   5.658
12888SOL    HW250293   2.743   3.221   5.783
12889SOL     OW50294   2.103   1.481  12.825
12889SOL    HW150295   2.117   1.398  12.871
12889SOL    HW250296   2.161   1.542  12.869
12890SOL     OW50297   4.213   2.362  23.627
12890SOL    HW150298   4.303   2.393  23.634
12890SOL    HW250299   4.212   2.280  23.677
12891SOL     OW50300   2.305   0.740  25.820
12891SOL    HW150301   2.229   0.774  25.867
12891SOL    HW250302   2.286   0.647  25.806
12892SOL     OW50303   0.610   2.736  12.215
12892SOL    HW150304   0.527   2.712  12.256
12892SOL    HW250305   0.676   2.710  12.279
12893SOL     OW50306   2.121   2.612   3.037
12893SOL    HW150307   2.088   2.525   3.015
12893SOL    HW250308   2.056   2.647   3.099
12894SOL     OW50309   3.417   4.208  23.991
12894SOL    HW150310   3.452   4.272  23.930
12894SOL    HW250311   3.490   4.187  24.049
12895SOL     OW50312   3.024   2.705   0.869
12895SOL    HW150313   2.956   2.723   0.804
12895SOL    HW250314   3.053   2.792   0.897
12896SOL     OW50315   2.258   2.307  23.927
12896SOL    HW150316   2.249   2.344  23.839
12896SOL    HW250317   2.300   2.222  23.913
12897SOL     OW50318   1.650   0.346   4.036
12897SOL    HW150319   1.565   0.304   4.021
12897SOL    HW250320   1.708   0.309   3.970
12898SOL     OW50321   1.525   0.277  23.287
12898SOL    HW150322   1.536   0.193  23.243
12898SOL    HW250323   1.432   0.281  23.310
12899SOL     OW50324   2.444   3.726  26.492
12899SOL    HW150325   2.506   3.718  26.565
12899SOL    HW250326   2.365   3.682  26.524
12900SOL     OW50327   1.279   1.563   4.068
12900SOL    HW150328   1.188   1.536   4.079
12900SOL    HW250329   1.274   1.655   4.043
12901SOL     OW50330   3.192   0.619   8.560
12901SOL    HW150331   3.185   0.542   8.617
12901SOL    HW250332   3.190   0.694   8.620
12902SOL     OW50333   2.953   1.824   3.650
12902SOL    HW150334   2.974   1.779   3.732
12902SOL    HW250335   2.961   1.756   3.583
12903SOL     OW50336   1.229   0.397   8.588
12903SOL    HW150337   1.311   0.411   8.635
12903SOL    HW250338   1.227   0.303   8.570
12904SOL     OW50339   0.932   4.676  28.483
12904SOL    HW150340   0.951   4.718   0.045
12904SOL    HW250341   0.902   4.747  28.427
12905SOL     OW50342   4.233   3.231   7.388
12905SOL    HW150343   4.142   3.256   7.404
12905SOL    HW250344   4.240   3.144   7.428
12906SOL     OW50345   3.607   3.397  11.036
12906SOL    HW150346   3.527   3.360  11.072
12906SOL    HW250347   3.677   3.339  11.067
12907SOL     OW50348   0.416   1.292   5.963
12907SOL    HW150349   0.390   1.243   5.885
12907SOL    HW250350   0.352   1.266   6.030
12908SOL     OW50351   1.941   0.580  24.369
12908SOL    HW150352   1.949   0.674  24.349
12908SOL    HW250353   2.030   0.546  24.360
12909SOL     OW50354   1.114   4.136   3.437
12909SOL    HW150355   1.056   4.088   3.377
12909SOL    HW250356   1.184   4.169   3.381
12910SOL     OW50357   2.846   3.374   4.856
12910SOL    HW150358   2.788   3.403   4.926
12910SOL    HW250359   2.918   3.331   4.901
12911SOL     OW50360   1.695   3.942   1.035
12911SOL    HW150361   1.654   3.927   1.121
12911SOL    HW250362   1.620   3.952   0.975
12912SOL     OW50363   3.841   0.626  20.176
12912SOL    HW150364   3.833   0.718  20.200
12912SOL    HW250365   3.819   0.624  20.083
12913SOL     OW50366   4.206   1.830  23.293
12913SOL    HW150367   4.266   1.880  23.349
12913SOL    HW250368   4.208   1.742  23.329
12914SOL     OW50369   1.901   0.994   7.715
12914SOL    HW150370   1.813   1.007   7.749
12914SOL    HW250371   1.955   0.977   7.793
12915SOL     OW50372   4.618   4.689   2.608
12915SOL    HW150373   4.698   4.739   2.622
12915SOL    HW250374   4.622   4.661   2.517
12916SOL     OW50375   3.577   0.476  21.952
12916SOL    HW150376   3.520   0.533  22.003
12916SOL    HW250377   3.519   0.410  21.915
12917SOL     OW50378   0.782   1.848  22.901
12917SOL    HW150379   0.727   1.926  22.904
12917SOL    HW250380   0.782   1.821  22.809
12918SOL     OW50381   2.704   3.218  12.486
12918SOL    HW150382   2.660   3.303  12.487
12918SOL    HW250383   2.757   3.219  12.566
12919SOL     OW50384   1.077   3.213  11.755
12919SOL    HW150385   1.155   3.158  11.751
12919SOL    HW250386   1.104   3.289  11.808
12920SOL     OW50387   3.551   2.366   0.858
12920SOL    HW150388   3.613   2.416   0.911
12920SOL    HW250389   3.580   2.275   0.867
12921SOL     OW50390   0.838   2.909   0.696
12921SOL    HW150391   0.788   2.837   0.734
12921SOL    HW250392   0.918   2.868   0.664
12922SOL     OW50393   1.076   4.556   7.154
12922SOL    HW150394   0.988   4.550   7.116
12922SOL    HW250395   1.083   4.647   7.184
12923SOL     OW50396   2.955   1.734  27.574
12923SOL    HW150397   2.882   1.680  27.543
12923SOL    HW250398   3.033   1.684  27.553
12924SOL     OW50399   3.910   2.475   7.533
12924SOL    HW150400   3.999   2.443   7.516
12924SOL    HW250401   3.923   2.549   7.593
12925SOL     OW50402   2.529   4.529  27.087
12925SOL    HW150403   2.506   4.475  27.163
12925SOL    HW250404   2.492   4.615  27.106
12926SOL     OW50405   2.758   1.185  18.668
12926SOL    HW150406   2.745   1.212  18.759
12926SOL    HW250407   2.670   1.169  18.634
12927SOL     OW50408   3.700   3.904   0.447
12927SOL    HW150409   3.724   3.880   0.536
12927SOL    HW250410   3.646   3.983   0.457
12928SOL     OW50411   2.124   4.430   9.552
12928SOL    HW150412   2.049   4.416   9.610
12928SOL    HW250413   2.194   4.378   9.591
12929SOL     OW50414   3.591   1.537  11.195
12929SOL    HW150415   3.602   1.625  11.232
12929SOL    HW250416   3.549   1.487  11.265
12930SOL     OW50417   1.819   4.695  22.436
12930SOL    HW150418   1.878   4.678  22.363
12930SOL    HW250419   1.732   4.695  22.397
12931SOL     OW50420   2.928   1.947  28.279
12931SOL    HW150421   2.896   2.012  28.342
12931SOL    HW250422   2.909   1.862  28.319
12932SOL     OW50423   3.309   4.472   7.853
12932SOL    HW150424   3.215   4.490   7.860
12932SOL    HW250425   3.345   4.550   7.810
12933SOL     OW50426   4.153   3.749  24.207
12933SOL    HW150427   4.148   3.839  24.177
12933SOL    HW250428   4.238   3.717  24.177
12934SOL     OW50429   3.333   2.586  28.434
12934SOL    HW150430   3.392   2.598  28.359
12934SOL    HW250431   3.334   2.670  28.479
12935SOL     OW50432   2.314   2.380   8.499
12935SOL    HW150433   2.384   2.377   8.434
12935SOL    HW250434   2.235   2.400   8.449
12936SOL     OW50435   4.013   2.241  21.759
12936SOL    HW150436   4.074   2.218  21.688
12936SOL    HW250437   4.064   2.296  21.817
12937SOL     OW50438   3.850   4.214   7.262
12937SOL    HW150439   3.787   4.269   7.310
12937SOL    HW250440   3.931   4.264   7.263
12938SOL     OW50441   2.489   0.062  27.494
12938SOL    HW150442   2.511   0.032  27.582
12938SOL    HW250443   2.478   0.157  27.504
12939SOL     OW50444   0.456   1.841  25.065
12939SOL    HW150445   0.530   1.881  25.019
12939SOL    HW250446   0.409   1.793  24.997
12940SOL     OW50447   3.559   0.740   0.957
12940SOL    HW150448   3.464   0.728   0.967
12940SOL    HW250449   3.594   0.719   1.044
12941SOL     OW50450   2.889   1.243  23.265
12941SOL    HW150451   2.800   1.208  23.256
12941SOL    HW250452   2.876   1.338  23.276
12942SOL     OW50453   1.958   1.061   3.238
12942SOL    HW150454   1.899   1.025   3.172
12942SOL    HW250455   2.025   0.994   3.250
12943SOL     OW50456   2.933   1.872   9.099
12943SOL    HW150457   2.946   1.788   9.142
12943SOL    HW250458   2.840   1.890   9.108
12944SOL     OW50459   1.487   2.905   4.086
12944SOL    HW150460   1.460   2.816   4.109
12944SOL    HW250461   1.451   2.960   4.156
12945SOL     OW50462   3.305   4.647  26.560
12945SOL    HW150463   3.365   4.716  26.587
12945SOL    HW250464   3.358   4.589  26.504
12946SOL     OW50465   3.872   4.032   1.492
12946SOL    HW150466   3.826   3.948   1.482
12946SOL    HW250467   3.965   4.009   1.491
12947SOL     OW50468   3.903   1.919   0.809
12947SOL    HW150469   3.998   1.911   0.810
12947SOL    HW250470   3.872   1.829   0.803
12948SOL     OW50471   2.238   2.183   6.782
12948SOL    HW150472   2.256   2.204   6.690
12948SOL    HW250473   2.265   2.092   6.791
12949SOL     OW50474   0.484   4.575  24.123
12949SOL    HW150475   0.429   4.624  24.062
12949SOL    HW250476   0.566   4.562  24.077
12950SOL     OW50477   0.677   1.576  21.892
12950SOL    HW150478   0.717   1.502  21.937
12950SOL    HW250479   0.751   1.622  21.852
12951SOL     OW50480   1.373   4.037  23.718
12951SOL    HW150481   1.431   4.112  23.704
12951SOL    HW250482   1.291   4.062  23.677
12952SOL     OW50483   1.277   3.028   5.689
12952SOL    HW150484   1.232   2.945   5.706
12952SOL    HW250485   1.331   3.011   5.612
12953SOL     OW50486   2.731   3.707  26.967
12953SOL    HW150487   2.678   3.774  27.010
12953SOL    HW250488   2.708   3.714  26.875
12954SOL     OW50489   4.583   4.711  28.308
12954SOL    HW150490   4.552   4.621  28.301
12954SOL    HW250491   4.609   4.720  28.400
12955SOL     OW50492   2.932   2.375   7.967
12955SOL    HW150493   2.913   2.449   8.025
12955SOL    HW250494   3.018   2.343   7.996
12956SOL     OW50495   3.088   4.597  20.803
12956SOL    HW150496   3.067   4.504  20.795
12956SOL    HW250497   3.004   4.642  20.792
12957SOL     OW50498   0.390   0.049   3.622
12957SOL    HW150499   0.426   0.117   3.565
12957SOL    HW250500   0.368   0.094   3.703
12958SOL     OW50501   4.265   2.890   6.749
12958SOL    HW150502   4.231   2.944   6.821
12958SOL    HW250503   4.344   2.850   6.785
12959SOL     OW50504   0.677   0.870  23.438
12959SOL    HW150505   0.752   0.837  23.388
12959SOL    HW250506   0.602   0.821  23.403
12960SOL     OW50507   3.973   2.437  27.030
12960SOL    HW150508   4.021   2.355  27.029
12960SOL    HW250509   3.933   2.441  27.117
12961SOL     OW50510   3.737   2.080  25.421
12961SOL    HW150511   3.671   2.095  25.488
12961SOL    HW250512   3.820   2.094  25.466
12962SOL     OW50513   4.685   0.834   0.357
12962SOL    HW150514   4.757   0.894   0.376
12962SOL    HW250515   4.687   0.771   0.428
12963SOL     OW50516   2.182   1.444   5.751
12963SOL    HW150517   2.193   1.371   5.812
12963SOL    HW250518   2.087   1.449   5.736
12964SOL     OW50519   0.166   2.166   1.151
12964SOL    HW150520   0.225   2.198   1.219
12964SOL    HW250521   0.179   2.071   1.151
12965SOL     OW50522   0.953   1.193   1.278
12965SOL    HW150523   1.006   1.114   1.269
12965SOL    HW250524   1.004   1.248   1.338
12966SOL     OW50525   4.424   2.697  21.845
12966SOL    HW150526   4.391   2.781  21.811
12966SOL    HW250527   4.377   2.631  21.794
12967SOL     OW50528   4.767   0.181   8.631
12967SOL    HW150529   0.017   0.096   8.602
12967SOL    HW250530   0.042   0.204   8.705
12968SOL     OW50531   4.619   3.943   6.897
12968SOL    HW150532   4.677   3.866   6.902
12968SOL    HW250533   4.676   4.013   6.867
12969SOL     OW50534   4.173   0.689  20.564
12969SOL    HW150535   4.175   0.622  20.633
12969SOL    HW250536   4.133   0.644  20.489
12970SOL     OW50537   4.425   0.709  23.140
12970SOL    HW150538   4.440   0.621  23.106
12970SOL    HW250539   4.331   0.724  23.127
12971SOL     OW50540   3.568   2.978  28.076
12971SOL    HW150541   3.581   3.018  28.162
12971SOL    HW250542   3.473   2.976  28.064
12972SOL     OW50543   2.915   3.495  11.567
12972SOL    HW150544   2.893   3.585  11.590
12972SOL    HW250545   2.871   3.480  11.483
12973SOL     OW50546   4.120   1.354  19.798
12973SOL    HW150547   4.027   1.344  19.782
12973SOL    HW250548   4.131   1.446  19.822
12974SOL     OW50549   3.808   0.223  11.368
12974SOL    HW150550   3.894   0.248  11.404
12974SOL    HW250551   3.764   0.179  11.440
12975SOL     OW50552   1.071   4.476   3.951
12975SOL    HW150553   1.032   4.515   4.029
12975SOL    HW250554   1.113   4.396   3.983
12976SOL     OW50555   1.611   1.776   5.299
12976SOL    HW150556   1.610   1.842   5.230
12976SOL    HW250557   1.673   1.709   5.268
12977SOL     OW50558   1.103   1.141   9.606
12977SOL    HW150559   1.026   1.182   9.645
12977SOL    HW250560   1.090   1.047   9.618
12978SOL     OW50561   0.094   1.862   6.596
12978SOL    HW150562   0.152   1.787   6.584
12978SOL    HW250563   0.006   1.827   6.582
12979SOL     OW50564   3.407   0.150   0.451
12979SOL    HW150565   3.341   0.087   0.479
12979SOL    HW250566   3.364   0.235   0.459
12980SOL     OW50567   1.877   2.381   0.555
12980SOL    HW150568   1.795   2.353   0.513
12980SOL    HW250569   1.899   2.308   0.614
12981SOL     OW50570   3.946   3.174   5.929
12981SOL    HW150571   3.923   3.265   5.912
12981SOL    HW250572   4.036   3.166   5.899
12982SOL     OW50573   0.279   0.857  12.354
12982SOL    HW150574   0.325   0.808  12.422
12982SOL    HW250575   0.204   0.802  12.332
12983SOL     OW50576   0.097   3.147   1.689
12983SOL    HW150577   0.003   3.132   1.699
12983SOL    HW250578   0.122   3.093   1.614
12984SOL     OW50579   1.226   0.483   6.108
12984SOL    HW150580   1.144   0.503   6.153
12984SOL    HW250581   1.248   0.563   6.060
12985SOL     OW50582   4.728   2.281  10.042
12985SOL    HW150583   4.661   2.305  10.106
12985SOL    HW250584   4.755   2.193  10.068
12986SOL     OW50585   3.611   2.840  13.028
12986SOL    HW150586   3.642   2.807  13.113
12986SOL    HW250587   3.685   2.826  12.968
12987SOL     OW50588   2.580   0.738   4.825
12987SOL    HW150589   2.511   0.801   4.807
12987SOL    HW250590   2.611   0.711   4.739
12988SOL     OW50591   2.871   2.878  20.630
12988SOL    HW150592   2.785   2.850  20.599
12988SOL    HW250593   2.855   2.916  20.716
12989SOL     OW50594   2.095   1.680  20.273
12989SOL    HW150595   2.159   1.751  20.282
12989SOL    HW250596   2.140   1.603  20.308
12990SOL     OW50597   3.964   3.018   8.180
12990SOL    HW150598   3.933   2.953   8.243
12990SOL    HW250599   3.897   3.087   8.182
12991SOL     OW50600   0.899   2.320  25.466
12991SOL    HW150601   0.945   2.382  25.522
12991SOL    HW250602   0.866   2.253  25.525
12992SOL     OW50603   2.131   3.525   8.077
12992SOL    HW150604   2.058   3.586   8.067
12992SOL    HW250605   2.119   3.461   8.008
12993SOL     OW50606   1.673   0.100   2.648
12993SOL    HW150607   1.604   0.051   2.603
12993SOL    HW250608   1.718   0.147   2.578
12994SOL     OW50609   2.715   3.036  11.653
12994SOL    HW150610   2.659   2.996  11.586
12994SOL    HW250611   2.804   3.016  11.625
12995SOL     OW50612   2.955   3.775   4.544
12995SOL    HW150613   2.927   3.844   4.604
12995SOL    HW250614   2.995   3.709   4.601
12996SOL     OW50615   3.824   2.845  25.739
12996SOL    HW150616   3.821   2.792  25.819
12996SOL    HW250617   3.733   2.849  25.709
12997SOL     OW50618   1.558   2.341  22.905
12997SOL    HW150619   1.597   2.303  22.826
12997SOL    HW250620   1.481   2.388  22.873
12998SOL     OW50621   1.684   3.953   4.089
12998SOL    HW150622   1.778   3.940   4.080
12998SOL    HW250623   1.651   3.871   4.125
12999SOL     OW50624   1.489   3.593   5.946
12999SOL    HW150625   1.406   3.587   5.994
12999SOL    HW250626   1.469   3.558   5.859
13000SOL     OW50627   2.323   1.641   3.671
13000SOL    HW150628   2.274   1.690   3.605
13000SOL    HW250629   2.276   1.657   3.753
13001SOL     OW50630   1.291   0.862   1.489
13001SOL    HW150631   1.341   0.900   1.417
13001SOL    HW250632   1.333   0.897   1.568
13002SOL     OW50633   1.428   1.426   6.225
13002SOL    HW150634   1.383   1.345   6.200
13002SOL    HW250635   1.391   1.447   6.311
13003SOL     OW50636   3.197   2.572  27.666
13003SOL    HW150637   3.198   2.549  27.573
13003SOL    HW250638   3.274   2.628  27.678
13004SOL     OW50639   4.397   0.915  20.166
13004SOL    HW150640   4.315   0.884  20.127
13004SOL    HW250641   4.387   0.896  20.260
13005SOL     OW50642   0.364   3.458   6.336
13005SOL    HW150643   0.335   3.376   6.295
13005SOL    HW250644   0.454   3.469   6.307
13006SOL     OW50645   0.437   1.816  10.456
13006SOL    HW150646   0.392   1.793  10.537
13006SOL    HW250647   0.414   1.745  10.396
13007SOL     OW50648   4.731   4.588   4.542
13007SOL    HW150649   4.752   4.640   4.620
13007SOL    HW250650   4.780   4.630   4.471
13008SOL     OW50651   0.327   2.297  11.103
13008SOL    HW150652   0.380   2.377  11.098
13008SOL    HW250653   0.322   2.277  11.196
13009SOL     OW50654   0.052   4.626  24.678
13009SOL    HW150655   4.753   4.676  24.662
13009SOL    HW250656   0.070   4.581  24.596
13010SOL     OW50657   3.071   2.186  21.804
13010SOL    HW150658   3.012   2.126  21.758
13010SOL    HW250659   3.157   2.169  21.766
13011SOL     OW50660   2.814   2.247  11.464
13011SOL    HW150661   2.878   2.280  11.401
13011SOL    HW250662   2.864   2.191  11.523
13012SOL     OW50663   4.701   2.442  25.800
13012SOL    HW150664   4.689   2.486  25.716
13012SOL    HW250665   4.616   2.404  25.820
13013SOL     OW50666   3.142   4.610  12.727
13013SOL    HW150667   3.064   4.564  12.696
13013SOL    HW250668   3.109   4.693  12.763
13014SOL     OW50669   1.043   3.507  11.638
13014SOL    HW150670   1.065   3.453  11.713
13014SOL    HW250671   1.126   3.541  11.607
13015SOL     OW50672   3.603   0.765  28.401
13015SOL    HW150673   3.685   0.768  28.351
13015SOL    HW250674   3.631   0.765  28.492
13016SOL     OW50675   0.248   3.333   3.474
13016SOL    HW150676   0.319   3.395   3.488
13016SOL    HW250677   0.174   3.368   3.525
13017SOL     OW50678   0.042   3.867  10.508
13017SOL    HW150679   4.728   3.875  10.500
13017SOL    HW250680   0.055   3.790  10.564
13018SOL     OW50681   0.118   3.242   0.269
13018SOL    HW150682   0.069   3.217   0.191
13018SOL    HW250683   0.205   3.265   0.237
13019SOL     OW50684   4.572   2.423  17.468
13019SOL    HW150685   4.541   2.333  17.479
13019SOL    HW250686   4.652   2.428  17.520
13020SOL     OW50687   0.485   2.991  11.568
13020SOL    HW150688   0.551   2.971  11.635
13020SOL    HW250689   0.488   3.086  11.558
13021SOL     OW50690   1.080   1.907  10.655
13021SOL    HW150691   1.076   1.999  10.680
13021SOL    HW250692   1.087   1.907  10.560
13022SOL     OW50693   3.920   3.237  11.982
13022SOL    HW150694   3.924   3.144  11.961
13022SOL    HW250695   4.010   3.259  12.008
13023SOL     OW50696   0.954   3.306  13.600
13023SOL    HW150697   0.970   3.390  13.643
13023SOL    HW250698   0.884   3.267  13.651
13024SOL     OW50699   0.461   2.441  12.611
13024SOL    HW150700   0.373   2.413  12.634
13024SOL    HW250701   0.517   2.367  12.634
13025SOL     OW50702   4.582   1.386  12.918
13025SOL    HW150703   4.669   1.428  12.917
13025SOL    HW250704   4.533   1.435  12.984
13026SOL     OW50705   4.165   2.801  11.246
13026SOL    HW150706   4.131   2.789  11.334
13026SOL    HW250707   4.105   2.753  11.190
13027SOL     OW50708   0.836   3.114  12.555
13027SOL    HW150709   0.779   3.038  12.549
13027SOL    HW250710   0.846   3.129  12.649
13028SOL     OW50711   3.655   2.426  10.150
13028SOL    HW150712   3.581   2.430  10.210
13028SOL    HW250713   3.657   2.511  10.107
13029SOL     OW50714   4.197   2.777  12.022
13029SOL    HW150715   4.158   2.831  12.091
13029SOL    HW250716   4.211   2.837  11.949
13030SOL     OW50717   0.899   2.271  12.564
13030SOL    HW150718   0.969   2.229  12.614
13030SOL    HW250719   0.924   2.364  12.561
13031SOL     OW50720   0.216   1.656  13.162
13031SOL    HW150721   0.147   1.711  13.200
13031SOL    HW250722   0.258   1.614  13.237
13032SOL     OW50723   3.760   2.005  13.215
13032SOL    HW150724   3.782   1.919  13.251
13032SOL    HW250725   3.711   1.986  13.135
13033SOL     OW50726   4.654   1.531  13.283
13033SOL    HW150727   4.701   1.517  13.201
13033SOL    HW250728   4.722   1.559  13.345
13034SOL     OW50729   1.272   2.188  12.903
13034SOL    HW150730   1.243   2.097  12.906
13034SOL    HW250731   1.326   2.198  12.981
13035SOL     OW50732   2.577   4.584   7.074
13035SOL    HW150733   2.521   4.585   6.997
13035SOL    HW250734   2.666   4.575   7.039
13036SOL     OW50735   0.077   1.936  12.467
13036SOL    HW150736   0.006   1.994  12.498
13036SOL    HW250737   0.147   1.949  12.530
13037SOL     OW50738   2.926   4.111  12.880
13037SOL    HW150739   2.978   4.032  12.894
13037SOL    HW250740   2.981   4.182  12.912
13038SOL     OW50741   0.954   3.179  13.132
13038SOL    HW150742   0.923   3.266  13.154
13038SOL    HW250743   0.974   3.139  13.216
13039SOL     OW50744   0.959   2.552  12.603
13039SOL    HW150745   0.905   2.573  12.679
13039SOL    HW250746   1.049   2.563  12.635
13040SOL     OW50747   1.925   0.418  11.351
13040SOL    HW150748   1.847   0.456  11.390
13040SOL    HW250749   1.939   0.469  11.270
13041SOL     OW50750   2.990   0.909  11.399
13041SOL    HW150751   3.056   0.843  11.415
13041SOL    HW250752   2.961   0.936  11.486
13042SOL     OW50753   3.648   3.962   8.360
13042SOL    HW150754   3.597   3.963   8.280
13042SOL    HW250755   3.593   4.006   8.425
13043SOL     OW50756   0.575   3.063  13.696
13043SOL    HW150757   0.561   2.994  13.631
13043SOL    HW250758   0.487   3.094  13.717
13044SOL     OW50759   3.449   2.023  11.456
13044SOL    HW150760   3.436   1.963  11.382
13044SOL    HW250761   3.483   1.968  11.526
13045SOL     OW50762   4.763   2.831  12.370
13045SOL    HW150763   0.055   2.792  12.420
13045SOL    HW250764   4.688   2.775  12.391
13046SOL     OW50765   0.591   1.896  12.874
13046SOL    HW150766   0.560   1.985  12.888
13046SOL    HW250767   0.517   1.840  12.899
13047SOL     OW50768   2.443   2.307  12.477
13047SOL    HW150769   2.395   2.290  12.396
13047SOL    HW250770   2.378   2.296  12.547
13048SOL     OW50771   0.054   2.697  12.707
13048SOL    HW150772   0.080   2.773  12.760
13048SOL    HW250773   4.743   2.714  12.686
13049SOL     OW50774   0.815   2.439  11.750
13049SOL    HW150775   0.728   2.457  11.717
13049SOL    HW250776   0.811   2.465  11.842
13050SOL     OW50777   4.146   3.606  13.123
13050SOL    HW150778   4.139   3.613  13.218
13050SOL    HW250779   4.068   3.557  13.096
13051SOL     OW50780   0.545   3.282  13.975
13051SOL    HW150781   0.473   3.221  13.988
13051SOL    HW250782   0.571   3.307  14.064
13052SOL     OW50783   4.725   2.613  13.025
13052SOL    HW150784   0.039   2.602  13.026
13052SOL    HW250785   4.711   2.697  13.069
13053SOL     OW50786   0.601   2.678  12.722
13053SOL    HW150787   0.550   2.617  12.669
13053SOL    HW250788   0.687   2.636  12.732
13054SOL     OW50789   0.274   0.596  13.067
13054SOL    HW150790   0.340   0.588  13.136
13054SOL    HW250791   0.192   0.606  13.115
13055SOL     OW50792   4.227   3.073  11.227
13055SOL    HW150793   4.219   2.978  11.229
13055SOL    HW250794   4.245   3.098  11.317
13056SOL     OW50795   3.490   2.334  13.722
13056SOL    HW150796   3.569   2.281  13.732
13056SOL    HW250797   3.458   2.346  13.811
13057SOL     OW50798   1.537   3.340  13.547
13057SOL    HW150799   1.506   3.250  13.559
13057SOL    HW250800   1.465   3.394  13.580
13058SOL     OW50801   4.239   2.778  14.650
13058SOL    HW150802   4.226   2.739  14.563
13058SOL    HW250803   4.151   2.788  14.685
13059SOL     OW50804   0.665   2.397  12.940
13059SOL    HW150805   0.575   2.368  12.930
13059SOL    HW250806   0.715   2.317  12.955
13060SOL     OW50807   1.111   2.695  14.077
13060SOL    HW150808   1.139   2.609  14.044
13060SOL    HW250809   1.037   2.719  14.022
13061SOL     OW50810   2.962   2.281  12.096
13061SOL    HW150811   2.974   2.365  12.139
13061SOL    HW250812   2.898   2.298  12.027
13062SOL     OW50813   3.988   2.812  14.739
13062SOL    HW150814   3.915   2.750  14.731
13062SOL    HW250815   3.989   2.836  14.831
13063SOL     OW50816   0.988   2.255  13.938
13063SOL    HW150817   0.978   2.288  14.027
13063SOL    HW250818   0.905   2.276  13.895
13064SOL     OW50819   3.284   2.336  14.808
13064SOL    HW150820   3.251   2.276  14.875
13064SOL    HW250821   3.377   2.315  14.801
13065SOL     OW50822   2.405   2.012  14.549
13065SOL    HW150823   2.453   2.075  14.603
13065SOL    HW250824   2.445   2.021  14.462
13066SOL     OW50825   0.421   3.624  13.943
13066SOL    HW150826   0.390   3.710  13.913
13066SOL    HW250827   0.393   3.564  13.874
13067SOL     OW50828   1.790   0.796  12.509
13067SOL    HW150829   1.753   0.879  12.539
13067SOL    HW250830   1.885   0.809  12.514
13068SOL     OW50831   0.523   2.445  12.179
13068SOL    HW150832   0.578   2.380  12.223
13068SOL    HW250833   0.482   2.494  12.250
13069SOL     OW50834   1.147   2.878  14.497
13069SOL    HW150835   1.132   2.968  14.528
13069SOL    HW250836   1.172   2.830  14.576
13070SOL     OW50837   4.430   1.802  13.027
13070SOL    HW150838   4.511   1.817  12.978
13070SOL    HW250839   4.444   1.843  13.112
13071SOL     OW50840   4.778   2.578  14.018
13071SOL    HW150841   0.079   2.563  13.972
13071SOL    HW250842   4.721   2.620  13.954
13072SOL     OW50843   1.240   1.915  12.907
13072SOL    HW150844   1.180   1.842  12.920
13072SOL    HW250845   1.320   1.889  12.953
13073SOL     OW50846   3.181   3.697  13.938
13073SOL    HW150847   3.266   3.730  13.968
13073SOL    HW250848   3.152   3.638  14.006
13074SOL     OW50849   1.095   3.883  13.584
13074SOL    HW150850   1.171   3.922  13.541
13074SOL    HW250851   1.041   3.958  13.610
13075SOL     OW50852   0.424   2.476  14.655
13075SOL    HW150853   0.404   2.489  14.562
13075SOL    HW250854   0.413   2.382  14.669
13076SOL     OW50855   4.135   2.421  14.535
13076SOL    HW150856   4.114   2.419  14.628
13076SOL    HW250857   4.222   2.461  14.531
13077SOL     OW50858   0.282   2.154  15.969
13077SOL    HW150859   0.271   2.143  16.063
13077SOL    HW250860   0.301   2.065  15.937
13078SOL     OW50861   0.022   1.910  14.511
13078SOL    HW150862   0.042   1.819  14.533
13078SOL    HW250863   0.069   1.925  14.429
13079SOL     OW50864   3.920   2.502  13.851
13079SOL    HW150865   3.987   2.467  13.909
13079SOL    HW250866   3.854   2.539  13.910
13080SOL     OW50867   0.213   2.758  12.508
13080SOL    HW150868   0.180   2.716  12.587
13080SOL    HW250869   0.271   2.827  12.540
13081SOL     OW50870   1.125   2.174  12.690
13081SOL    HW150871   1.188   2.185  12.761
13081SOL    HW250872   1.068   2.103  12.719
13082SOL     OW50873   4.421   2.630  14.270
13082SOL    HW150874   4.336   2.640  14.313
13082SOL    HW250875   4.414   2.681  14.190
13083SOL     OW50876   4.618   2.981  14.601
13083SOL    HW150877   4.686   3.047  14.611
13083SOL    HW250878   4.540   3.021  14.641
13084SOL     OW50879   4.301   2.869  14.094
13084SOL    HW150880   4.244   2.911  14.158
13084SOL    HW250881   4.248   2.862  14.015
13085SOL     OW50882   4.546   2.693  14.536
13085SOL    HW150883   4.520   2.668  14.448
13085SOL    HW250884   4.575   2.784  14.527
13086SOL     OW50885   0.816   1.219  12.594
13086SOL    HW150886   0.736   1.195  12.639
13086SOL    HW250887   0.876   1.245  12.664
13087SOL     OW50888   4.248   2.703  14.927
13087SOL    HW150889   4.257   2.731  14.836
13087SOL    HW250890   4.223   2.611  14.921
13088SOL     OW50891   0.970   3.111  13.390
13088SOL    HW150892   0.989   3.191  13.439
13088SOL    HW250893   0.949   3.046  13.457
13089SOL     OW50894   0.123   2.915  13.653
13089SOL    HW150895   0.171   2.851  13.706
13089SOL    HW250896   0.032   2.907  13.680
13090SOL     OW50897   0.311   3.105  13.759
13090SOL    HW150898   0.292   3.107  13.853
13090SOL    HW250899   0.250   3.040  13.724
13091SOL     OW50900   0.719   1.995  14.091
13091SOL    HW150901   0.650   1.931  14.108
13091SOL    HW250902   0.695   2.036  14.008
13092SOL     OW50903   1.527   0.190  12.283
13092SOL    HW150904   1.549   0.135  12.359
13092SOL    HW250905   1.525   0.279  12.317
13093SOL     OW50906   0.092   2.299  13.821
13093SOL    HW150907   0.030   2.359  13.780
13093SOL    HW250908   0.160   2.355  13.858
13094SOL     OW50909   0.043   1.900  14.209
13094SOL    HW150910   0.052   1.958  14.134
13094SOL    HW250911   4.732   1.873  14.207
13095SOL     OW50912   2.835   2.233  13.165
13095SOL    HW150913   2.876   2.158  13.208
13095SOL    HW250914   2.906   2.296  13.154
13096SOL     OW50915   1.240   1.229  13.389
13096SOL    HW150916   1.232   1.173  13.466
13096SOL    HW250917   1.287   1.306  13.421
13097SOL     OW50918   4.299   2.465  15.061
13097SOL    HW150919   4.249   2.400  15.112
13097SOL    HW250920   4.296   2.544  15.114
13098SOL     OW50921   4.679   2.342  14.450
13098SOL    HW150922   4.645   2.367  14.364
13098SOL    HW250923   4.729   2.418  14.478
13099SOL     OW50924   4.744   2.722  14.243
13099SOL    HW150925   4.744   2.662  14.168
13099SOL    HW250926   4.759   2.808  14.204
13100SOL     OW50927   3.898   2.428  15.885
13100SOL    HW150928   3.916   2.515  15.850
13100SOL    HW250929   3.831   2.391  15.826
13101SOL     OW50930   4.309   1.803  15.574
13101SOL    HW150931   4.345   1.871  15.630
13101SOL    HW250932   4.380   1.778  15.516
13102SOL     OW50933   3.592   3.384  14.760
13102SOL    HW150934   3.563   3.300  14.793
13102SOL    HW250935   3.536   3.449  14.803
13103SOL     OW50936   2.461   4.279  15.972
13103SOL    HW150937   2.445   4.327  15.891
13103SOL    HW250938   2.387   4.302  16.029
13104SOL     OW50939   0.294   2.888  15.232
13104SOL    HW150940   0.227   2.843  15.284
13104SOL    HW250941   0.320   2.823  15.166
13105SOL     OW50942   0.373   2.125  15.353
13105SOL    HW150943   0.423   2.207  15.355
13105SOL    HW250944   0.389   2.085  15.438
13106SOL     OW50945   4.195   2.795  16.935
13106SOL    HW150946   4.148   2.868  16.894
13106SOL    HW250947   4.255   2.764  16.866
13107SOL     OW50948   0.766   2.634  16.464
13107SOL    HW150949   0.749   2.549  16.503
13107SOL    HW250950   0.831   2.675  16.521
13108SOL     OW50951   0.167   3.537  15.152
13108SOL    HW150952   0.253   3.509  15.120
13108SOL    HW250953   0.106   3.510  15.084
13109SOL     OW50954   0.756   1.257  15.417
13109SOL    HW150955   0.673   1.259  15.464
13109SOL    HW250956   0.737   1.210  15.336
13110SOL     OW50957   4.492   2.432  14.865
13110SOL    HW150958   4.536   2.516  14.858
13110SOL    HW250959   4.437   2.439  14.943
13111SOL     OW50960   3.761   2.637  14.722
13111SOL    HW150961   3.668   2.623  14.706
13111SOL    HW250962   3.798   2.549  14.728
13112SOL     OW50963   2.859   2.263  14.457
13112SOL    HW150964   2.839   2.284  14.366
13112SOL    HW250965   2.879   2.347  14.498
13113SOL     OW50966   3.726   1.938  15.153
13113SOL    HW150967   3.697   2.019  15.112
13113SOL    HW250968   3.668   1.926  15.228
13114SOL     OW50969   2.962   3.523  17.903
13114SOL    HW150970   3.045   3.559  17.933
13114SOL    HW250971   2.968   3.526  17.807
13115SOL     OW50972   3.997   2.659  15.785
13115SOL    HW150973   3.994   2.734  15.843
13115SOL    HW250974   4.082   2.665  15.742
13116SOL     OW50975   0.041   2.587  14.465
13116SOL    HW150976   4.771   2.612  14.542
13116SOL    HW250977   0.008   2.644  14.395
13117SOL     OW50978   4.704   2.146  16.159
13117SOL    HW150979   4.637   2.205  16.194
13117SOL    HW250980   4.666   2.112  16.078
13118SOL     OW50981   0.057   1.128  15.617
13118SOL    HW150982   0.137   1.085  15.646
13118SOL    HW250983   0.051   1.106  15.523
13119SOL     OW50984   0.611   3.032  16.595
13119SOL    HW150985   0.649   2.998  16.514
13119SOL    HW250986   0.646   3.120  16.603
13120SOL     OW50987   2.696   2.120  14.657
13120SOL    HW150988   2.764   2.080  14.712
13120SOL    HW250989   2.732   2.116  14.568
13121SOL     OW50990   0.308   2.516  15.350
13121SOL    HW150991   0.259   2.598  15.343
13121SOL    HW250992   0.254   2.461  15.407
13122SOL     OW50993   0.517   1.517  16.029
13122SOL    HW150994   0.577   1.497  15.956
13122SOL    HW250995   0.574   1.525  16.105
13123SOL     OW50996   4.386   1.996  14.734
13123SOL    HW150997   4.460   2.040  14.692
13123SOL    HW250998   4.359   1.930  14.671
13124SOL     OW50999   0.446   1.721  15.094
13124SOL    HW151000   0.460   1.815  15.081
13124SOL    HW251001   0.376   1.716  15.159
13125SOL     OW51002   4.606   2.651  14.795
13125SOL    HW151003   4.702   2.652  14.799
13125SOL    HW251004   4.586   2.658  14.702
13126SOL     OW51005   3.811   2.872  16.094
13126SOL    HW151006   3.774   2.784  16.096
13126SOL    HW251007   3.738   2.928  16.069
13127SOL     OW51008   1.396   3.132  14.749
13127SOL    HW151009   1.352   3.097  14.826
13127SOL    HW251010   1.411   3.056  14.693
13128SOL     OW51011   0.286   3.477  14.850
13128SOL    HW151012   0.192   3.491  14.863
13128SOL    HW251013   0.320   3.457  14.937
13129SOL     OW51014   4.598   2.442  14.211
13129SOL    HW151015   4.542   2.519  14.224
13129SOL    HW251016   4.668   2.473  14.153
13130SOL     OW51017   4.167   2.217  15.153
13130SOL    HW151018   4.160   2.183  15.064
13130SOL    HW251019   4.079   2.209  15.189
13131SOL     OW51020   3.550   2.371  14.787
13131SOL    HW151021   3.638   2.375  14.751
13131SOL    HW251022   3.517   2.460  14.779
13132SOL     OW51023   4.585   3.737  15.705
13132SOL    HW151024   4.521   3.758  15.774
13132SOL    HW251025   4.642   3.813  15.701
13133SOL     OW51026   0.290   2.519  14.425
13133SOL    HW151027   0.199   2.540  14.444
13133SOL    HW251028   0.286   2.444  14.365
13134SOL     OW51029   0.588   2.808  16.340
13134SOL    HW151030   0.648   2.759  16.396
13134SOL    HW251031   0.629   2.894  16.331
13135SOL     OW51032   0.995   2.123  15.016
13135SOL    HW151033   1.070   2.150  15.069
13135SOL    HW251034   0.971   2.201  14.967
13136SOL     OW51035   0.992   1.881  14.721
13136SOL    HW151036   1.054   1.934  14.770
13136SOL    HW251037   1.018   1.790  14.737
13137SOL     OW51038   2.214   2.369   4.302
13137SOL    HW151039   2.250   2.298   4.354
13137SOL    HW251040   2.253   2.448   4.340
13138SOL     OW51041   2.739   0.890  16.587
13138SOL    HW151042   2.749   0.977  16.624
13138SOL    HW251043   2.766   0.899  16.496
13139SOL     OW51044   1.861   4.024   8.690
13139SOL    HW151045   1.793   4.044   8.755
13139SOL    HW251046   1.855   3.929   8.679
13140SOL     OW51047   2.040   1.577  15.546
13140SOL    HW151048   2.056   1.628  15.466
13140SOL    HW251049   2.092   1.620  15.613
13141SOL     OW51050   3.061   3.939  15.750
13141SOL    HW151051   3.040   3.848  15.773
13141SOL    HW251052   3.139   3.959  15.803
13142SOL     OW51053   1.630   2.170   1.692
13142SOL    HW151054   1.550   2.175   1.639
13142SOL    HW251055   1.599   2.175   1.782
13143SOL     OW51056   0.990   1.667   9.857
13143SOL    HW151057   1.020   1.696   9.943
13143SOL    HW251058   1.010   1.741   9.798
13144SOL     OW51059   4.778   2.388  23.822
13144SOL    HW151060   4.718   2.438  23.876
13144SOL    HW251061   0.006   2.440  23.742
13145SOL     OW51062   4.654   2.160  17.098
13145SOL    HW151063   4.660   2.092  17.164
13145SOL    HW251064   4.566   2.150  17.061
13146SOL     OW51065   4.602   2.652  15.633
13146SOL    HW151066   4.683   2.702  15.623
13146SOL    HW251067   4.619   2.568  15.591
13147SOL     OW51068   0.457   1.471  20.737
13147SOL    HW151069   0.386   1.527  20.769
13147SOL    HW251070   0.428   1.444  20.650
13148SOL     OW51071   1.268   2.903  22.455
13148SOL    HW151072   1.244   2.812  22.440
13148SOL    HW251073   1.259   2.945  22.369
13149SOL     OW51074   0.056   4.034  22.662
13149SOL    HW151075   4.766   3.971  22.665
13149SOL    HW251076   0.079   4.049  22.754
13150SOL     OW51077   3.143   3.281   3.295
13150SOL    HW151078   3.155   3.249   3.385
13150SOL    HW251079   3.054   3.254   3.272
13151SOL     OW51080   4.380   2.260  14.403
13151SOL    HW151081   4.399   2.318  14.476
13151SOL    HW251082   4.422   2.177  14.426
13152SOL     OW51083   4.300   0.068  17.634
13152SOL    HW151084   4.335   0.157  17.630
13152SOL    HW251085   4.208   0.078  17.608
13153SOL     OW51086   0.300   1.334  22.959
13153SOL    HW151087   0.365   1.359  23.025
13153SOL    HW251088   0.234   1.403  22.963
13154SOL     OW51089   1.375   2.897   7.969
13154SOL    HW151090   1.288   2.936   7.964
13154SOL    HW251091   1.359   2.803   7.975
13155SOL     OW51092   0.870   1.546  26.812
13155SOL    HW151093   0.961   1.559  26.842
13155SOL    HW251094   0.870   1.579  26.722
13156SOL     OW51095   2.073   3.901  24.426
13156SOL    HW151096   2.079   3.816  24.383
13156SOL    HW251097   1.984   3.931  24.407
13157SOL     OW51098   2.714   1.202  22.209
13157SOL    HW151099   2.698   1.220  22.302
13157SOL    HW251100   2.763   1.120  22.209
13158SOL     OW51101   0.895   3.377  25.320
13158SOL    HW151102   0.951   3.325  25.262
13158SOL    HW251103   0.885   3.324  25.398
13159SOL     OW51104   0.055   4.684  17.023
13159SOL    HW151105   0.077   4.623  17.093
13159SOL    HW251106   0.003   4.633  16.961
13160SOL     OW51107   4.672   1.655  17.663
13160SOL    HW151108   4.664   1.603  17.744
13160SOL    HW251109   4.747   1.712  17.678
13161SOL     OW51110   1.842   0.739   2.993
13161SOL    HW151111   1.923   0.786   2.970
13161SOL    HW251112   1.855   0.651   2.957
13162SOL     OW51113   0.321   3.277   5.163
13162SOL    HW151114   0.361   3.322   5.089
13162SOL    HW251115   0.377   3.300   5.238
13163SOL     OW51116   2.948   0.362  18.255
13163SOL    HW151117   2.963   0.424  18.327
13163SOL    HW251118   2.935   0.418  18.178
13164SOL     OW51119   4.613   3.272  20.973
13164SOL    HW151120   4.556   3.211  20.926
13164SOL    HW251121   4.674   3.216  21.022
13165SOL     OW51122   3.684   0.497  24.814
13165SOL    HW151123   3.703   0.407  24.786
13165SOL    HW251124   3.603   0.490  24.865
13166SOL     OW51125   0.906   2.193  27.584
13166SOL    HW151126   0.813   2.215  27.593
13166SOL    HW251127   0.911   2.100  27.609
13167SOL     OW51128   0.469   1.353  18.118
13167SOL    HW151129   0.468   1.262  18.149
13167SOL    HW251130   0.448   1.347  18.025
13168SOL     OW51131   0.841   0.258  21.341
13168SOL    HW151132   0.797   0.330  21.385
13168SOL    HW251133   0.911   0.299  21.291
13169SOL     OW51134   2.978   0.288   9.155
13169SOL    HW151135   3.068   0.309   9.179
13169SOL    HW251136   2.930   0.291   9.238
13170SOL     OW51137   3.025   3.994  21.967
13170SOL    HW151138   3.068   4.045  22.036
13170SOL    HW251139   2.966   4.056  21.924
13171SOL     OW51140   1.523   2.273  16.170
13171SOL    HW151141   1.609   2.236  16.148
13171SOL    HW251142   1.481   2.287  16.085
13172SOL     OW51143   1.897   1.647  16.625
13172SOL    HW151144   1.801   1.647  16.620
13172SOL    HW251145   1.923   1.562  16.590
13173SOL     OW51146   2.870   3.602   9.618
13173SOL    HW151147   2.894   3.593   9.526
13173SOL    HW251148   2.847   3.513   9.646
13174SOL     OW51149   4.474   2.667  19.458
13174SOL    HW151150   4.440   2.741  19.508
13174SOL    HW251151   4.549   2.702  19.410
13175SOL     OW51152   0.017   3.972  17.334
13175SOL    HW151153   0.112   3.957  17.335
13175SOL    HW251154   4.778   3.992  17.243
13176SOL     OW51155   2.775   1.273  18.941
13176SOL    HW151156   2.699   1.331  18.934
13176SOL    HW251157   2.764   1.229  19.025
13177SOL     OW51158   0.997   0.236   4.335
13177SOL    HW151159   0.961   0.147   4.332
13177SOL    HW251160   1.071   0.231   4.395
13178SOL     OW51161   3.106   0.673  18.213
13178SOL    HW151162   3.199   0.655  18.202
13178SOL    HW251163   3.102   0.756  18.260
13179SOL     OW51164   4.234   1.908  19.027
13179SOL    HW151165   4.244   2.002  19.042
13179SOL    HW251166   4.323   1.876  19.014
13180SOL     OW51167   3.145   3.527  16.729
13180SOL    HW151168   3.162   3.437  16.756
13180SOL    HW251169   3.199   3.539  16.651
13181SOL     OW51170   3.090   1.390  22.885
13181SOL    HW151171   3.005   1.432  22.899
13181SOL    HW251172   3.140   1.411  22.964
13182SOL     OW51173   3.222   0.786  26.767
13182SOL    HW151174   3.170   0.867  26.769
13182SOL    HW251175   3.157   0.717  26.778
13183SOL     OW51176   2.339   4.072  23.757
13183SOL    HW151177   2.382   4.048  23.839
13183SOL    HW251178   2.410   4.090  23.696
13184SOL     OW51179   3.617   3.354  15.785
13184SOL    HW151180   3.670   3.370  15.706
13184SOL    HW251181   3.528   3.345  15.753
13185SOL     OW51182   4.621   4.249  17.634
13185SOL    HW151183   4.681   4.190  17.588
13185SOL    HW251184   4.562   4.281  17.566
13186SOL     OW51185   1.946   3.112   0.879
13186SOL    HW151186   2.034   3.077   0.870
13186SOL    HW251187   1.954   3.184   0.941
13187SOL     OW51188   0.681   3.825  28.516
13187SOL    HW151189   0.673   3.917   0.020
13187SOL    HW251190   0.696   3.777   0.075
13188SOL     OW51191   0.587   2.545  25.371
13188SOL    HW151192   0.667   2.582  25.409
13188SOL    HW251193   0.615   2.507  25.288
13189SOL     OW51194   0.689   3.243   5.847
13189SOL    HW151195   0.648   3.251   5.933
13189SOL    HW251196   0.653   3.315   5.795
13190SOL     OW51197   2.839   2.792  19.498
13190SOL    HW151198   2.856   2.789  19.592
13190SOL    HW251199   2.925   2.799  19.458
13191SOL     OW51200   1.554   0.948   8.518
13191SOL    HW151201   1.541   1.040   8.495
13191SOL    HW251202   1.544   0.946   8.613
13192SOL     OW51203   1.799   3.361   6.671
13192SOL    HW151204   1.884   3.400   6.651
13192SOL    HW251205   1.741   3.391   6.601
13193SOL     OW51206   2.462   1.262   0.665
13193SOL    HW151207   2.522   1.232   0.597
13193SOL    HW251208   2.427   1.181   0.703
13194SOL     OW51209   1.666   1.433  25.686
13194SOL    HW151210   1.742   1.477  25.722
13194SOL    HW251211   1.648   1.361  25.747
13195SOL     OW51212   3.971   3.491  27.401
13195SOL    HW151213   3.893   3.511  27.349
13195SOL    HW251214   4.040   3.546  27.363
13196SOL     OW51215   3.931   1.400   7.403
13196SOL    HW151216   3.942   1.471   7.467
13196SOL    HW251217   3.849   1.357   7.429
13197SOL     OW51218   1.045   3.243   9.918
13197SOL    HW151219   0.979   3.184   9.882
13197SOL    HW251220   1.097   3.187   9.976
13198SOL     OW51221   2.543   2.232  25.224
13198SOL    HW151222   2.626   2.266  25.190
13198SOL    HW251223   2.502   2.190  25.148
13199SOL     OW51224   1.420   2.865  25.220
13199SOL    HW151225   1.423   2.834  25.130
13199SOL    HW251226   1.460   2.795  25.271
13200SOL     OW51227   3.488   2.549   7.055
13200SOL    HW151228   3.519   2.622   7.108
13200SOL    HW251229   3.450   2.488   7.118
13201SOL     OW51230   2.732   0.958   9.177
13201SOL    HW151231   2.771   0.941   9.262
13201SOL    HW251232   2.640   0.979   9.196
13202SOL     OW51233   4.779   3.036   8.390
13202SOL    HW151234   0.056   3.001   8.458
13202SOL    HW251235   4.703   3.069   8.437
13203SOL     OW51236   0.757   2.202  24.159
13203SOL    HW151237   0.709   2.122  24.176
13203SOL    HW251238   0.749   2.216  24.065
13204SOL     OW51239   2.678   4.009  22.348
13204SOL    HW151240   2.685   4.098  22.383
13204SOL    HW251241   2.697   4.019  22.255
13205SOL     OW51242   3.235   2.478  18.903
13205SOL    HW151243   3.322   2.440  18.905
13205SOL    HW251244   3.181   2.412  18.859
13206SOL     OW51245   4.113   2.199   7.056
13206SOL    HW151246   4.064   2.137   7.111
13206SOL    HW251247   4.051   2.222   6.987
13207SOL     OW51248   4.724   3.158   2.572
13207SOL    HW151249   4.691   3.095   2.636
13207SOL    HW251250   4.733   3.239   2.622
13208SOL     OW51251   3.008   3.638  26.611
13208SOL    HW151252   2.959   3.559  26.635
13208SOL    HW251253   2.941   3.705  26.598
13209SOL     OW51254   3.792   3.673  22.071
13209SOL    HW151255   3.756   3.746  22.121
13209SOL    HW251256   3.829   3.714  21.992
13210SOL     OW51257   0.812   0.326   1.959
13210SOL    HW151258   0.838   0.361   1.874
13210SOL    HW251259   0.894   0.316   2.007
13211SOL     OW51260   0.273   4.303  25.707
13211SOL    HW151261   0.246   4.376  25.651
13211SOL    HW251262   0.334   4.253  25.653
13212SOL     OW51263   4.479   3.850  22.132
13212SOL    HW151264   4.435   3.828  22.050
13212SOL    HW251265   4.424   3.918  22.171
13213SOL     OW51266   4.280   0.174  28.495
13213SOL    HW151267   4.310   0.259   0.005
13213SOL    HW251268   4.281   0.182  28.400
13214SOL     OW51269   0.531   2.095  19.817
13214SOL    HW151270   0.473   2.142  19.877
13214SOL    HW251271   0.554   2.015  19.864
13215SOL     OW51272   3.128   4.337  19.533
13215SOL    HW151273   3.052   4.284  19.513
13215SOL    HW251274   3.130   4.404  19.465
13216SOL     OW51275   4.280   2.298  24.482
13216SOL    HW151276   4.322   2.248  24.412
13216SOL    HW251277   4.350   2.313  24.546
13217SOL     OW51278   1.811   0.245   0.296
13217SOL    HW151279   1.895   0.289   0.280
13217SOL    HW251280   1.762   0.258   0.215
13218SOL     OW51281   3.794   3.561  20.570
13218SOL    HW151282   3.736   3.620  20.520
13218SOL    HW251283   3.862   3.535  20.508
13219SOL     OW51284   0.060   4.697   2.325
13219SOL    HW151285   0.128   4.649   2.373
13219SOL    HW251286   0.095   0.005   2.317
13220SOL     OW51287   3.084   2.599   5.721
13220SOL    HW151288   3.124   2.625   5.804
13220SOL    HW251289   3.096   2.675   5.664
13221SOL     OW51290   0.356   1.167  19.727
13221SOL    HW151291   0.388   1.166  19.637
13221SOL    HW251292   0.262   1.186  19.718
13222SOL     OW51293   4.233   3.784  25.745
13222SOL    HW151294   4.226   3.719  25.675
13222SOL    HW251295   4.192   3.863  25.710
13223SOL     OW51296   4.512   0.591  18.143
13223SOL    HW151297   4.429   0.637  18.156
13223SOL    HW251298   4.550   0.631  18.065
13224SOL     OW51299   1.368   0.599  24.832
13224SOL    HW151300   1.391   0.614  24.924
13224SOL    HW251301   1.418   0.665  24.784
13225SOL     OW51302   0.404   0.908   5.592
13225SOL    HW151303   0.308   0.917   5.598
13225SOL    HW251304   0.431   0.884   5.680
13226SOL     OW51305   1.748   2.355   4.072
13226SOL    HW151306   1.834   2.382   4.104
13226SOL    HW251307   1.752   2.371   3.977
13227SOL     OW51308   0.818   0.709  26.833
13227SOL    HW151309   0.764   0.781  26.862
13227SOL    HW251310   0.858   0.674  26.913
13228SOL     OW51311   1.794   4.606  27.041
13228SOL    HW151312   1.848   4.568  27.111
13228SOL    HW251313   1.853   4.611  26.966
13229SOL     OW51314   0.590   3.702   0.234
13229SOL    HW151315   0.502   3.738   0.235
13229SOL    HW251316   0.578   3.607   0.229
13230SOL     OW51317   1.280   0.247   0.368
13230SOL    HW151318   1.305   0.305   0.441
13230SOL    HW251319   1.350   0.182   0.365
13231SOL     OW51320   4.602   2.403   8.961
13231SOL    HW151321   4.639   2.368   8.879
13231SOL    HW251322   4.678   2.435   9.009
13232SOL     OW51323   2.106   3.759   1.942
13232SOL    HW151324   2.063   3.830   1.894
13232SOL    HW251325   2.093   3.681   1.887
13233SOL     OW51326   1.944   3.521   9.193
13233SOL    HW151327   1.989   3.549   9.113
13233SOL    HW251328   1.897   3.442   9.167
13234SOL     OW51329   1.213   2.991  26.884
13234SOL    HW151330   1.175   3.076  26.862
13234SOL    HW251331   1.272   3.009  26.957
13235SOL     OW51332   2.379   3.530   2.298
13235SOL    HW151333   2.433   3.507   2.223
13235SOL    HW251334   2.360   3.446   2.340
13236SOL     OW51335   4.668   1.642  23.441
13236SOL    HW151336   4.626   1.655  23.356
13236SOL    HW251337   4.655   1.550  23.461
13237SOL     OW51338   0.952   3.060   4.898
13237SOL    HW151339   0.891   2.997   4.936
13237SOL    HW251340   1.036   3.042   4.941
13238SOL     OW51341   2.607   3.933   5.003
13238SOL    HW151342   2.671   4.003   5.017
13238SOL    HW251343   2.660   3.853   4.997
13239SOL     OW51344   1.274   2.648  19.627
13239SOL    HW151345   1.364   2.635  19.597
13239SOL    HW251346   1.258   2.741  19.615
13240SOL     OW51347   2.294   4.424   7.705
13240SOL    HW151348   2.234   4.402   7.633
13240SOL    HW251349   2.243   4.480   7.762
13241SOL     OW51350   2.870   3.338   0.658
13241SOL    HW151351   2.774   3.340   0.663
13241SOL    HW251352   2.889   3.344   0.565
13242SOL     OW51353   1.829   1.546  21.149
13242SOL    HW151354   1.779   1.595  21.083
13242SOL    HW251355   1.812   1.454  21.129
13243SOL     OW51356   3.515   0.548   7.848
13243SOL    HW151357   3.441   0.516   7.899
13243SOL    HW251358   3.498   0.642   7.836
13244SOL     OW51359   3.624   0.544  16.453
13244SOL    HW151360   3.681   0.592  16.393
13244SOL    HW251361   3.535   0.568  16.427
13245SOL     OW51362   0.398   4.162  21.923
13245SOL    HW151363   0.381   4.117  22.005
13245SOL    HW251364   0.353   4.246  21.931
13246SOL     OW51365   2.661   0.558  20.498
13246SOL    HW151366   2.670   0.651  20.479
13246SOL    HW251367   2.594   0.528  20.436
13247SOL     OW51368   1.782   4.123   4.823
13247SOL    HW151369   1.833   4.188   4.871
13247SOL    HW251370   1.725   4.083   4.889
13248SOL     OW51371   4.002   0.053  25.957
13248SOL    HW151372   4.073   4.779  25.924
13248SOL    HW251373   4.001   0.129  25.899
13249SOL     OW51374   2.428   2.497  22.931
13249SOL    HW151375   2.402   2.480  23.022
13249SOL    HW251376   2.517   2.531  22.938
13250SOL     OW51377   0.725   1.020   4.153
13250SOL    HW151378   0.798   1.075   4.180
13250SOL    HW251379   0.654   1.043   4.213
13251SOL     OW51380   3.614   2.699   7.511
13251SOL    HW151381   3.556   2.775   7.501
13251SOL    HW251382   3.699   2.736   7.536
13252SOL     OW51383   2.303   3.803   1.056
13252SOL    HW151384   2.293   3.763   1.143
13252SOL    HW251385   2.390   3.844   1.059
13253SOL     OW51386   0.230   3.247  24.045
13253SOL    HW151387   0.257   3.302  24.118
13253SOL    HW251388   0.272   3.285  23.968
13254SOL     OW51389   3.068   0.850   7.952
13254SOL    HW151390   3.105   0.762   7.939
13254SOL    HW251391   2.992   0.836   8.009
13255SOL     OW51392   2.062   4.274  17.976
13255SOL    HW151393   1.996   4.205  17.968
13255SOL    HW251394   2.107   4.275  17.892
13256SOL     OW51395   2.830   2.066  19.205
13256SOL    HW151396   2.887   1.996  19.174
13256SOL    HW251397   2.816   2.047  19.297
13257SOL     OW51398   0.353   2.805  18.992
13257SOL    HW151399   0.327   2.750  18.918
13257SOL    HW251400   0.307   2.888  18.977
13258SOL     OW51401   3.837   2.168  17.717
13258SOL    HW151402   3.909   2.192  17.775
13258SOL    HW251403   3.860   2.208  17.633
13259SOL     OW51404   1.129   4.611  26.841
13259SOL    HW151405   1.146   4.642  26.930
13259SOL    HW251406   1.105   4.519  26.851
13260SOL     OW51407   2.160   0.291   0.520
13260SOL    HW151408   2.095   0.222   0.534
13260SOL    HW251409   2.231   0.247   0.473
13261SOL     OW51410   0.836   0.375   6.385
13261SOL    HW151411   0.921   0.414   6.363
13261SOL    HW251412   0.837   0.368   6.480
13262SOL     OW51413   1.372   1.106   4.365
13262SOL    HW151414   1.399   1.160   4.291
13262SOL    HW251415   1.445   1.112   4.427
13263SOL     OW51416   1.091   1.648  26.515
13263SOL    HW151417   1.085   1.737  26.481
13263SOL    HW251418   1.138   1.600  26.447
13264SOL     OW51419   1.743   0.029  27.429
13264SOL    HW151420   1.778   4.733  27.475
13264SOL    HW251421   1.795   0.102  27.462
13265SOL     OW51422   3.179   3.446   4.673
13265SOL    HW151423   3.113   3.424   4.607
13265SOL    HW251424   3.245   3.378   4.664
13266SOL     OW51425   3.893   3.330  22.886
13266SOL    HW151426   3.935   3.416  22.893
13266SOL    HW251427   3.960   3.274  22.846
13267SOL     OW51428   0.547   2.121   8.049
13267SOL    HW151429   0.614   2.116   7.981
13267SOL    HW251430   0.592   2.158   8.125
13268SOL     OW51431   3.184   2.165  26.294
13268SOL    HW151432   3.139   2.148  26.377
13268SOL    HW251433   3.264   2.211  26.320
13269SOL     OW51434   3.796   3.717  26.633
13269SOL    HW151435   3.876   3.670  26.609
13269SOL    HW251436   3.766   3.757  26.552
13270SOL     OW51437   4.708   1.722  24.590
13270SOL    HW151438   0.009   1.691  24.628
13270SOL    HW251439   4.682   1.653  24.529
13271SOL     OW51440   1.559   1.824   6.551
13271SOL    HW151441   1.541   1.901   6.604
13271SOL    HW251442   1.590   1.860   6.467
13272SOL     OW51443   1.306   2.929   5.215
13272SOL    HW151444   1.390   2.952   5.176
13272SOL    HW251445   1.309   2.833   5.224
13273SOL     OW51446   3.946   0.233   9.282
13273SOL    HW151447   3.877   0.168   9.296
13273SOL    HW251448   4.023   0.181   9.257
13274SOL     OW51449   4.034   0.686  21.599
13274SOL    HW151450   3.993   0.726  21.677
13274SOL    HW251451   4.001   0.739  21.526
13275SOL     OW51452   0.523   1.763   4.415
13275SOL    HW151453   0.619   1.761   4.420
13275SOL    HW251454   0.502   1.856   4.401
13276SOL     OW51455   2.475   1.845  27.372
13276SOL    HW151456   2.385   1.856  27.403
13276SOL    HW251457   2.469   1.847  27.277
13277SOL     OW51458   0.929   3.150   5.489
13277SOL    HW151459   1.011   3.158   5.537
13277SOL    HW251460   0.954   3.113   5.404
13278SOL     OW51461   0.507   1.503  17.710
13278SOL    HW151462   0.510   1.413  17.743
13278SOL    HW251463   0.532   1.557  17.785
13279SOL     OW51464   2.846   3.262   0.059
13279SOL    HW151465   2.799   3.187   0.021
13279SOL    HW251466   2.795   3.338   0.030
13280SOL     OW51467   1.141   0.932  20.868
13280SOL    HW151468   1.153   1.014  20.820
13280SOL    HW251469   1.141   0.958  20.960
13281SOL     OW51470   0.063   1.359  22.019
13281SOL    HW151471   0.122   1.285  22.006
13281SOL    HW251472   0.115   1.422  22.069
13282SOL     OW51473   3.209   0.830  25.491
13282SOL    HW151474   3.244   0.742  25.505
13282SOL    HW251475   3.250   0.860  25.410
13283SOL     OW51476   0.102   0.303   0.774
13283SOL    HW151477   0.011   0.321   0.797
13283SOL    HW251478   0.145   0.285   0.857
13284SOL     OW51479   0.801   4.508   5.350
13284SOL    HW151480   0.827   4.582   5.405
13284SOL    HW251481   0.857   4.436   5.378
13285SOL     OW51482   2.157   1.104   8.398
13285SOL    HW151483   2.119   1.024   8.433
13285SOL    HW251484   2.209   1.075   8.323
13286SOL     OW51485   2.268   4.008  18.957
13286SOL    HW151486   2.292   3.924  18.917
13286SOL    HW251487   2.249   3.986  19.048
13287SOL     OW51488   3.683   1.807  10.234
13287SOL    HW151489   3.657   1.717  10.218
13287SOL    HW251490   3.639   1.857  10.165
13288SOL     OW51491   2.492   2.698  20.750
13288SOL    HW151492   2.579   2.658  20.744
13288SOL    HW251493   2.433   2.625  20.763
13289SOL     OW51494   0.794   2.398   5.980
13289SOL    HW151495   0.762   2.449   6.055
13289SOL    HW251496   0.772   2.452   5.904
13290SOL     OW51497   0.212   4.775  27.755
13290SOL    HW151498   0.297   4.775  27.711
13290SOL    HW251499   0.207   4.689  27.798
13291SOL     OW51500   1.477   2.028  23.902
13291SOL    HW151501   1.552   2.076  23.938
13291SOL    HW251502   1.511   1.941  23.882
13292SOL     OW51503   3.165   4.181  22.140
13292SOL    HW151504   3.150   4.274  22.129
13292SOL    HW251505   3.236   4.176  22.204
13293SOL     OW51506   4.082   4.694   8.074
13293SOL    HW151507   4.001   4.659   8.110
13293SOL    HW251508   4.059   0.002   8.046
13294SOL     OW51509   2.386   0.321   8.466
13294SOL    HW151510   2.461   0.273   8.430
13294SOL    HW251511   2.420   0.407   8.489
13295SOL     OW51512   3.475   4.325  18.461
13295SOL    HW151513   3.546   4.344  18.522
13295SOL    HW251514   3.511   4.346  18.375
13296SOL     OW51515   1.100   1.704  19.782
13296SOL    HW151516   1.178   1.704  19.726
13296SOL    HW251517   1.050   1.627  19.753
13297SOL     OW51518   1.796   2.799   2.305
13297SOL    HW151519   1.825   2.792   2.395
13297SOL    HW251520   1.794   2.708   2.273
13298SOL     OW51521   3.090   1.196   1.536
13298SOL    HW151522   3.130   1.138   1.601
13298SOL    HW251523   3.023   1.244   1.585
13299SOL     OW51524   2.597   2.596   0.919
13299SOL    HW151525   2.613   2.548   0.838
13299SOL    HW251526   2.512   2.564   0.950
13300SOL     OW51527   4.457   3.861   3.237
13300SOL    HW151528   4.467   3.770   3.266
13300SOL    HW251529   4.373   3.888   3.273
13301SOL     OW51530   3.231   1.500   6.906
13301SOL    HW151531   3.306   1.509   6.848
13301SOL    HW251532   3.218   1.588   6.942
13302SOL     OW51533   1.111   1.306   2.340
13302SOL    HW151534   1.095   1.214   2.360
13302SOL    HW251535   1.121   1.348   2.425
13303SOL     OW51536   2.179   1.421  20.325
13303SOL    HW151537   2.222   1.349  20.371
13303SOL    HW251538   2.102   1.381  20.285
13304SOL     OW51539   0.525   0.640  26.635
13304SOL    HW151540   0.466   0.565  26.623
13304SOL    HW251541   0.506   0.671  26.724
13305SOL     OW51542   2.353   4.212  20.646
13305SOL    HW151543   2.351   4.259  20.563
13305SOL    HW251544   2.290   4.140  20.634
13306SOL     OW51545   0.093   2.083   0.829
13306SOL    HW151546   0.038   2.007   0.848
13306SOL    HW251547   0.134   2.104   0.913
13307SOL     OW51548   0.855   2.579   1.735
13307SOL    HW151549   0.777   2.598   1.788
13307SOL    HW251550   0.832   2.500   1.687
13308SOL     OW51551   3.775   3.493   2.982
13308SOL    HW151552   3.764   3.583   3.014
13308SOL    HW251553   3.814   3.502   2.896
13309SOL     OW51554   3.114   4.231  27.296
13309SOL    HW151555   3.079   4.146  27.324
13309SOL    HW251556   3.179   4.210  27.230
13310SOL     OW51557   2.601   2.549   1.554
13310SOL    HW151558   2.610   2.553   1.459
13310SOL    HW251559   2.541   2.476   1.569
13311SOL     OW51560   2.150   2.707  20.943
13311SOL    HW151561   2.086   2.654  20.990
13311SOL    HW251562   2.148   2.792  20.987
13312SOL     OW51563   1.285   2.030   6.460
13312SOL    HW151564   1.239   1.957   6.500
13312SOL    HW251565   1.256   2.030   6.369
13313SOL     OW51566   1.228   4.182  27.524
13313SOL    HW151567   1.288   4.222  27.588
13313SOL    HW251568   1.169   4.129  27.577
13314SOL     OW51569   0.177   2.597  19.833
13314SOL    HW151570   0.239   2.606  19.904
13314SOL    HW251571   0.206   2.519  19.785
13315SOL     OW51572   2.239   4.184   9.407
13315SOL    HW151573   2.174   4.115   9.417
13315SOL    HW251574   2.265   4.206   9.497
13316SOL     OW51575   3.547   3.864   7.193
13316SOL    HW151576   3.534   3.817   7.111
13316SOL    HW251577   3.632   3.834   7.225
13317SOL     OW51578   2.348   4.570   5.409
13317SOL    HW151579   2.291   4.635   5.369
13317SOL    HW251580   2.297   4.489   5.406
13318SOL     OW51581   3.794   3.331  24.746
13318SOL    HW151582   3.878   3.362  24.779
13318SOL    HW251583   3.746   3.304  24.824
13319SOL     OW51584   1.820   0.426   6.072
13319SOL    HW151585   1.740   0.479   6.081
13319SOL    HW251586   1.888   0.489   6.047
13320SOL     OW51587   4.601   3.652  26.925
13320SOL    HW151588   4.609   3.657  27.021
13320SOL    HW251589   4.511   3.624  26.910
13321SOL     OW51590   3.987   1.210  21.777
13321SOL    HW151591   4.072   1.249  21.755
13321SOL    HW251592   3.955   1.176  21.694
13322SOL     OW51593   1.845   2.199  25.258
13322SOL    HW151594   1.886   2.272  25.212
13322SOL    HW251595   1.848   2.225  25.350
13323SOL     OW51596   3.000   3.430   7.727
13323SOL    HW151597   3.088   3.392   7.727
13323SOL    HW251598   3.009   3.509   7.780
13324SOL     OW51599   1.920   0.840  24.363
13324SOL    HW151600   1.995   0.841  24.423
13324SOL    HW251601   1.905   0.932  24.343
13325SOL     OW51602   1.831   3.681   7.887
13325SOL    HW151603   1.754   3.694   7.943
13325SOL    HW251604   1.834   3.760   7.833
13326SOL     OW51605   4.391   4.480   8.772
13326SOL    HW151606   4.407   4.575   8.773
13326SOL    HW251607   4.381   4.456   8.864
13327SOL     OW51608   2.809   0.182  19.649
13327SOL    HW151609   2.888   0.206  19.697
13327SOL    HW251610   2.808   0.240  19.573
13328SOL     OW51611   1.422   4.227  21.571
13328SOL    HW151612   1.347   4.169  21.562
13328SOL    HW251613   1.397   4.306  21.523
13329SOL     OW51614   2.019   3.812  21.589
13329SOL    HW151615   1.964   3.810  21.667
13329SOL    HW251616   1.966   3.768  21.522
13330SOL     OW51617   0.831   4.540   6.101
13330SOL    HW151618   0.903   4.599   6.077
13330SOL    HW251619   0.836   4.535   6.197
13331SOL     OW51620   4.699   0.607  21.778
13331SOL    HW151621   4.713   0.702  21.783
13331SOL    HW251622   4.605   0.598  21.760
13332SOL     OW51623   0.486   4.503   6.306
13332SOL    HW151624   0.523   4.421   6.274
13332SOL    HW251625   0.415   4.524   6.245
13333SOL     OW51626   4.220   2.069  11.636
13333SOL    HW151627   4.278   1.994  11.648
13333SOL    HW251628   4.279   2.142  11.618
13334SOL     OW51629   1.681   3.670   0.104
13334SOL    HW151630   1.716   3.759   0.107
13334SOL    HW251631   1.758   3.614   0.108
13335SOL     OW51632   3.739   1.651   4.184
13335SOL    HW151633   3.758   1.560   4.205
13335SOL    HW251634   3.679   1.646   4.110
13336SOL     OW51635   3.134   2.945  22.446
13336SOL    HW151636   3.110   2.854  22.427
13336SOL    HW251637   3.134   2.951  22.541
13337SOL     OW51638   1.991   4.017   0.929
13337SOL    HW151639   1.928   4.073   0.973
13337SOL    HW251640   1.997   3.939   0.984
13338SOL     OW51641   0.980   0.567  26.615
13338SOL    HW151642   0.980   0.482  26.658
13338SOL    HW251643   0.925   0.622  26.671
13339SOL     OW51644   3.621   2.596  23.336
13339SOL    HW151645   3.613   2.691  23.332
13339SOL    HW251646   3.530   2.565  23.337
13340SOL     OW51647   2.429   1.983  21.415
13340SOL    HW151648   2.516   2.021  21.427
13340SOL    HW251649   2.380   2.050  21.366
13341SOL     OW51650   2.785   3.402  23.915
13341SOL    HW151651   2.700   3.397  23.959
13341SOL    HW251652   2.813   3.493  23.928
13342SOL     OW51653   1.656   0.349  19.329
13342SOL    HW151654   1.708   0.279  19.290
13342SOL    HW251655   1.721   0.407  19.370
13343SOL     OW51656   4.766   4.751  23.979
13343SOL    HW151657   0.073   4.781  23.955
13343SOL    HW251658   4.745   0.019  24.058
13344SOL     OW51659   3.058   1.754  24.791
13344SOL    HW151660   2.982   1.696  24.786
13344SOL    HW251661   3.050   1.811  24.715
13345SOL     OW51662   1.322   0.342  22.697
13345SOL    HW151663   1.368   0.427  22.695
13345SOL    HW251664   1.391   0.278  22.716
13346SOL     OW51665   1.458   3.961  27.536
13346SOL    HW151666   1.528   3.977  27.600
13346SOL    HW251667   1.475   4.023  27.465
13347SOL     OW51668   1.445   4.584   6.385
13347SOL    HW151669   1.521   4.536   6.353
13347SOL    HW251670   1.377   4.517   6.397
13348SOL     OW51671   1.608   0.680   7.063
13348SOL    HW151672   1.564   0.680   6.978
13348SOL    HW251673   1.681   0.619   7.052
13349SOL     OW51674   1.143   4.759  17.370
13349SOL    HW151675   1.085   4.779  17.296
13349SOL    HW251676   1.083   4.738  17.442
13350SOL     OW51677   4.773   0.548  18.763
13350SOL    HW151678   0.082   0.517  18.766
13350SOL    HW251679   4.779   0.634  18.721
13351SOL     OW51680   4.179   1.000   5.442
13351SOL    HW151681   4.269   0.972   5.459
13351SOL    HW251682   4.151   0.944   5.369
13352SOL     OW51683   2.825   2.779   1.580
13352SOL    HW151684   2.875   2.856   1.551
13352SOL    HW251685   2.823   2.722   1.503
13353SOL     OW51686   1.552   4.544   1.710
13353SOL    HW151687   1.576   4.577   1.624
13353SOL    HW251688   1.486   4.477   1.693
13354SOL     OW51689   4.100   0.647   6.496
13354SOL    HW151690   4.033   0.648   6.428
13354SOL    HW251691   4.066   0.584   6.561
13355SOL     OW51692   2.629   4.065  25.719
13355SOL    HW151693   2.536   4.075  25.739
13355SOL    HW251694   2.655   3.985  25.765
13356SOL     OW51695   2.311   1.040   1.701
13356SOL    HW151696   2.400   1.073   1.713
13356SOL    HW251697   2.298   1.040   1.606
13357SOL     OW51698   2.726   2.127   1.439
13357SOL    HW151699   2.816   2.121   1.470
13357SOL    HW251700   2.674   2.143   1.517
13358SOL     OW51701   1.522   2.297  20.869
13358SOL    HW151702   1.528   2.316  20.775
13358SOL    HW251703   1.435   2.328  20.893
13359SOL     OW51704   2.768   3.810   7.341
13359SOL    HW151705   2.730   3.817   7.254
13359SOL    HW251706   2.766   3.899   7.376
13360SOL     OW51707   1.753   2.477   7.887
13360SOL    HW151708   1.738   2.382   7.879
13360SOL    HW251709   1.794   2.501   7.804
13361SOL     OW51710   0.038   2.318   2.123
13361SOL    HW151711   0.044   2.409   2.153
13361SOL    HW251712   0.101   2.313   2.051
13362SOL     OW51713   2.104   2.735   9.709
13362SOL    HW151714   2.099   2.691   9.624
13362SOL    HW251715   2.104   2.828   9.688
13363SOL     OW51716   3.857   0.449  25.045
13363SOL    HW151717   3.803   0.495  24.981
13363SOL    HW251718   3.862   0.509  25.120
13364SOL     OW51719   0.472   1.657  27.085
13364SOL    HW151720   0.508   1.604  27.014
13364SOL    HW251721   0.548   1.680  27.139
13365SOL     OW51722   3.531   0.398  27.041
13365SOL    HW151723   3.453   0.451  27.019
13365SOL    HW251724   3.558   0.430  27.127
13366SOL     OW51725   2.349   1.928   6.849
13366SOL    HW151726   2.275   1.897   6.797
13366SOL    HW251727   2.348   1.875   6.928
13367SOL     OW51728   2.156   2.789   1.766
13367SOL    HW151729   2.163   2.700   1.802
13367SOL    HW251730   2.191   2.845   1.835
13368SOL     OW51731   0.972   1.150  10.255
13368SOL    HW151732   0.921   1.198  10.320
13368SOL    HW251733   1.039   1.105  10.306
13369SOL     OW51734   3.005   3.390  25.128
13369SOL    HW151735   3.078   3.452  25.119
13369SOL    HW251736   2.962   3.416  25.210
13370SOL     OW51737   1.336   3.563   3.056
13370SOL    HW151738   1.340   3.469   3.074
13370SOL    HW251739   1.419   3.597   3.088
13371SOL     OW51740   3.739   1.807   1.355
13371SOL    HW151741   3.834   1.795   1.349
13371SOL    HW251742   3.706   1.721   1.382
13372SOL     OW51743   2.178   1.782   6.682
13372SOL    HW151744   2.163   1.695   6.718
13372SOL    HW251745   2.092   1.810   6.650
13373SOL     OW51746   4.492   3.531  19.905
13373SOL    HW151747   4.456   3.562  19.822
13373SOL    HW251748   4.542   3.452  19.881
13374SOL     OW51749   1.273   0.693   1.106
13374SOL    HW151750   1.252   0.775   1.062
13374SOL    HW251751   1.353   0.663   1.062
13375SOL     OW51752   4.595   0.058  26.856
13375SOL    HW151753   4.601   0.086  26.947
13375SOL    HW251754   4.507   0.082  26.829
13376SOL     OW51755   4.248   1.178  21.971
13376SOL    HW151756   4.259   1.272  21.989
13376SOL    HW251757   4.163   1.156  22.007
13377SOL     OW51758   4.305   3.060   8.436
13377SOL    HW151759   4.257   2.979   8.416
13377SOL    HW251760   4.335   3.091   8.351
13378SOL     OW51761   0.778   4.419   1.158
13378SOL    HW151762   0.710   4.481   1.184
13378SOL    HW251763   0.816   4.457   1.078
13379SOL     OW51764   0.267   1.945  24.707
13379SOL    HW151765   0.248   1.901  24.790
13379SOL    HW251766   0.346   1.901  24.675
13380SOL     OW51767   2.961   3.996  26.617
13380SOL    HW151768   2.870   4.007  26.588
13380SOL    HW251769   2.963   4.034  26.705
13381SOL     OW51770   0.959   4.654  25.454
13381SOL    HW151771   0.894   4.647  25.385
13381SOL    HW251772   0.989   4.745  25.450
13382SOL     OW51773   0.993   1.959  27.048
13382SOL    HW151774   0.976   1.937  27.139
13382SOL    HW251775   1.087   1.978  27.044
13383SOL     OW51776   3.516   1.299   5.235
13383SOL    HW151777   3.462   1.222   5.216
13383SOL    HW251778   3.509   1.311   5.329
13384SOL     OW51779   2.767   0.351   5.566
13384SOL    HW151780   2.811   0.435   5.579
13384SOL    HW251781   2.705   0.367   5.495
13385SOL     OW51782   0.767   2.550  22.951
13385SOL    HW151783   0.707   2.622  22.930
13385SOL    HW251784   0.711   2.472  22.951
13386SOL     OW51785   0.823   2.632  17.503
13386SOL    HW151786   0.796   2.545  17.473
13386SOL    HW251787   0.865   2.615  17.588
13387SOL     OW51788   2.521   4.382   1.113
13387SOL    HW151789   2.443   4.422   1.073
13387SOL    HW251790   2.585   4.380   1.042
13388SOL     OW51791   0.342   4.602  21.518
13388SOL    HW151792   0.307   4.661  21.585
13388SOL    HW251793   0.403   4.546  21.565
13389SOL     OW51794   4.678   3.348  22.005
13389SOL    HW151795   4.682   3.370  21.912
13389SOL    HW251796   4.770   3.349  22.034
13390SOL     OW51797   2.869   3.760  11.674
13390SOL    HW151798   2.937   3.827  11.664
13390SOL    HW251799   2.800   3.803  11.725
13391SOL     OW51800   3.024   0.455  20.025
13391SOL    HW151801   2.939   0.425  20.056
13391SOL    HW251802   3.006   0.536  19.978
13392SOL     OW51803   2.329   3.113  11.614
13392SOL    HW151804   2.298   3.041  11.560
13392SOL    HW251805   2.301   3.090  11.703
13393SOL     OW51806   3.463   2.046  22.083
13393SOL    HW151807   3.486   1.960  22.116
13393SOL    HW251808   3.527   2.105  22.123
13394SOL     OW51809   1.690   3.251  11.899
13394SOL    HW151810   1.759   3.260  11.965
13394SOL    HW251811   1.681   3.157  11.886
13395SOL     OW51812   3.837   4.530   6.011
13395SOL    HW151813   3.865   4.461   6.071
13395SOL    HW251814   3.886   4.607   6.037
13396SOL     OW51815   2.387   4.168   1.906
13396SOL    HW151816   2.349   4.108   1.841
13396SOL    HW251817   2.462   4.122   1.941
13397SOL     OW51818   2.209   4.012   5.632
13397SOL    HW151819   2.158   3.980   5.706
13397SOL    HW251820   2.167   3.973   5.555
13398SOL     OW51821   0.734   1.103  27.112
13398SOL    HW151822   0.753   1.024  27.062
13398SOL    HW251823   0.658   1.079  27.166
13399SOL     OW51824   1.485   3.057  26.984
13399SOL    HW151825   1.522   3.140  26.954
13399SOL    HW251826   1.555   3.015  27.033
13400SOL     OW51827   2.767   0.239  20.338
13400SOL    HW151828   2.849   0.233  20.387
13400SOL    HW251829   2.782   0.310  20.275
13401SOL     OW51830   0.844   1.647  20.039
13401SOL    HW151831   0.835   1.723  20.097
13401SOL    HW251832   0.894   1.584  20.090
13402SOL     OW51833   1.051   2.331   4.032
13402SOL    HW151834   1.120   2.316   3.967
13402SOL    HW251835   0.975   2.285   3.997
13403SOL     OW51836   3.511   0.059  20.206
13403SOL    HW151837   3.587   0.071  20.262
13403SOL    HW251838   3.497   0.145  20.165
13404SOL     OW51839   1.298   1.155  24.775
13404SOL    HW151840   1.295   1.071  24.820
13404SOL    HW251841   1.223   1.203  24.810
13405SOL     OW51842   3.120   3.560  18.714
13405SOL    HW151843   3.193   3.506  18.684
13405SOL    HW251844   3.065   3.572  18.637
13406SOL     OW51845   0.615   1.481   0.778
13406SOL    HW151846   0.652   1.566   0.753
13406SOL    HW251847   0.521   1.495   0.776
13407SOL     OW51848   3.542   3.124   8.618
13407SOL    HW151849   3.516   3.192   8.555
13407SOL    HW251850   3.637   3.130   8.622
13408SOL     OW51851   2.513   3.879  19.842
13408SOL    HW151852   2.605   3.858  19.824
13408SOL    HW251853   2.499   3.964  19.800
13409SOL     OW51854   3.362   2.640   4.751
13409SOL    HW151855   3.329   2.715   4.702
13409SOL    HW251856   3.368   2.570   4.686
13410SOL     OW51857   1.979   0.448  21.507
13410SOL    HW151858   1.941   0.363  21.484
13410SOL    HW251859   2.066   0.446  21.468
13411SOL     OW51860   1.505   2.991   1.398
13411SOL    HW151861   1.416   2.977   1.429
13411SOL    HW251862   1.505   2.957   1.308
13412SOL     OW51863   1.901   2.458  26.022
13412SOL    HW151864   1.886   2.534  26.079
13412SOL    HW251865   1.907   2.384  26.083
13413SOL     OW51866   2.326   2.024  24.734
13413SOL    HW151867   2.320   2.016  24.639
13413SOL    HW251868   2.269   2.097  24.756
13414SOL     OW51869   3.310   2.720   3.072
13414SOL    HW151870   3.380   2.742   3.133
13414SOL    HW251871   3.232   2.712   3.126
13415SOL     OW51872   2.658   2.489   1.272
13415SOL    HW151873   2.751   2.494   1.292
13415SOL    HW251874   2.649   2.412   1.216
13416SOL     OW51875   4.193   3.322   8.756
13416SOL    HW151876   4.184   3.373   8.836
13416SOL    HW251877   4.260   3.256   8.777
13417SOL     OW51878   2.673   3.076  24.128
13417SOL    HW151879   2.758   3.066  24.172
13417SOL    HW251880   2.609   3.051  24.195
13418SOL     OW51881   3.434   2.955   9.810
13418SOL    HW151882   3.427   3.028   9.748
13418SOL    HW251883   3.526   2.955   9.836
13419SOL     OW51884   2.032   1.179   5.331
13419SOL    HW151885   1.974   1.126   5.386
13419SOL    HW251886   2.101   1.208   5.391
13420SOL     OW51887   4.507   0.287   3.620
13420SOL    HW151888   4.483   0.290   3.527
13420SOL    HW251889   4.534   0.377   3.641
13421SOL     OW51890   2.286   0.088   9.999
13421SOL    HW151891   2.207   0.064  10.048
13421SOL    HW251892   2.354   0.030  10.033
13422SOL     OW51893   4.173   0.860  20.007
13422SOL    HW151894   4.122   0.934  20.039
13422SOL    HW251895   4.110   0.804  19.962
13423SOL     OW51896   0.054   1.226  20.808
13423SOL    HW151897   0.129   1.245  20.864
13423SOL    HW251898   0.087   1.165  20.743
13424SOL     OW51899   3.586   4.277  27.702
13424SOL    HW151900   3.589   4.350  27.763
13424SOL    HW251901   3.535   4.210  27.747
13425SOL     OW51902   3.777   3.813  20.798
13425SOL    HW151903   3.775   3.740  20.860
13425SOL    HW251904   3.824   3.780  20.722
13426SOL     OW51905   3.407   1.154   8.829
13426SOL    HW151906   3.378   1.189   8.914
13426SOL    HW251907   3.363   1.209   8.764
13427SOL     OW51908   3.001   1.751   4.943
13427SOL    HW151909   2.908   1.756   4.922
13427SOL    HW251910   3.032   1.676   4.893
13428SOL     OW51911   3.274   2.391   5.019
13428SOL    HW151912   3.327   2.371   5.096
13428SOL    HW251913   3.285   2.314   4.962
13429SOL     OW51914   2.674   1.570   2.649
13429SOL    HW151915   2.768   1.556   2.638
13429SOL    HW251916   2.636   1.481   2.649
13430SOL     OW51917   4.358   2.079  18.675
13430SOL    HW151918   4.451   2.053  18.678
13430SOL    HW251919   4.311   1.999  18.700
13431SOL     OW51920   2.560   2.484   2.894
13431SOL    HW151921   2.520   2.533   2.966
13431SOL    HW251922   2.561   2.546   2.821
13432SOL     OW51923   3.785   2.810   1.180
13432SOL    HW151924   3.741   2.759   1.112
13432SOL    HW251925   3.757   2.771   1.262
13433SOL     OW51926   4.699   0.914   8.308
13433SOL    HW151927   4.779   0.965   8.297
13433SOL    HW251928   4.628   0.978   8.304
13434SOL     OW51929   3.166   4.347   3.939
13434SOL    HW151930   3.116   4.294   3.876
13434SOL    HW251931   3.098   4.386   3.995
13435SOL     OW51932   4.532   0.172   2.395
13435SOL    HW151933   4.611   0.144   2.442
13435SOL    HW251934   4.470   0.195   2.464
13436SOL     OW51935   1.290   0.723  23.013
13436SOL    HW151936   1.300   0.646  23.069
13436SOL    HW251937   1.195   0.733  23.002
13437SOL     OW51938   1.680   2.614  24.544
13437SOL    HW151939   1.604   2.568  24.508
13437SOL    HW251940   1.683   2.587  24.636
13438SOL     OW51941   3.561   0.314   9.145
13438SOL    HW151942   3.537   0.279   9.231
13438SOL    HW251943   3.655   0.329   9.151
13439SOL     OW51944   4.256   3.684  19.781
13439SOL    HW151945   4.245   3.675  19.876
13439SOL    HW251946   4.201   3.758  19.757
13440SOL     OW51947   2.132   3.477   6.664
13440SOL    HW151948   2.203   3.525   6.622
13440SOL    HW251949   2.176   3.423   6.730
13441SOL     OW51950   0.826   4.560   4.781
13441SOL    HW151951   0.795   4.493   4.841
13441SOL    HW251952   0.756   4.567   4.715
13442SOL     OW51953   1.291   3.530  22.285
13442SOL    HW151954   1.373   3.558  22.325
13442SOL    HW251955   1.306   3.539  22.191
13443SOL     OW51956   2.868   1.527  23.807
13443SOL    HW151957   2.954   1.542  23.847
13443SOL    HW251958   2.812   1.503  23.880
13444SOL     OW51959   0.757   3.593   9.375
13444SOL    HW151960   0.740   3.670   9.429
13444SOL    HW251961   0.683   3.535   9.391
13445SOL     OW51962   3.420   0.549  24.341
13445SOL    HW151963   3.510   0.561  24.310
13445SOL    HW251964   3.430   0.507  24.427
13446SOL     OW51965   3.462   3.175   3.888
13446SOL    HW151966   3.509   3.098   3.857
13446SOL    HW251967   3.416   3.144   3.966
13447SOL     OW51968   3.532   1.369  18.779
13447SOL    HW151969   3.477   1.410  18.846
13447SOL    HW251970   3.577   1.442  18.736
13448SOL     OW51971   4.734   2.246  22.237
13448SOL    HW151972   4.771   2.317  22.185
13448SOL    HW251973   4.747   2.167  22.184
13449SOL     OW51974   1.301   3.520   9.857
13449SOL    HW151975   1.373   3.510   9.919
13449SOL    HW251976   1.222   3.507   9.909
13450SOL     OW51977   2.262   3.488   1.970
13450SOL    HW151978   2.349   3.464   2.001
13450SOL    HW251979   2.253   3.443   1.886
13451SOL     OW51980   4.683   4.217   1.197
13451SOL    HW151981   4.625   4.231   1.123
13451SOL    HW251982   4.702   4.304   1.231
13452SOL     OW51983   1.336   2.303   3.291
13452SOL    HW151984   1.240   2.302   3.282
13452SOL    HW251985   1.353   2.271   3.379
13453SOL     OW51986   2.321   4.516  27.815
13453SOL    HW151987   2.275   4.598  27.835
13453SOL    HW251988   2.283   4.452  27.874
13454SOL     OW51989   0.338   4.609  27.533
13454SOL    HW151990   0.322   4.677  27.467
13454SOL    HW251991   0.250   4.579  27.558
13455SOL     OW51992   2.941   1.640  20.272
13455SOL    HW151993   2.992   1.717  20.297
13455SOL    HW251994   3.001   1.588  20.219
13456SOL     OW51995   3.530   2.066   5.151
13456SOL    HW151996   3.549   2.056   5.057
13456SOL    HW251997   3.564   2.153   5.173
13457SOL     OW51998   0.133   1.014  26.027
13457SOL    HW151999   0.084   1.059  26.096
13457SOL    HW252000   0.137   0.923  26.056
13458SOL     OW52001   2.895   3.327  23.173
13458SOL    HW152002   2.944   3.345  23.093
13458SOL    HW252003   2.896   3.231  23.180
13459SOL     OW52004   3.263   3.271   0.618
13459SOL    HW152005   3.299   3.359   0.631
13459SOL    HW252006   3.269   3.256   0.523
13460SOL     OW52007   0.765   3.379   3.488
13460SOL    HW152008   0.787   3.429   3.409
13460SOL    HW252009   0.804   3.429   3.560
13461SOL     OW52010   3.918   2.450   7.160
13461SOL    HW152011   3.901   2.423   7.069
13461SOL    HW252012   3.885   2.377   7.213
13462SOL     OW52013   3.232   3.127   2.797
13462SOL    HW152014   3.155   3.072   2.813
13462SOL    HW252015   3.206   3.214   2.828
13463SOL     OW52016   0.967   4.035   4.911
13463SOL    HW152017   0.994   4.126   4.928
13463SOL    HW252018   1.050   3.987   4.903
13464SOL     OW52019   4.481   1.368  18.152
13464SOL    HW152020   4.436   1.318  18.085
13464SOL    HW252021   4.573   1.364  18.128
13465SOL     OW52022   1.760   4.690  26.052
13465SOL    HW152023   1.832   4.679  25.990
13465SOL    HW252024   1.723   4.603  26.063
13466SOL     OW52025   2.534   3.232  21.349
13466SOL    HW152026   2.445   3.236  21.383
13466SOL    HW252027   2.552   3.321  21.317
13467SOL     OW52028   2.058   3.334   3.012
13467SOL    HW152029   2.023   3.276   3.080
13467SOL    HW252030   2.152   3.317   3.011
13468SOL     OW52031   4.029   0.287   0.222
13468SOL    HW152032   4.074   0.239   0.292
13468SOL    HW252033   3.998   0.219   0.162
13469SOL     OW52034   3.010   1.214   3.609
13469SOL    HW152035   3.062   1.291   3.633
13469SOL    HW252036   3.067   1.164   3.551
13470SOL     OW52037   1.228   2.953  27.680
13470SOL    HW152038   1.317   2.971  27.710
13470SOL    HW252039   1.200   2.877  27.730
13471SOL     OW52040   3.933   4.742  18.674
13471SOL    HW152041   4.019   0.003  18.666
13471SOL    HW252042   3.906   4.726  18.584
13472SOL     OW52043   0.435   3.981   2.603
13472SOL    HW152044   0.470   3.914   2.544
13472SOL    HW252045   0.502   4.050   2.603
13473SOL     OW52046   2.925   2.590   7.181
13473SOL    HW152047   2.880   2.506   7.188
13473SOL    HW252048   2.979   2.582   7.103
13474SOL     OW52049   2.436   3.928  10.714
13474SOL    HW152050   2.478   3.847  10.746
13474SOL    HW252051   2.481   3.998  10.761
13475SOL     OW52052   0.051   2.027  10.117
13475SOL    HW152053   0.006   1.972  10.053
13475SOL    HW252054   0.078   1.967  10.186
13476SOL     OW52055   0.545   2.588  28.393
13476SOL    HW152056   0.524   2.659  28.454
13476SOL    HW252057   0.477   2.591  28.327
13477SOL     OW52058   0.197   1.993  22.576
13477SOL    HW152059   0.282   2.013  22.538
13477SOL    HW252060   0.161   1.924  22.520
13478SOL     OW52061   2.342   1.102   2.048
13478SOL    HW152062   2.309   1.167   1.986
13478SOL    HW252063   2.395   1.043   1.994
13479SOL     OW52064   2.340   2.830   5.975
13479SOL    HW152065   2.323   2.745   6.017
13479SOL    HW252066   2.254   2.859   5.945
13480SOL     OW52067   2.231   3.754  10.200
13480SOL    HW152068   2.208   3.714  10.283
13480SOL    HW252069   2.195   3.694  10.134
13481SOL     OW52070   0.826   3.774   0.339
13481SOL    HW152071   0.846   3.860   0.303
13481SOL    HW252072   0.748   3.746   0.291
13482SOL     OW52073   0.388   3.256  19.317
13482SOL    HW152074   0.458   3.229  19.377
13482SOL    HW252075   0.308   3.220  19.356
13483SOL     OW52076   1.275   1.837   2.232
13483SOL    HW152077   1.275   1.844   2.137
13483SOL    HW252078   1.364   1.811   2.255
13484SOL     OW52079   2.447   3.098  25.887
13484SOL    HW152080   2.433   3.016  25.934
13484SOL    HW252081   2.489   3.073  25.805
13485SOL     OW52082   2.501   0.324  23.870
13485SOL    HW152083   2.558   0.369  23.932
13485SOL    HW252084   2.561   0.277  23.813
13486SOL     OW52085   3.955   1.585   5.894
13486SOL    HW152086   4.020   1.565   5.827
13486SOL    HW252087   3.871   1.562   5.853
13487SOL     OW52088   3.093   3.126  11.948
13487SOL    HW152089   3.147   3.173  11.884
13487SOL    HW252090   3.095   3.182  12.026
13488SOL     OW52091   1.658   0.792  23.842
13488SOL    HW152092   1.709   0.726  23.795
13488SOL    HW252093   1.670   0.770  23.935
13489SOL     OW52094   3.344   1.634   8.217
13489SOL    HW152095   3.407   1.704   8.237
13489SOL    HW252096   3.391   1.553   8.237
13490SOL     OW52097   0.161   3.135  23.718
13490SOL    HW152098   0.067   3.129  23.738
13490SOL    HW252099   0.170   3.220  23.675
13491SOL     OW52100   0.656   0.287  18.958
13491SOL    HW152101   0.648   0.376  18.994
13491SOL    HW252102   0.733   0.290  18.901
13492SOL     OW52103   1.602   4.055  24.160
13492SOL    HW152104   1.587   3.969  24.121
13492SOL    HW252105   1.516   4.085  24.189
13493SOL     OW52106   4.515   1.752   5.109
13493SOL    HW152107   4.504   1.685   5.176
13493SOL    HW252108   4.440   1.739   5.050
13494SOL     OW52109   4.541   4.601  21.022
13494SOL    HW152110   4.512   4.617  20.932
13494SOL    HW252111   4.461   4.583  21.070
13495SOL     OW52112   0.941   0.395  21.106
13495SOL    HW152113   0.999   0.470  21.118
13495SOL    HW252114   0.979   0.347  21.032
13496SOL     OW52115   3.905   2.978  24.626
13496SOL    HW152116   3.905   2.883  24.628
13496SOL    HW252117   3.815   3.003  24.645
13497SOL     OW52118   2.981   2.641   7.759
13497SOL    HW152119   2.944   2.573   7.703
13497SOL    HW252120   2.906   2.696   7.783
13498SOL     OW52121   3.589   3.983  27.518
13498SOL    HW152122   3.549   4.016  27.599
13498SOL    HW252123   3.683   3.982  27.537
13499SOL     OW52124   4.589   3.181   7.171
13499SOL    HW152125   4.515   3.132   7.136
13499SOL    HW252126   4.573   3.186   7.265
13500SOL     OW52127   1.649   3.996   7.833
13500SOL    HW152128   1.737   4.004   7.870
13500SOL    HW252129   1.631   3.902   7.832
13501SOL     OW52130   0.752   1.997  26.422
13501SOL    HW152131   0.719   2.083  26.397
13501SOL    HW252132   0.783   1.959  26.340
13502SOL     OW52133   3.416   0.037  27.654
13502SOL    HW152134   3.344   0.064  27.598
13502SOL    HW252135   3.377   4.756  27.716
13503SOL     OW52136   1.134   0.295  20.938
13503SOL    HW152137   1.221   0.320  20.969
13503SOL    HW252138   1.128   0.201  20.957
13504SOL     OW52139   3.506   1.265  18.181
13504SOL    HW152140   3.574   1.197  18.180
13504SOL    HW252141   3.425   1.218  18.203
13505SOL     OW52142   3.176   3.979  10.139
13505SOL    HW152143   3.253   3.944  10.094
13505SOL    HW252144   3.110   3.911  10.132
13506SOL     OW52145   2.265   1.277   0.152
13506SOL    HW152146   2.286   1.231   0.071
13506SOL    HW252147   2.326   1.350   0.155
13507SOL     OW52148   2.143   3.625  28.369
13507SOL    HW152149   2.066   3.644  28.315
13507SOL    HW252150   2.190   3.708  28.375
13508SOL     OW52151   0.244   3.681  18.253
13508SOL    HW152152   0.286   3.747  18.309
13508SOL    HW252153   0.312   3.614  18.240
13509SOL     OW52154   0.804   3.573   4.157
13509SOL    HW152155   0.825   3.488   4.196
13509SOL    HW252156   0.777   3.553   4.068
13510SOL     OW52157   4.308   0.848   1.836
13510SOL    HW152158   4.213   0.835   1.841
13510SOL    HW252159   4.324   0.867   1.743
13511SOL     OW52160   0.204   4.712  26.446
13511SOL    HW152161   0.224   4.702  26.353
13511SOL    HW252162   0.178   0.022  26.456
13512SOL     OW52163   1.561   2.986   7.038
13512SOL    HW152164   1.570   2.891   7.040
13512SOL    HW252165   1.495   3.005   7.105
13513SOL     OW52166   0.379   4.041   6.584
13513SOL    HW152167   0.469   4.050   6.615
13513SOL    HW252168   0.330   4.110   6.630
13514SOL     OW52169   3.517   1.990   8.872
13514SOL    HW152170   3.455   2.034   8.814
13514SOL    HW252171   3.464   1.922   8.915
13515SOL     OW52172   1.908   3.335  24.696
13515SOL    HW152173   1.915   3.294  24.782
13515SOL    HW252174   1.942   3.270  24.635
13516SOL     OW52175   3.538   0.288   2.917
13516SOL    HW152176   3.540   0.250   2.829
13516SOL    HW252177   3.626   0.321   2.931
13517SOL     OW52178   4.087   1.124  25.557
13517SOL    HW152179   4.161   1.176  25.524
13517SOL    HW252180   4.037   1.102  25.479
13518SOL     OW52181   2.930   2.235  19.831
13518SOL    HW152182   2.934   2.290  19.909
13518SOL    HW252183   3.020   2.205  19.818
13519SOL     OW52184   2.580   3.453   9.196
13519SOL    HW152185   2.564   3.363   9.170
13519SOL    HW252186   2.608   3.448   9.287
13520SOL     OW52187   2.239   4.182   2.867
13520SOL    HW152188   2.286   4.100   2.852
13520SOL    HW252189   2.227   4.219   2.780
13521SOL     OW52190   1.111   2.581  26.889
13521SOL    HW152191   1.149   2.615  26.970
13521SOL    HW252192   1.053   2.510  26.918
13522SOL     OW52193   3.251   0.650  17.260
13522SOL    HW152194   3.266   0.580  17.197
13522SOL    HW252195   3.157   0.648  17.276
13523SOL     OW52196   2.995   0.125   2.935
13523SOL    HW152197   3.040   0.197   2.890
13523SOL    HW252198   3.052   0.105   3.010
13524SOL     OW52199   2.803   2.925  21.302
13524SOL    HW152200   2.791   2.841  21.257
13524SOL    HW252201   2.891   2.921  21.338
13525SOL     OW52202   1.056   0.054  27.829
13525SOL    HW152203   0.995   0.128  27.830
13525SOL    HW252204   1.012   4.768  27.777
13526SOL     OW52205   2.755   4.554   6.494
13526SOL    HW152206   2.807   4.612   6.551
13526SOL    HW252207   2.768   4.590   6.406
13527SOL     OW52208   0.357   0.985  23.299
13527SOL    HW152209   0.276   0.950  23.261
13527SOL    HW252210   0.425   0.925  23.269
13528SOL     OW52211   2.474   2.364  21.889
13528SOL    HW152212   2.419   2.323  21.956
13528SOL    HW252213   2.530   2.424  21.938
13529SOL     OW52214   1.817   0.925   8.449
13529SOL    HW152215   1.814   0.910   8.355
13529SOL    HW252216   1.727   0.944   8.474
13530SOL     OW52217   2.429   3.055  23.074
13530SOL    HW152218   2.342   3.074  23.109
13530SOL    HW252219   2.423   2.964  23.043
13531SOL     OW52220   1.151   3.467  16.780
13531SOL    HW152221   1.209   3.524  16.729
13531SOL    HW252222   1.211   3.415  16.834
13532SOL     OW52223   2.145   4.509   6.261
13532SOL    HW152224   2.152   4.455   6.183
13532SOL    HW252225   2.216   4.479   6.318
13533SOL     OW52226   0.898   0.863  22.140
13533SOL    HW152227   0.821   0.919  22.129
13533SOL    HW252228   0.879   0.811  22.218
13534SOL     OW52229   3.732   0.931  21.205
13534SOL    HW152230   3.795   1.003  21.196
13534SOL    HW252231   3.772   0.857  21.160
13535SOL     OW52232   2.743   0.046   9.937
13535SOL    HW152233   2.821   4.772   9.930
13535SOL    HW252234   2.759   0.118   9.877
13536SOL     OW52235   3.297   1.283   1.349
13536SOL    HW152236   3.237   1.249   1.414
13536SOL    HW252237   3.359   1.212   1.332
13537SOL     OW52238   1.905   3.417   1.900
13537SOL    HW152239   1.912   3.322   1.886
13537SOL    HW252240   1.947   3.432   1.984
13538SOL     OW52241   4.485   1.904   6.883
13538SOL    HW152242   4.397   1.914   6.918
13538SOL    HW252243   4.490   1.965   6.810
13539SOL     OW52244   2.716   0.734  25.937
13539SOL    HW152245   2.749   0.818  25.906
13539SOL    HW252246   2.754   0.670  25.878
13540SOL     OW52247   3.464   2.043  27.019
13540SOL    HW152248   3.548   2.005  26.994
13540SOL    HW252249   3.406   1.967  27.031
13541SOL     OW52250   2.303   1.602  21.975
13541SOL    HW152251   2.278   1.511  21.960
13541SOL    HW252252   2.233   1.637  22.030
13542SOL     OW52253   2.399   2.232  21.624
13542SOL    HW152254   2.485   2.223  21.583
13542SOL    HW252255   2.417   2.278  21.706
13543SOL     OW52256   3.720   0.586  26.412
13543SOL    HW152257   3.693   0.607  26.501
13543SOL    HW252258   3.815   0.602  26.411
13544SOL     OW52259   2.756   1.511  21.041
13544SOL    HW152260   2.695   1.573  21.080
13544SOL    HW252261   2.702   1.436  21.014
13545SOL     OW52262   2.934   1.097   5.662
13545SOL    HW152263   2.903   1.105   5.571
13545SOL    HW252264   2.970   1.184   5.682
13546SOL     OW52265   1.663   1.646   8.575
13546SOL    HW152266   1.632   1.570   8.625
13546SOL    HW252267   1.750   1.664   8.611
13547SOL     OW52268   1.789   3.663   9.837
13547SOL    HW152269   1.718   3.726   9.838
13547SOL    HW252270   1.748   3.579   9.859
13548SOL     OW52271   4.724   4.301   0.509
13548SOL    HW152272   4.633   4.316   0.486
13548SOL    HW252273   4.773   4.327   0.430
13549SOL     OW52274   2.327   4.531  28.357
13549SOL    HW152275   2.240   4.525  28.316
13549SOL    HW252276   2.312   4.510  28.449
13550SOL     OW52277   3.737   2.659  20.581
13550SOL    HW152278   3.798   2.733  20.576
13550SOL    HW252279   3.792   2.581  20.579
13551SOL     OW52280   0.352   2.503   3.487
13551SOL    HW152281   0.439   2.537   3.464
13551SOL    HW252282   0.308   2.492   3.403
13552SOL     OW52283   4.128   3.692   6.046
13552SOL    HW152284   4.165   3.623   6.100
13552SOL    HW252285   4.057   3.729   6.100
13553SOL     OW52286   4.704   2.689  22.150
13553SOL    HW152287   4.686   2.696  22.244
13553SOL    HW252288   4.631   2.638  22.115
13554SOL     OW52289   4.338   0.447  27.287
13554SOL    HW152290   4.388   0.527  27.274
13554SOL    HW252291   4.394   0.377  27.255
13555SOL     OW52292   0.515   0.513   4.035
13555SOL    HW152293   0.608   0.509   4.013
13555SOL    HW252294   0.501   0.438   4.093
13556SOL     OW52295   0.955   1.417  25.054
13556SOL    HW152296   0.993   1.392  25.139
13556SOL    HW252297   1.005   1.366  24.990
13557SOL     OW52298   0.272   0.740   5.105
13557SOL    HW152299   0.209   0.680   5.066
13557SOL    HW252300   0.326   0.685   5.161
13558SOL     OW52301   4.708   2.562   0.172
13558SOL    HW152302   4.663   2.479   0.187
13558SOL    HW252303   4.729   2.594   0.260
13559SOL     OW52304   4.659   0.666  11.472
13559SOL    HW152305   4.674   0.624  11.557
13559SOL    HW252306   4.740   0.653  11.424
13560SOL     OW52307   2.198   3.207  25.640
13560SOL    HW152308   2.127   3.270  25.625
13560SOL    HW252309   2.266   3.258  25.685
13561SOL     OW52310   1.485   4.724  26.853
13561SOL    HW152311   1.427   4.765  26.789
13561SOL    HW252312   1.544   0.014  26.881
13562SOL     OW52313   1.938   4.383   4.653
13562SOL    HW152314   1.995   4.443   4.604
13562SOL    HW252315   1.994   4.348   4.721
13563SOL     OW52316   0.057   2.356  23.434
13563SOL    HW152317   0.068   2.447  23.461
13563SOL    HW252318   0.064   2.358  23.338
13564SOL     OW52319   2.117   2.938   5.471
13564SOL    HW152320   2.175   2.907   5.540
13564SOL    HW252321   2.064   3.007   5.512
13565SOL     OW52322   0.938   1.987   7.628
13565SOL    HW152323   1.009   1.986   7.563
13565SOL    HW252324   0.954   2.066   7.679
13566SOL     OW52325   3.742   4.506   3.189
13566SOL    HW152326   3.753   4.440   3.119
13566SOL    HW252327   3.699   4.458   3.259
13567SOL     OW52328   3.624   3.670   4.474
13567SOL    HW152329   3.678   3.721   4.535
13567SOL    HW252330   3.603   3.590   4.523
13568SOL     OW52331   3.008   3.682   7.889
13568SOL    HW152332   3.060   3.727   7.955
13568SOL    HW252333   2.985   3.750   7.826
13569SOL     OW52334   4.378   0.457  20.543
13569SOL    HW152335   4.444   0.442  20.475
13569SOL    HW252336   4.384   0.551  20.562
13570SOL     OW52337   3.704   1.599  25.032
13570SOL    HW152338   3.751   1.681  25.051
13570SOL    HW252339   3.635   1.596  25.098
13571SOL     OW52340   1.361   2.362   5.217
13571SOL    HW152341   1.352   2.391   5.126
13571SOL    HW252342   1.315   2.279   5.220
13572SOL     OW52343   2.413   1.998  18.721
13572SOL    HW152344   2.343   2.027  18.663
13572SOL    HW252345   2.476   1.956  18.663
13573SOL     OW52346   0.650   4.615  15.603
13573SOL    HW152347   0.717   4.582  15.543
13573SOL    HW252348   0.585   4.657  15.547
13574SOL     OW52349   4.432   2.487  18.686
13574SOL    HW152350   4.450   2.475  18.593
13574SOL    HW252351   4.360   2.428  18.705
13575SOL     OW52352   0.993   2.254  24.337
13575SOL    HW152353   1.056   2.307  24.289
13575SOL    HW252354   0.915   2.252  24.281
13576SOL     OW52355   3.637   2.441  17.766
13576SOL    HW152356   3.711   2.483  17.721
13576SOL    HW252357   3.583   2.406  17.695
13577SOL     OW52358   4.678   2.921  20.667
13577SOL    HW152359   4.638   3.002  20.699
13577SOL    HW252360   4.710   2.877  20.745
13578SOL     OW52361   4.355   1.586   5.279
13578SOL    HW152362   4.390   1.498   5.261
13578SOL    HW252363   4.262   1.572   5.297
13579SOL     OW52364   0.507   0.456   1.281
13579SOL    HW152365   0.438   0.520   1.297
13579SOL    HW252366   0.537   0.430   1.368
13580SOL     OW52367   0.122   0.437  25.565
13580SOL    HW152368   0.053   0.503  25.572
13580SOL    HW252369   0.142   0.414  25.656
13581SOL     OW52370   2.741   3.180  21.168
13581SOL    HW152371   2.753   3.135  21.085
13581SOL    HW252372   2.774   3.269  21.152
13582SOL     OW52373   3.344   0.773  24.919
13582SOL    HW152374   3.314   0.827  24.847
13582SOL    HW252375   3.270   0.770  24.980
13583SOL     OW52376   2.481   1.401  27.143
13583SOL    HW152377   2.489   1.333  27.211
13583SOL    HW252378   2.508   1.481  27.187
13584SOL     OW52379   2.284   4.199   0.624
13584SOL    HW152380   2.196   4.232   0.643
13584SOL    HW252381   2.342   4.252   0.678
13585SOL     OW52382   1.145   3.408  20.165
13585SOL    HW152383   1.104   3.322  20.169
13585SOL    HW252384   1.219   3.397  20.105
13586SOL     OW52385   2.020   2.038  19.238
13586SOL    HW152386   2.086   1.988  19.287
13586SOL    HW252387   1.992   2.106  19.299
13587SOL     OW52388   3.151   2.541   8.221
13587SOL    HW152389   3.065   2.530   8.260
13587SOL    HW252390   3.147   2.627   8.179
13588SOL     OW52391   0.694   0.450   8.486
13588SOL    HW152392   0.672   0.538   8.515
13588SOL    HW252393   0.741   0.463   8.403
13589SOL     OW52394   4.741   0.908  28.038
13589SOL    HW152395   4.702   0.935  27.955
13589SOL    HW252396   4.695   0.828  28.062
13590SOL     OW52397   0.618   3.528   2.056
13590SOL    HW152398   0.673   3.468   2.105
13590SOL    HW252399   0.555   3.472   2.010
13591SOL     OW52400   0.947   3.656   4.390
13591SOL    HW152401   0.967   3.588   4.327
13591SOL    HW252402   0.901   3.723   4.339
13592SOL     OW52403   4.491   0.722  21.506
13592SOL    HW152404   4.499   0.818  21.511
13592SOL    HW252405   4.400   0.705  21.532
13593SOL     OW52406   0.362   1.671   8.305
13593SOL    HW152407   0.430   1.648   8.369
13593SOL    HW252408   0.284   1.686   8.357
13594SOL     OW52409   2.542   1.580  10.249
13594SOL    HW152410   2.500   1.658  10.284
13594SOL    HW252411   2.618   1.566  10.306
13595SOL     OW52412   1.957   3.644  23.217
13595SOL    HW152413   2.048   3.664  23.238
13595SOL    HW252414   1.949   3.550  23.235
13596SOL     OW52415   0.874   1.334  10.449
13596SOL    HW152416   0.956   1.350  10.403
13596SOL    HW252417   0.890   1.366  10.538
13597SOL     OW52418   2.721   2.926  25.497
13597SOL    HW152419   2.658   2.958  25.562
13597SOL    HW252420   2.725   2.996  25.432
13598SOL     OW52421   3.694   4.299  27.095
13598SOL    HW152422   3.758   4.294  27.165
13598SOL    HW252423   3.714   4.224  27.039
13599SOL     OW52424   4.323   4.566   7.548
13599SOL    HW152425   4.268   4.489   7.538
13599SOL    HW252426   4.343   4.570   7.641
13600SOL     OW52427   1.661   2.621   5.847
13600SOL    HW152428   1.599   2.577   5.905
13600SOL    HW252429   1.615   2.624   5.762
13601SOL     OW52430   3.230   2.680   2.173
13601SOL    HW152431   3.308   2.726   2.204
13601SOL    HW252432   3.243   2.670   2.079
13602SOL     OW52433   3.524   3.928   0.266
13602SOL    HW152434   3.497   3.838   0.285
13602SOL    HW252435   3.616   3.931   0.290
13603SOL     OW52436   0.462   0.110   2.599
13603SOL    HW152437   0.529   0.044   2.616
13603SOL    HW252438   0.380   0.070   2.627
13604SOL     OW52439   0.128   2.678  28.522
13604SOL    HW152440   0.054   2.639   0.046
13604SOL    HW252441   0.151   2.613  28.456
13605SOL     OW52442   2.702   0.055   7.249
13605SOL    HW152443   2.734   4.748   7.229
13605SOL    HW252444   2.764   0.113   7.204
13606SOL     OW52445   0.389   4.226   3.432
13606SOL    HW152446   0.431   4.210   3.516
13606SOL    HW252447   0.448   4.185   3.368
13607SOL     OW52448   4.735   1.346  27.835
13607SOL    HW152449   0.046   1.326  27.818
13607SOL    HW252450   4.735   1.393  27.918
13608SOL     OW52451   4.560   1.600  21.660
13608SOL    HW152452   4.501   1.528  21.634
13608SOL    HW252453   4.631   1.557  21.707
13609SOL     OW52454   2.574   2.981  21.481
13609SOL    HW152455   2.503   2.919  21.463
13609SOL    HW252456   2.602   2.960  21.570
13610SOL     OW52457   2.890   0.193  24.010
13610SOL    HW152458   2.889   0.287  24.027
13610SOL    HW252459   2.981   0.167  24.026
13611SOL     OW52460   2.961   3.130  20.059
13611SOL    HW152461   2.990   3.144  19.969
13611SOL    HW252462   2.894   3.063  20.053
13612SOL     OW52463   2.848   4.735  23.328
13612SOL    HW152464   2.890   4.709  23.246
13612SOL    HW252465   2.774   0.008  23.301
13613SOL     OW52466   1.208   2.040  28.499
13613SOL    HW152467   1.254   1.957  28.497
13613SOL    HW252468   1.229   2.082  28.415
13614SOL     OW52469   2.472   0.318  20.932
13614SOL    HW152470   2.523   0.376  20.875
13614SOL    HW252471   2.391   0.366  20.948
13615SOL     OW52472   4.119   4.491   4.687
13615SOL    HW152473   4.075   4.492   4.773
13615SOL    HW252474   4.210   4.468   4.707
13616SOL     OW52475   0.830   1.846   7.135
13616SOL    HW152476   0.765   1.884   7.076
13616SOL    HW252477   0.889   1.797   7.078
13617SOL     OW52478   3.796   2.405  21.422
13617SOL    HW152479   3.856   2.354  21.368
13617SOL    HW252480   3.819   2.497  21.405
13618SOL     OW52481   2.537   2.963  21.192
13618SOL    HW152482   2.479   3.020  21.141
13618SOL    HW252483   2.507   2.875  21.171
13619SOL     OW52484   0.195   3.819   8.980
13619SOL    HW152485   0.220   3.755   9.047
13619SOL    HW252486   0.117   3.782   8.939
13620SOL     OW52487   4.153   2.390  24.159
13620SOL    HW152488   4.188   2.301  24.160
13620SOL    HW252489   4.178   2.427  24.244
13621SOL     OW52490   3.301   3.623  21.696
13621SOL    HW152491   3.393   3.596  21.691
13621SOL    HW252492   3.303   3.710  21.734
13622SOL     OW52493   1.105   3.524  27.352
13622SOL    HW152494   1.137   3.596  27.406
13622SOL    HW252495   1.010   3.533  27.355
13623SOL     OW52496   2.859   2.710  21.614
13623SOL    HW152497   2.918   2.635  21.604
13623SOL    HW252498   2.775   2.672  21.638
13624SOL     OW52499   0.987   2.061   8.712
13624SOL    HW152500   0.977   2.120   8.787
13624SOL    HW252501   1.038   1.988   8.746
13625SOL     OW52502   3.877   4.332  25.123
13625SOL    HW152503   3.850   4.400  25.184
13625SOL    HW252504   3.944   4.373  25.068
13626SOL     OW52505   2.118   1.869   2.425
13626SOL    HW152506   2.154   1.787   2.391
13626SOL    HW252507   2.164   1.884   2.507
13627SOL     OW52508   1.030   2.361   6.675
13627SOL    HW152509   1.118   2.342   6.642
13627SOL    HW252510   1.034   2.453   6.702
13628SOL     OW52511   0.510   1.374   9.437
13628SOL    HW152512   0.550   1.428   9.505
13628SOL    HW252513   0.552   1.402   9.356
13629SOL     OW52514   2.114   3.156   7.722
13629SOL    HW152515   2.149   3.067   7.722
13629SOL    HW252516   2.148   3.194   7.641
13630SOL     OW52517   1.811   3.826  22.599
13630SOL    HW152518   1.791   3.754  22.660
13630SOL    HW252519   1.890   3.797  22.553
13631SOL     OW52520   1.212   0.316   3.795
13631SOL    HW152521   1.180   0.405   3.782
13631SOL    HW252522   1.133   0.262   3.799
13632SOL     OW52523   4.651   2.751   1.755
13632SOL    HW152524   4.608   2.830   1.788
13632SOL    HW252525   4.580   2.688   1.743
13633SOL     OW52526   3.347   2.050   4.289
13633SOL    HW152527   3.286   1.976   4.296
13633SOL    HW252528   3.407   2.039   4.362
13634SOL     OW52529   0.152   2.286  25.876
13634SOL    HW152530   0.135   2.202  25.919
13634SOL    HW252531   0.072   2.336  25.889
13635SOL     OW52532   2.838   2.210  20.526
13635SOL    HW152533   2.745   2.191  20.534
13635SOL    HW252534   2.869   2.150  20.458
13636SOL     OW52535   3.592   4.625   7.545
13636SOL    HW152536   3.619   4.706   7.501
13636SOL    HW252537   3.502   4.611   7.517
13637SOL     OW52538   2.629   1.967  24.004
13637SOL    HW152539   2.697   1.989  23.940
13637SOL    HW252540   2.620   1.872  23.998
13638SOL     OW52541   2.564   1.720   8.522
13638SOL    HW152542   2.566   1.816   8.527
13638SOL    HW252543   2.478   1.700   8.486
13639SOL     OW52544   2.740   3.786  10.563
13639SOL    HW152545   2.705   3.872  10.539
13639SOL    HW252546   2.775   3.799  10.652
13640SOL     OW52547   2.425   3.607  26.259
13640SOL    HW152548   2.424   3.636  26.350
13640SOL    HW252549   2.333   3.587  26.240
13641SOL     OW52550   3.683   1.015  27.059
13641SOL    HW152551   3.734   0.934  27.069
13641SOL    HW252552   3.629   1.000  26.982
13642SOL     OW52553   3.134   2.644  19.983
13642SOL    HW152554   3.045   2.618  20.006
13642SOL    HW252555   3.124   2.708  19.913
13643SOL     OW52556   1.677   2.724  21.857
13643SOL    HW152557   1.713   2.635  21.866
13643SOL    HW252558   1.704   2.769  21.937
13644SOL     OW52559   4.209   0.231  20.571
13644SOL    HW152560   4.240   0.200  20.655
13644SOL    HW252561   4.268   0.303  20.548
13645SOL     OW52562   3.388   4.591  26.152
13645SOL    HW152563   3.421   4.502  26.137
13645SOL    HW252564   3.388   4.632  26.065
13646SOL     OW52565   4.729   4.594  25.510
13646SOL    HW152566   0.039   4.579  25.534
13646SOL    HW252567   4.680   4.588  25.592
13647SOL     OW52568   0.462   1.088   1.454
13647SOL    HW152569   0.525   1.153   1.423
13647SOL    HW252570   0.505   1.004   1.440
13648SOL     OW52571   0.814   0.411  21.747
13648SOL    HW152572   0.856   0.460  21.818
13648SOL    HW252573   0.886   0.389  21.688
13649SOL     OW52574   4.538   0.822  21.031
13649SOL    HW152575   4.600   0.888  20.997
13649SOL    HW252576   4.593   0.759  21.077
13650SOL     OW52577   1.484   4.698  20.853
13650SOL    HW152578   1.393   4.673  20.869
13650SOL    HW252579   1.478   0.007  20.820
13651SOL     OW52580   4.307   1.146  23.159
13651SOL    HW152581   4.381   1.203  23.139
13651SOL    HW252582   4.288   1.101  23.076
13652SOL     OW52583   2.409   1.386   3.889
13652SOL    HW152584   2.462   1.454   3.847
13652SOL    HW252585   2.358   1.433   3.955
13653SOL     OW52586   4.275   1.710   5.812
13653SOL    HW152587   4.232   1.641   5.762
13653SOL    HW252588   4.323   1.761   5.747
13654SOL     OW52589   2.692   0.931  23.972
13654SOL    HW152590   2.665   1.003  24.029
13654SOL    HW252591   2.655   0.853  24.014
13655SOL     OW52592   4.750   4.145   6.712
13655SOL    HW152593   4.687   4.217   6.721
13655SOL    HW252594   0.054   4.188   6.711
13656SOL     OW52595   4.239   2.131  25.761
13656SOL    HW152596   4.158   2.096  25.723
13656SOL    HW252597   4.255   2.077  25.839
13657SOL     OW52598   1.229   0.936   6.448
13657SOL    HW152599   1.254   0.846   6.429
13657SOL    HW252600   1.175   0.930   6.527
13658SOL     OW52601   1.194   0.413   8.938
13658SOL    HW152602   1.114   0.412   8.990
13658SOL    HW252603   1.166   0.384   8.851
13659SOL     OW52604   2.168   1.701   0.080
13659SOL    HW152605   2.235   1.643   0.045
13659SOL    HW252606   2.160   1.676   0.173
13660SOL     OW52607   1.730   1.924  22.033
13660SOL    HW152608   1.714   1.849  21.975
13660SOL    HW252609   1.728   1.886  22.121
13661SOL     OW52610   3.354   1.937  20.545
13661SOL    HW152611   3.321   1.848  20.553
13661SOL    HW252612   3.448   1.926  20.529
13662SOL     OW52613   4.231   1.895  24.029
13662SOL    HW152614   4.319   1.910  23.994
13662SOL    HW252615   4.183   1.856  23.956
13663SOL     OW52616   2.517   2.018  21.817
13663SOL    HW152617   2.452   2.077  21.779
13663SOL    HW252618   2.470   1.935  21.828
13664SOL     OW52619   3.451   1.243  24.854
13664SOL    HW152620   3.445   1.338  24.866
13664SOL    HW252621   3.477   1.232  24.763
13665SOL     OW52622   1.700   1.482  27.554
13665SOL    HW152623   1.679   1.437  27.472
13665SOL    HW252624   1.702   1.412  27.620
13666SOL     OW52625   1.679   4.755  20.044
13666SOL    HW152626   1.638   4.760  19.958
13666SOL    HW252627   1.656   4.668  20.076
13667SOL     OW52628   2.172   1.447  25.617
13667SOL    HW152629   2.135   1.362  25.637
13667SOL    HW252630   2.175   1.450  25.521
13668SOL     OW52631   2.860   4.437  23.549
13668SOL    HW152632   2.773   4.430  23.589
13668SOL    HW252633   2.852   4.386  23.467
13669SOL     OW52634   2.708   0.246  11.422
13669SOL    HW152635   2.726   0.195  11.501
13669SOL    HW252636   2.694   0.335  11.454
13670SOL     OW52637   4.737   0.648  21.118
13670SOL    HW152638   4.712   0.555  21.117
13670SOL    HW252639   0.047   0.649  21.090
13671SOL     OW52640   4.744   3.882  28.363
13671SOL    HW152641   0.052   3.846  28.363
13671SOL    HW252642   4.693   3.822  28.416
13672SOL     OW52643   0.583   2.944  24.270
13672SOL    HW152644   0.677   2.930  24.279
13672SOL    HW252645   0.564   2.921  24.179
13673SOL     OW52646   0.912   2.919  23.850
13673SOL    HW152647   0.946   3.006  23.829
13673SOL    HW252648   0.821   2.935  23.878
13674SOL     OW52649   4.154   4.190  27.088
13674SOL    HW152650   4.147   4.117  27.026
13674SOL    HW252651   4.142   4.149  27.174
13675SOL     OW52652   0.915   0.426  26.386
13675SOL    HW152653   0.898   0.494  26.451
13675SOL    HW252654   1.010   0.412  26.391
13676SOL     OW52655   1.321   1.465   4.819
13676SOL    HW152656   1.291   1.392   4.872
13676SOL    HW252657   1.303   1.542   4.874
13677SOL     OW52658   0.133   2.314  24.479
13677SOL    HW152659   0.166   2.391  24.526
13677SOL    HW252660   0.204   2.250  24.483
13678SOL     OW52661   3.734   3.648  21.768
13678SOL    HW152662   3.663   3.669  21.708
13678SOL    HW252663   3.768   3.733  21.797
13679SOL     OW52664   2.664   0.413   1.798
13679SOL    HW152665   2.602   0.461   1.744
13679SOL    HW252666   2.618   0.399   1.881
13680SOL     OW52667   2.428   2.877   5.029
13680SOL    HW152668   2.412   2.926   5.110
13680SOL    HW252669   2.514   2.836   5.042
13681SOL     OW52670   3.747   1.992   8.722
13681SOL    HW152671   3.747   1.897   8.710
13681SOL    HW252672   3.675   2.009   8.782
13682SOL     OW52673   2.235   4.626   5.883
13682SOL    HW152674   2.300   4.676   5.932
13682SOL    HW252675   2.279   4.601   5.802
13683SOL     OW52676   1.174   3.915  23.339
13683SOL    HW152677   1.154   4.008  23.354
13683SOL    HW252678   1.267   3.907  23.357
13684SOL     OW52679   1.965   3.819  22.077
13684SOL    HW152680   2.036   3.762  22.047
13684SOL    HW252681   1.924   3.769  22.148
13685SOL     OW52682   3.290   4.540  16.404
13685SOL    HW152683   3.276   4.618  16.458
13685SOL    HW252684   3.211   4.535  16.349
13686SOL     OW52685   0.140   1.245   5.033
13686SOL    HW152686   0.213   1.210   4.982
13686SOL    HW252687   0.088   1.295   4.970
13687SOL     OW52688   1.751   0.389   0.699
13687SOL    HW152689   1.826   0.329   0.701
13687SOL    HW252690   1.718   0.390   0.788
13688SOL     OW52691   3.948   0.527   3.449
13688SOL    HW152692   3.929   0.551   3.540
13688SOL    HW252693   4.004   0.449   3.457
13689SOL     OW52694   4.573   1.154   2.148
13689SOL    HW152695   4.487   1.129   2.116
13689SOL    HW252696   4.606   1.217   2.084
13690SOL     OW52697   0.329   0.558   7.594
13690SOL    HW152698   0.256   0.534   7.536
13690SOL    HW252699   0.353   0.647   7.568
13691SOL     OW52700   1.317   3.885  11.245
13691SOL    HW152701   1.379   3.842  11.186
13691SOL    HW252702   1.254   3.816  11.267
13692SOL     OW52703   0.406   3.621   1.220
13692SOL    HW152704   0.380   3.529   1.223
13692SOL    HW252705   0.348   3.661   1.155
13693SOL     OW52706   3.033   1.300  20.652
13693SOL    HW152707   3.072   1.298  20.739
13693SOL    HW252708   3.099   1.261  20.595
13694SOL     OW52709   1.061   2.415   4.968
13694SOL    HW152710   1.015   2.400   5.051
13694SOL    HW252711   1.145   2.370   4.979
13695SOL     OW52712   2.763   0.818   5.048
13695SOL    HW152713   2.709   0.776   4.980
13695SOL    HW252714   2.781   0.748   5.110
13696SOL     OW52715   2.863   1.881   4.686
13696SOL    HW152716   2.923   1.810   4.708
13696SOL    HW252717   2.776   1.846   4.706
13697SOL     OW52718   3.333   1.706   4.508
13697SOL    HW152719   3.284   1.782   4.537
13697SOL    HW252720   3.270   1.654   4.458
13698SOL     OW52721   3.957   4.321   8.402
13698SOL    HW152722   3.936   4.300   8.493
13698SOL    HW252723   4.022   4.391   8.408
13699SOL     OW52724   4.338   4.111  24.464
13699SOL    HW152725   4.351   4.206  24.460
13699SOL    HW252726   4.391   4.077  24.392
13700SOL     OW52727   1.365   1.829   7.842
13700SOL    HW152728   1.345   1.805   7.752
13700SOL    HW252729   1.380   1.746   7.887
13701SOL     OW52730   2.836   0.674   1.222
13701SOL    HW152731   2.778   0.676   1.147
13701SOL    HW252732   2.898   0.745   1.206
13702SOL     OW52733   0.358   1.211  18.546
13702SOL    HW152734   0.373   1.116  18.548
13702SOL    HW252735   0.426   1.247  18.604
13703SOL     OW52736   0.191   2.402  24.832
13703SOL    HW152737   0.139   2.450  24.896
13703SOL    HW252738   0.280   2.433  24.846
13704SOL     OW52739   3.059   1.133  22.711
13704SOL    HW152740   3.004   1.198  22.667
13704SOL    HW252741   3.149   1.165  22.696
13705SOL     OW52742   1.737   2.874   9.287
13705SOL    HW152743   1.758   2.941   9.352
13705SOL    HW252744   1.814   2.870   9.230
13706SOL     OW52745   0.635   0.786   8.134
13706SOL    HW152746   0.571   0.790   8.063
13706SOL    HW252747   0.668   0.875   8.143
13707SOL     OW52748   0.132   0.639  23.024
13707SOL    HW152749   0.214   0.610  23.065
13707SOL    HW252750   0.067   0.575  23.052
13708SOL     OW52751   2.776   0.855  22.509
13708SOL    HW152752   2.783   0.910  22.587
13708SOL    HW252753   2.787   0.766  22.540
13709SOL     OW52754   1.243   4.734   0.361
13709SOL    HW152755   1.147   4.734   0.357
13709SOL    HW252756   1.267   0.043   0.381
13710SOL     OW52757   1.048   4.537   5.528
13710SOL    HW152758   1.038   4.616   5.581
13710SOL    HW252759   1.109   4.563   5.459
13711SOL     OW52760   1.345   0.092  27.114
13711SOL    HW152761   1.357   0.061  27.204
13711SOL    HW252762   1.420   0.150  27.098
13712SOL     OW52763   3.799   0.939  25.712
13712SOL    HW152764   3.809   0.991  25.792
13712SOL    HW252765   3.877   0.883  25.710
13713SOL     OW52766   4.267   0.611  20.105
13713SOL    HW152767   4.241   0.659  20.026
13713SOL    HW252768   4.185   0.600  20.154
13714SOL     OW52769   0.515   2.288   7.010
13714SOL    HW152770   0.465   2.294   6.929
13714SOL    HW252771   0.605   2.272   6.982
13715SOL     OW52772   0.646   0.315   5.992
13715SOL    HW152773   0.602   0.244   5.945
13715SOL    HW252774   0.674   0.375   5.923
13716SOL     OW52775   2.489   2.311   8.932
13716SOL    HW152776   2.402   2.349   8.927
13716SOL    HW252777   2.505   2.302   9.026
13717SOL     OW52778   1.593   1.783  23.920
13717SOL    HW152779   1.542   1.789  24.001
13717SOL    HW252780   1.584   1.692  23.892
13718SOL     OW52781   0.994   3.630  22.989
13718SOL    HW152782   1.011   3.622  23.083
13718SOL    HW252783   0.907   3.592  22.977
13719SOL     OW52784   4.713   3.792  20.814
13719SOL    HW152785   4.645   3.730  20.839
13719SOL    HW252786   0.015   3.746  20.831
13720SOL     OW52787   0.093   0.702   6.544
13720SOL    HW152788   0.023   0.687   6.607
13720SOL    HW252789   0.048   0.723   6.462
13721SOL     OW52790   4.738   2.923  22.658
13721SOL    HW152791   0.044   2.888  22.675
13721SOL    HW252792   4.709   2.959  22.742
13722SOL     OW52793   0.760   4.280  22.752
13722SOL    HW152794   0.796   4.259  22.666
13722SOL    HW252795   0.784   4.205  22.807
13723SOL     OW52796   3.702   2.963   5.084
13723SOL    HW152797   3.678   2.886   5.033
13723SOL    HW252798   3.763   2.931   5.150
13724SOL     OW52799   0.424   3.247   5.612
13724SOL    HW152800   0.402   3.161   5.575
13724SOL    HW252801   0.515   3.262   5.586
13725SOL     OW52802   4.699   3.970  25.128
13725SOL    HW152803   4.683   4.016  25.045
13725SOL    HW252804   0.009   3.991  25.149
13726SOL     OW52805   2.163   4.197   3.833
13726SOL    HW152806   2.168   4.293   3.835
13726SOL    HW252807   2.193   4.170   3.920
13727SOL     OW52808   4.110   2.473   7.799
13727SOL    HW152809   4.185   2.458   7.856
13727SOL    HW252810   4.140   2.446   7.712
13728SOL     OW52811   1.945   2.916  19.871
13728SOL    HW152812   1.945   2.850  19.802
13728SOL    HW252813   2.023   2.968  19.854
13729SOL     OW52814   4.459   2.462  18.432
13729SOL    HW152815   4.468   2.370  18.405
13729SOL    HW252816   4.393   2.498  18.373
13730SOL     OW52817   0.531   0.468   0.402
13730SOL    HW152818   0.498   0.427   0.322
13730SOL    HW252819   0.463   0.530   0.427
13731SOL     OW52820   2.947   2.430  28.105
13731SOL    HW152821   2.892   2.409  28.030
13731SOL    HW252822   2.990   2.512  28.082
13732SOL     OW52823   1.263   0.177   1.003
13732SOL    HW152824   1.306   0.262   1.008
13732SOL    HW252825   1.329   0.120   0.963
13733SOL     OW52826   3.315   0.655  21.515
13733SOL    HW152827   3.369   0.577  21.506
13733SOL    HW252828   3.332   0.706  21.435
13734SOL     OW52829   0.384   1.300   3.584
13734SOL    HW152830   0.463   1.351   3.600
13734SOL    HW252831   0.314   1.348   3.629
13735SOL     OW52832   2.912   2.613   1.358
13735SOL    HW152833   2.908   2.635   1.265
13735SOL    HW252834   2.998   2.643   1.386
13736SOL     OW52835   4.142   0.685  20.864
13736SOL    HW152836   4.228   0.708  20.828
13736SOL    HW252837   4.162   0.616  20.928
13737SOL     OW52838   2.415   4.045  25.104
13737SOL    HW152839   2.353   4.088  25.162
13737SOL    HW252840   2.453   3.974  25.157
13738SOL     OW52841   4.677   3.068   8.816
13738SOL    HW152842   4.683   3.069   8.912
13738SOL    HW252843   4.737   3.137   8.788
13739SOL     OW52844   3.585   3.376  24.559
13739SOL    HW152845   3.542   3.293  24.539
13739SOL    HW252846   3.655   3.352  24.620
13740SOL     OW52847   1.942   1.147  21.350
13740SOL    HW152848   1.998   1.202  21.295
13740SOL    HW252849   1.958   1.178  21.439
13741SOL     OW52850   2.583   2.584   6.117
13741SOL    HW152851   2.588   2.663   6.063
13741SOL    HW252852   2.618   2.515   6.061
13742SOL     OW52853   2.895   3.510  10.527
13742SOL    HW152854   2.908   3.416  10.528
13742SOL    HW252855   2.956   3.543  10.593
13743SOL     OW52856   0.606   1.821  19.637
13743SOL    HW152857   0.520   1.820  19.594
13743SOL    HW252858   0.585   1.816  19.731
13744SOL     OW52859   0.835   1.812   8.422
13744SOL    HW152860   0.863   1.722   8.409
13744SOL    HW252861   0.756   1.806   8.474
13745SOL     OW52862   3.868   1.265   2.065
13745SOL    HW152863   3.908   1.203   2.126
13745SOL    HW252864   3.775   1.264   2.087
13746SOL     OW52865   2.745   1.096   7.302
13746SOL    HW152866   2.778   1.185   7.292
13746SOL    HW252867   2.712   1.093   7.392
13747SOL     OW52868   0.081   3.303  27.650
13747SOL    HW152869   0.038   3.221  27.626
13747SOL    HW252870   0.073   3.358  27.572
13748SOL     OW52871   0.367   0.408   1.032
13748SOL    HW152872   0.386   0.393   1.124
13748SOL    HW252873   0.451   0.429   0.993
13749SOL     OW52874   3.959   3.466   8.180
13749SOL    HW152875   3.886   3.521   8.210
13749SOL    HW252876   3.979   3.410   8.255
13750SOL     OW52877   0.863   3.550   9.115
13750SOL    HW152878   0.939   3.492   9.105
13750SOL    HW252879   0.825   3.525   9.200
13751SOL     OW52880   0.895   0.497   3.057
13751SOL    HW152881   0.858   0.529   2.975
13751SOL    HW252882   0.970   0.443   3.031
13752SOL     OW52883   1.606   4.327  18.886
13752SOL    HW152884   1.629   4.420  18.893
13752SOL    HW252885   1.599   4.298  18.977
13753SOL     OW52886   1.247   0.716   4.061
13753SOL    HW152887   1.271   0.646   4.121
13753SOL    HW252888   1.152   0.710   4.053
13754SOL     OW52889   0.368   3.407  21.490
13754SOL    HW152890   0.308   3.482  21.485
13754SOL    HW252891   0.455   3.447  21.491
13755SOL     OW52892   3.824   2.473  27.547
13755SOL    HW152893   3.873   2.545  27.586
13755SOL    HW252894   3.887   2.402  27.539
13756SOL     OW52895   2.132   2.695   4.131
13756SOL    HW152896   2.199   2.683   4.198
13756SOL    HW252897   2.165   2.645   4.056
13757SOL     OW52898   1.907   0.858   5.681
13757SOL    HW152899   1.871   0.868   5.593
13757SOL    HW252900   2.002   0.866   5.669
13758SOL     OW52901   1.965   3.812   4.041
13758SOL    HW152902   1.924   3.807   3.955
13758SOL    HW252903   2.038   3.873   4.029
13759SOL     OW52904   2.542   0.271  20.464
13759SOL    HW152905   2.629   0.273  20.423
13759SOL    HW252906   2.498   0.350  20.432
13760SOL     OW52907   1.537   4.614  28.364
13760SOL    HW152908   1.573   4.697  28.332
13760SOL    HW252909   1.614   4.564  28.392
13761SOL     OW52910   3.908   1.104   1.543
13761SOL    HW152911   3.961   1.183   1.543
13761SOL    HW252912   3.933   1.058   1.463
13762SOL     OW52913   4.148   3.922  21.129
13762SOL    HW152914   4.124   3.978  21.055
13762SOL    HW252915   4.197   3.850  21.089
13763SOL     OW52916   4.556   2.200   4.471
13763SOL    HW152917   4.607   2.275   4.503
13763SOL    HW252918   4.519   2.231   4.388
13764SOL     OW52919   4.568   3.826  22.717
13764SOL    HW152920   4.529   3.746  22.685
13764SOL    HW252921   4.499   3.869  22.768
13765SOL     OW52922   2.683   3.346   1.180
13765SOL    HW152923   2.753   3.366   1.242
13765SOL    HW252924   2.680   3.422   1.122
13766SOL     OW52925   4.536   4.237  27.511
13766SOL    HW152926   4.519   4.325  27.477
13766SOL    HW252927   4.632   4.232  27.516
13767SOL     OW52928   3.785   3.573  19.604
13767SOL    HW152929   3.796   3.582  19.699
13767SOL    HW252930   3.824   3.652  19.568
13768SOL     OW52931   3.853   4.459  25.805
13768SOL    HW152932   3.805   4.401  25.864
13768SOL    HW252933   3.938   4.418  25.795
13769SOL     OW52934   3.094   0.989   4.165
13769SOL    HW152935   3.083   0.950   4.078
13769SOL    HW252936   3.013   0.967   4.211
13770SOL     OW52937   1.367   4.147  20.498
13770SOL    HW152938   1.366   4.115  20.588
13770SOL    HW252939   1.297   4.098  20.455
13771SOL     OW52940   0.053   2.389   5.512
13771SOL    HW152941   0.037   2.327   5.441
13771SOL    HW252942   0.010   2.350   5.588
13772SOL     OW52943   2.929   1.837   8.828
13772SOL    HW152944   2.954   1.857   8.918
13772SOL    HW252945   2.876   1.912   8.801
13773SOL     OW52946   2.227   0.029   6.404
13773SOL    HW152947   2.275   0.035   6.321
13773SOL    HW252948   2.135   0.033   6.379
13774SOL     OW52949   2.892   2.023   7.455
13774SOL    HW152950   2.932   2.083   7.392
13774SOL    HW252951   2.967   1.979   7.496
13775SOL     OW52952   4.754   4.363   9.644
13775SOL    HW152953   4.708   4.330   9.722
13775SOL    HW252954   0.066   4.359   9.668
13776SOL     OW52955   1.233   3.318   4.601
13776SOL    HW152956   1.205   3.348   4.514
13776SOL    HW252957   1.324   3.349   4.608
13777SOL     OW52958   1.598   0.725   8.350
13777SOL    HW152959   1.651   0.671   8.409
13777SOL    HW252960   1.558   0.790   8.407
13778SOL     OW52961   1.836   4.356   1.908
13778SOL    HW152962   1.913   4.322   1.863
13778SOL    HW252963   1.857   4.447   1.928
13779SOL     OW52964   4.105   3.195   4.008
13779SOL    HW152965   4.016   3.231   4.011
13779SOL    HW252966   4.160   3.268   3.982
13780SOL     OW52967   1.309   2.595   2.557
13780SOL    HW152968   1.397   2.630   2.542
13780SOL    HW252969   1.324   2.504   2.584
13781SOL     OW52970   0.624   3.154   4.347
13781SOL    HW152971   0.535   3.171   4.317
13781SOL    HW252972   0.653   3.079   4.295
13782SOL     OW52973   1.359   4.746   2.187
13782SOL    HW152974   1.324   4.741   2.098
13782SOL    HW252975   1.350   0.057   2.212
13783SOL     OW52976   1.010   3.867   5.288
13783SOL    HW152977   0.952   3.942   5.278
13783SOL    HW252978   0.992   3.834   5.376
13784SOL     OW52979   0.134   2.819   9.415
13784SOL    HW152980   0.170   2.846   9.330
13784SOL    HW252981   0.166   2.730   9.428
13785SOL     OW52982   2.616   4.514   9.699
13785SOL    HW152983   2.617   4.607   9.675
13785SOL    HW252984   2.524   4.493   9.712
13786SOL     OW52985   2.572   2.867  24.890
13786SOL    HW152986   2.661   2.856  24.925
13786SOL    HW252987   2.566   2.961  24.870
13787SOL     OW52988   0.854   1.863   0.244
13787SOL    HW152989   0.858   1.925   0.171
13787SOL    HW252990   0.812   1.911   0.314
13788SOL     OW52991   3.827   4.322  23.152
13788SOL    HW152992   3.736   4.329  23.125
13788SOL    HW252993   3.875   4.377  23.090
13789SOL     OW52994   4.484   0.052   3.234
13789SOL    HW152995   4.534   0.022   3.310
13789SOL    HW252996   4.549   0.064   3.165
13790SOL     OW52997   1.440   4.624  11.517
13790SOL    HW152998   1.534   4.608  11.520
13790SOL    HW252999   1.431   4.707  11.470
13791SOL     OW53000   3.921   4.535   6.409
13791SOL    HW153001   3.848   4.523   6.470
13791SOL    HW253002   3.990   4.574   6.462
13792SOL     OW53003   4.183   2.471  20.611
13792SOL    HW153004   4.198   2.561  20.640
13792SOL    HW253005   4.243   2.418  20.665
13793SOL     OW53006   4.259   4.253  22.698
13793SOL    HW153007   4.320   4.187  22.666
13793SOL    HW253008   4.257   4.239  22.793
13794SOL     OW53009   0.494   1.903  26.818
13794SOL    HW153010   0.474   1.826  26.871
13794SOL    HW253011   0.556   1.872  26.753
13795SOL     OW53012   2.175   1.156  22.821
13795SOL    HW153013   2.173   1.065  22.849
13795SOL    HW253014   2.242   1.160  22.753
13796SOL     OW53015   1.875   3.622  24.578
13796SOL    HW153016   1.862   3.530  24.603
13796SOL    HW253017   1.861   3.671  24.659
13797SOL     OW53018   4.177   4.192  25.092
13797SOL    HW153019   4.247   4.225  25.148
13797SOL    HW253020   4.120   4.268  25.079
13798SOL     OW53021   0.665   0.351  19.290
13798SOL    HW153022   0.723   0.416  19.329
13798SOL    HW253023   0.579   0.392  19.289
13799SOL     OW53024   2.883   0.030  10.603
13799SOL    HW153025   2.862   0.037  10.697
13799SOL    HW253026   2.916   4.722  10.592
13800SOL     OW53027   2.145   4.669  23.451
13800SOL    HW153028   2.137   4.580  23.486
13800SOL    HW253029   2.061   4.711  23.472
13801SOL     OW53030   2.987   0.979  17.167
13801SOL    HW153031   2.916   0.934  17.121
13801SOL    HW253032   2.998   1.061  17.118
13802SOL     OW53033   1.498   3.300  26.607
13802SOL    HW153034   1.515   3.385  26.648
13802SOL    HW253035   1.403   3.289  26.614
13803SOL     OW53036   2.231   3.692   1.280
13803SOL    HW153037   2.163   3.629   1.256
13803SOL    HW253038   2.305   3.638   1.307
13804SOL     OW53039   1.404   1.183   0.052
13804SOL    HW153040   1.316   1.178   0.089
13804SOL    HW253041   1.410   1.272   0.016
13805SOL     OW53042   1.648   1.627   7.089
13805SOL    HW153043   1.618   1.675   7.166
13805SOL    HW253044   1.695   1.692   7.037
13806SOL     OW53045   2.743   1.854   1.145
13806SOL    HW153046   2.811   1.896   1.198
13806SOL    HW253047   2.671   1.840   1.207
13807SOL     OW53048   2.785   4.567   7.322
13807SOL    HW153049   2.725   4.636   7.350
13807SOL    HW253050   2.728   4.494   7.298
13808SOL     OW53051   3.569   3.331  21.137
13808SOL    HW153052   3.650   3.379  21.119
13808SOL    HW253053   3.540   3.300  21.051
13809SOL     OW53054   4.151   0.989   7.718
13809SOL    HW153055   4.198   1.040   7.784
13809SOL    HW253056   4.120   1.055   7.656
13810SOL     OW53057   0.530   1.403   9.137
13810SOL    HW153058   0.620   1.375   9.121
13810SOL    HW253059   0.477   1.343   9.084
13811SOL     OW53060   4.757   2.105  27.585
13811SOL    HW153061   0.062   2.078  27.553
13811SOL    HW253062   4.751   2.198  27.563
13812SOL     OW53063   1.219   0.154  23.807
13812SOL    HW153064   1.151   0.182  23.746
13812SOL    HW253065   1.283   0.225  23.807
13813SOL     OW53066   2.310   4.481   0.109
13813SOL    HW153067   2.399   4.453   0.091
13813SOL    HW253068   2.297   4.461   0.202
13814SOL     OW53069   4.311   2.581  26.466
13814SOL    HW153070   4.339   2.614  26.380
13814SOL    HW253071   4.346   2.644  26.528
13815SOL     OW53072   2.361   3.742  24.388
13815SOL    HW153073   2.410   3.708  24.313
13815SOL    HW253074   2.353   3.835  24.371
13816SOL     OW53075   3.164   2.285   6.415
13816SOL    HW153076   3.102   2.357   6.423
13816SOL    HW253077   3.110   2.206   6.419
13817SOL     OW53078   4.080   1.800   2.387
13817SOL    HW153079   3.994   1.821   2.423
13817SOL    HW253080   4.063   1.779   2.295
13818SOL     OW53081   4.400   3.151   1.552
13818SOL    HW153082   4.344   3.182   1.624
13818SOL    HW253083   4.371   3.200   1.476
13819SOL     OW53084   2.228   4.562  10.168
13819SOL    HW153085   2.161   4.622  10.199
13819SOL    HW253086   2.311   4.602  10.195
13820SOL     OW53087   3.627   0.420  27.720
13820SOL    HW153088   3.651   0.473  27.796
13820SOL    HW253089   3.688   0.448  27.651
13821SOL     OW53090   2.644   3.180   2.902
13821SOL    HW153091   2.641   3.232   2.983
13821SOL    HW253092   2.661   3.245   2.833
13822SOL     OW53093   2.574   1.046  24.204
13822SOL    HW153094   2.516   0.973  24.223
13822SOL    HW253095   2.550   1.113  24.267
13823SOL     OW53096   1.726   3.044   5.361
13823SOL    HW153097   1.708   3.138   5.364
13823SOL    HW253098   1.809   3.035   5.408
13824SOL     OW53099   2.698   0.822   9.554
13824SOL    HW153100   2.704   0.912   9.522
13824SOL    HW253101   2.619   0.820   9.608
13825SOL     OW53102   2.592   2.285   3.955
13825SOL    HW153103   2.606   2.379   3.952
13825SOL    HW253104   2.500   2.275   3.979
13826SOL     OW53105   4.736   0.774  24.736
13826SOL    HW153106   0.037   0.727  24.719
13826SOL    HW253107   4.722   0.827  24.658
13827SOL     OW53108   1.093   2.371   5.542
13827SOL    HW153109   1.094   2.391   5.635
13827SOL    HW253110   1.111   2.454   5.499
13828SOL     OW53111   3.138   0.039  24.867
13828SOL    HW153112   3.125   0.080  24.781
13828SOL    HW253113   3.052   0.002  24.889
13829SOL     OW53114   4.481   4.603   4.888
13829SOL    HW153115   4.478   4.631   4.979
13829SOL    HW253116   4.517   4.678   4.841
13830SOL     OW53117   1.977   2.694  22.227
13830SOL    HW153118   1.977   2.602  22.255
13830SOL    HW253119   2.069   2.719  22.225
13831SOL     OW53120   1.904   3.960  23.909
13831SOL    HW153121   1.943   3.943  23.995
13831SOL    HW253122   1.852   4.039  23.921
13832SOL     OW53123   4.285   4.342  20.954
13832SOL    HW153124   4.272   4.407  21.024
13832SOL    HW253125   4.281   4.393  20.873
13833SOL     OW53126   2.554   3.945   9.575
13833SOL    HW153127   2.571   4.027   9.622
13833SOL    HW253128   2.641   3.911   9.554
13834SOL     OW53129   2.830   3.027  25.184
13834SOL    HW153130   2.779   3.080  25.245
13834SOL    HW253131   2.921   3.053  25.200
13835SOL     OW53132   3.169   4.262  10.167
13835SOL    HW153133   3.170   4.167  10.154
13835SOL    HW253134   3.083   4.289  10.138
13836SOL     OW53135   1.712   3.443   8.435
13836SOL    HW153136   1.637   3.394   8.400
13836SOL    HW253137   1.695   3.448   8.529
13837SOL     OW53138   0.107   1.542  22.390
13837SOL    HW153139   0.147   1.518  22.307
13837SOL    HW253140   0.178   1.534  22.454
13838SOL     OW53141   4.144   3.662   1.049
13838SOL    HW153142   4.227   3.632   1.011
13838SOL    HW253143   4.154   3.757   1.057
13839SOL     OW53144   3.940   3.212  21.069
13839SOL    HW153145   3.948   3.120  21.094
13839SOL    HW253146   4.022   3.232  21.023
13840SOL     OW53147   3.187   2.548  10.339
13840SOL    HW153148   3.247   2.568  10.410
13840SOL    HW253149   3.106   2.594  10.362
13841SOL     OW53150   2.775   0.038  24.266
13841SOL    HW153151   2.834   0.019  24.193
13841SOL    HW253152   2.798   4.754  24.333
13842SOL     OW53153   0.691   1.662   2.066
13842SOL    HW153154   0.608   1.642   2.024
13842SOL    HW253155   0.708   1.588   2.124
13843SOL     OW53156   1.430   1.784   1.452
13843SOL    HW153157   1.475   1.867   1.435
13843SOL    HW253158   1.363   1.778   1.385
13844SOL     OW53159   4.662   1.864  28.373
13844SOL    HW153160   4.725   1.930  28.400
13844SOL    HW253161   4.686   1.842  28.283
13845SOL     OW53162   0.809   3.451  10.755
13845SOL    HW153163   0.764   3.510  10.695
13845SOL    HW253164   0.783   3.481  10.843
13846SOL     OW53165   1.677   4.213   0.077
13846SOL    HW153166   1.626   4.234   0.155
13846SOL    HW253167   1.764   4.246   0.095
13847SOL     OW53168   3.322   2.324   9.736
13847SOL    HW153169   3.416   2.320   9.717
13847SOL    HW253170   3.309   2.260   9.807
13848SOL     OW53171   4.629   0.826  28.371
13848SOL    HW153172   4.664   0.895  28.427
13848SOL    HW253173   4.687   0.751  28.387
13849SOL     OW53174   0.340   0.055   4.292
13849SOL    HW153175   0.371   0.004   4.217
13849SOL    HW253176   0.412   0.051   4.354
13850SOL     OW53177   1.244   1.671  21.673
13850SOL    HW153178   1.313   1.631  21.725
13850SOL    HW253179   1.261   1.765  21.679
13851SOL     OW53180   4.017   1.594  24.575
13851SOL    HW153181   3.937   1.612  24.625
13851SOL    HW253182   4.033   1.501  24.588
13852SOL     OW53183   3.947   1.712  22.671
13852SOL    HW153184   4.000   1.653  22.726
13852SOL    HW253185   3.967   1.799  22.705
13853SOL     OW53186   0.704   4.603   0.751
13853SOL    HW153187   0.718   4.665   0.679
13853SOL    HW253188   0.613   4.619   0.777
13854SOL     OW53189   2.994   4.081  21.202
13854SOL    HW153190   2.943   4.044  21.130
13854SOL    HW253191   2.943   4.063  21.281
13855SOL     OW53192   1.923   2.897   1.675
13855SOL    HW153193   1.872   2.863   1.748
13855SOL    HW253194   2.011   2.860   1.689
13856SOL     OW53195   4.126   0.491   2.946
13856SOL    HW153196   4.190   0.530   3.006
13856SOL    HW253197   4.085   0.565   2.903
13857SOL     OW53198   2.536   1.067   6.066
13857SOL    HW153199   2.524   0.974   6.049
13857SOL    HW253200   2.486   1.084   6.147
13858SOL     OW53201   3.242   2.130   5.272
13858SOL    HW153202   3.174   2.194   5.251
13858SOL    HW253203   3.294   2.123   5.192
13859SOL     OW53204   2.141   0.833   2.581
13859SOL    HW153205   2.198   0.785   2.521
13859SOL    HW253206   2.171   0.923   2.575
13860SOL     OW53207   0.524   4.222  20.788
13860SOL    HW153208   0.556   4.312  20.792
13860SOL    HW253209   0.448   4.221  20.845
13861SOL     OW53210   1.969   1.573   3.788
13861SOL    HW153211   2.037   1.506   3.779
13861SOL    HW253212   1.975   1.600   3.879
13862SOL     OW53213   3.598   2.232  20.168
13862SOL    HW153214   3.580   2.268  20.255
13862SOL    HW253215   3.664   2.290  20.131
13863SOL     OW53216   2.004   1.902   3.945
13863SOL    HW153217   2.006   1.880   4.038
13863SOL    HW253218   1.938   1.843   3.907
13864SOL     OW53219   1.639   4.758  23.793
13864SOL    HW153220   1.594   0.041  23.738
13864SOL    HW253221   1.706   4.721  23.736
13865SOL     OW53222   0.114   4.377  22.525
13865SOL    HW153223   0.164   4.295  22.520
13865SOL    HW253224   0.051   4.362  22.595
13866SOL     OW53225   1.107   0.267   0.152
13866SOL    HW153226   1.107   0.355   0.115
13866SOL    HW253227   1.160   0.274   0.231
13867SOL     OW53228   2.155   4.737   0.540
13867SOL    HW153229   2.214   0.003   0.482
13867SOL    HW253230   2.093   4.693   0.481
13868SOL     OW53231   3.724   4.063   5.345
13868SOL    HW153232   3.755   3.994   5.403
13868SOL    HW253233   3.631   4.073   5.368
13869SOL     OW53234   3.219   2.037   4.002
13869SOL    HW153235   3.227   2.081   4.087
13869SOL    HW253236   3.214   1.944   4.024
13870SOL     OW53237   4.186   3.850  22.600
13870SOL    HW153238   4.232   3.815  22.523
13870SOL    HW253239   4.127   3.917  22.564
13871SOL     OW53240   0.378   3.209  20.640
13871SOL    HW153241   0.358   3.299  20.617
13871SOL    HW253242   0.386   3.164  20.556
13872SOL     OW53243   2.184   2.985  24.168
13872SOL    HW153244   2.149   2.913  24.116
13872SOL    HW253245   2.117   3.002  24.234
13873SOL     OW53246   1.175   3.129   9.186
13873SOL    HW153247   1.155   3.160   9.274
13873SOL    HW253248   1.129   3.045   9.179
13874SOL     OW53249   2.976   4.197   6.420
13874SOL    HW153250   3.022   4.127   6.466
13874SOL    HW253251   3.034   4.273   6.428
13875SOL     OW53252   3.870   0.604   2.611
13875SOL    HW153253   3.934   0.539   2.584
13875SOL    HW253254   3.790   0.578   2.565
13876SOL     OW53255   2.206   0.203  28.077
13876SOL    HW153256   2.250   0.287  28.085
13876SOL    HW253257   2.276   0.138  28.089
13877SOL     OW53258   4.565   0.911  23.480
13877SOL    HW153259   4.596   0.959  23.557
13877SOL    HW253260   4.476   0.884  23.504
13878SOL     OW53261   0.127   2.966   1.912
13878SOL    HW153262   0.143   3.020   1.834
13878SOL    HW253263   0.125   2.876   1.878
13879SOL     OW53264   3.489   2.653   5.742
13879SOL    HW153265   3.550   2.639   5.814
13879SOL    HW253266   3.426   2.716   5.775
13880SOL     OW53267   3.042   0.893   3.377
13880SOL    HW153268   3.069   0.866   3.290
13880SOL    HW253269   3.080   0.980   3.388
13881SOL     OW53270   3.931   1.636  23.115
13881SOL    HW153271   3.860   1.572  23.116
13881SOL    HW253272   3.888   1.721  23.108
13882SOL     OW53273   2.874   1.455  18.645
13882SOL    HW153274   2.852   1.362  18.652
13882SOL    HW253275   2.959   1.463  18.687
13883SOL     OW53276   0.490   4.725   2.043
13883SOL    HW153277   0.572   4.676   2.054
13883SOL    HW253278   0.427   4.678   2.098
13884SOL     OW53279   3.488   1.661  25.185
13884SOL    HW153280   3.467   1.726  25.119
13884SOL    HW253281   3.410   1.654  25.239
13885SOL     OW53282   0.533   4.566  25.014
13885SOL    HW153283   0.613   4.615  24.993
13885SOL    HW253284   0.502   4.533  24.930
13886SOL     OW53285   3.666   3.023   2.065
13886SOL    HW153286   3.686   3.117   2.057
13886SOL    HW253287   3.745   2.979   2.035
13887SOL     OW53288   0.989   1.775   4.302
13887SOL    HW153289   1.013   1.756   4.393
13887SOL    HW253290   0.911   1.723   4.286
13888SOL     OW53291   0.626   1.132   7.647
13888SOL    HW153292   0.563   1.163   7.582
13888SOL    HW253293   0.605   1.040   7.658
13889SOL     OW53294   4.578   3.611   4.270
13889SOL    HW153295   4.573   3.532   4.323
13889SOL    HW253296   4.649   3.595   4.208
13890SOL     OW53297   3.539   1.814   8.259
13890SOL    HW153298   3.556   1.907   8.242
13890SOL    HW253299   3.609   1.768   8.213
13891SOL     OW53300   0.093   4.475  26.585
13891SOL    HW153301   0.128   4.544  26.528
13891SOL    HW253302   0.015   4.515  26.624
13892SOL     OW53303   3.700   4.455  21.437
13892SOL    HW153304   3.674   4.365  21.419
13892SOL    HW253305   3.710   4.495  21.350
13893SOL     OW53306   3.612   1.972   9.323
13893SOL    HW153307   3.532   1.923   9.302
13893SOL    HW253308   3.639   2.011   9.240
13894SOL     OW53309   1.123   0.958  22.030
13894SOL    HW153310   1.174   0.883  22.061
13894SOL    HW253311   1.036   0.946  22.069
13895SOL     OW53312   4.475   3.510   2.187
13895SOL    HW153313   4.399   3.465   2.224
13895SOL    HW253314   4.550   3.472   2.233
13896SOL     OW53315   1.404   3.916  26.644
13896SOL    HW153316   1.382   3.838  26.695
13896SOL    HW253317   1.328   3.928  26.587
13897SOL     OW53318   0.429   2.036   8.574
13897SOL    HW153319   0.406   2.107   8.513
13897SOL    HW253320   0.354   2.031   8.633
13898SOL     OW53321   3.882   3.815   9.378
13898SOL    HW153322   3.937   3.856   9.445
13898SOL    HW253323   3.805   3.872   9.373
13899SOL     OW53324   0.934   1.321  22.617
13899SOL    HW153325   0.879   1.315  22.696
13899SOL    HW253326   0.900   1.253  22.560
13900SOL     OW53327   0.401   4.483   6.968
13900SOL    HW153328   0.410   4.571   6.932
13900SOL    HW253329   0.307   4.475   6.988
13901SOL     OW53330   0.373   0.352  23.041
13901SOL    HW153331   0.278   0.338  23.043
13901SOL    HW253332   0.407   0.274  22.997
13902SOL     OW53333   3.627   3.080   6.757
13902SOL    HW153334   3.583   2.999   6.781
13902SOL    HW253335   3.622   3.082   6.661
13903SOL     OW53336   4.207   2.432   6.068
13903SOL    HW153337   4.160   2.355   6.036
13903SOL    HW253338   4.299   2.414   6.047
13904SOL     OW53339   2.067   3.655   0.320
13904SOL    HW153340   2.156   3.661   0.354
13904SOL    HW253341   2.021   3.729   0.360
13905SOL     OW53342   0.226   0.511  27.565
13905SOL    HW153343   0.316   0.515  27.596
13905SOL    HW253344   0.202   0.419  27.572
13906SOL     OW53345   3.397   4.156  21.912
13906SOL    HW153346   3.335   4.215  21.955
13906SOL    HW253347   3.461   4.214  21.872
13907SOL     OW53348   0.989   0.495   5.917
13907SOL    HW153349   0.939   0.573   5.939
13907SOL    HW253350   0.961   0.429   5.981
13908SOL     OW53351   0.369   1.304   8.501
13908SOL    HW153352   0.369   1.243   8.574
13908SOL    HW253353   0.428   1.264   8.436
13909SOL     OW53354   4.041   1.148  20.539
13909SOL    HW153355   3.949   1.143  20.566
13909SOL    HW253356   4.073   1.229  20.579
13910SOL     OW53357   0.438   3.346  26.956
13910SOL    HW153358   0.505   3.300  26.907
13910SOL    HW253359   0.471   3.436  26.964
13911SOL     OW53360   3.492   1.267  26.208
13911SOL    HW153361   3.529   1.318  26.137
13911SOL    HW253362   3.417   1.318  26.238
13912SOL     OW53363   2.046   2.557  23.821
13912SOL    HW153364   1.966   2.512  23.793
13912SOL    HW253365   2.063   2.621  23.751
13913SOL     OW53366   4.577   2.580   0.675
13913SOL    HW153367   4.610   2.491   0.689
13913SOL    HW253368   4.655   2.634   0.674
13914SOL     OW53369   0.579   1.213  20.888
13914SOL    HW153370   0.548   1.208  20.979
13914SOL    HW253371   0.551   1.300  20.858
13915SOL     OW53372   0.130   1.892   6.287
13915SOL    HW153373   0.075   1.937   6.350
13915SOL    HW253374   0.218   1.925   6.305
13916SOL     OW53375   0.082   3.018  22.265
13916SOL    HW153376   0.112   2.972  22.187
13916SOL    HW253377   0.149   3.085  22.280
13917SOL     OW53378   3.262   4.682  22.870
13917SOL    HW153379   3.334   4.623  22.850
13917SOL    HW253380   3.252   4.676  22.965
13918SOL     OW53381   1.005   1.164  22.893
13918SOL    HW153382   1.078   1.170  22.955
13918SOL    HW253383   1.045   1.185  22.808
13919SOL     OW53384   3.645   2.840   0.328
13919SOL    HW153385   3.608   2.769   0.275
13919SOL    HW253386   3.604   2.829   0.414
13920SOL     OW53387   4.169   3.634  24.482
13920SOL    HW153388   4.210   3.688  24.550
13920SOL    HW253389   4.169   3.690  24.405
13921SOL     OW53390   3.621   1.211   6.709
13921SOL    HW153391   3.576   1.289   6.742
13921SOL    HW253392   3.553   1.164   6.660
13922SOL     OW53393   4.337   0.937  25.141
13922SOL    HW153394   4.342   1.030  25.115
13922SOL    HW253395   4.428   0.910  25.151
13923SOL     OW53396   4.591   3.678   5.939
13923SOL    HW153397   4.506   3.680   5.896
13923SOL    HW253398   4.617   3.770   5.944
13924SOL     OW53399   1.203   2.656   3.546
13924SOL    HW153400   1.215   2.743   3.585
13924SOL    HW253401   1.291   2.622   3.537
13925SOL     OW53402   1.654   1.442   9.859
13925SOL    HW153403   1.699   1.459   9.942
13925SOL    HW253404   1.721   1.459   9.793
13926SOL     OW53405   1.368   3.365   0.867
13926SOL    HW153406   1.419   3.440   0.897
13926SOL    HW253407   1.277   3.394   0.874
13927SOL     OW53408   1.408   3.691  25.575
13927SOL    HW153409   1.321   3.653  25.567
13927SOL    HW253410   1.444   3.687  25.486
13928SOL     OW53411   0.896   4.280   5.475
13928SOL    HW153412   0.957   4.333   5.527
13928SOL    HW253413   0.829   4.252   5.537
13929SOL     OW53414   4.335   1.907  22.488
13929SOL    HW153415   4.325   1.867  22.574
13929SOL    HW253416   4.387   1.844  22.438
13930SOL     OW53417   0.969   0.743   7.942
13930SOL    HW153418   1.009   0.666   7.982
13930SOL    HW253419   1.016   0.755   7.860
13931SOL     OW53420   2.400   2.159   8.641
13931SOL    HW153421   2.361   2.239   8.606
13931SOL    HW253422   2.442   2.186   8.722
13932SOL     OW53423   1.779   1.765  22.389
13932SOL    HW153424   1.764   1.676  22.358
13932SOL    HW253425   1.858   1.793  22.342
13933SOL     OW53426   0.908   3.292   5.192
13933SOL    HW153427   0.820   3.318   5.166
13933SOL    HW253428   0.926   3.213   5.140
13934SOL     OW53429   2.274   1.512   1.799
13934SOL    HW153430   2.197   1.455   1.799
13934SOL    HW253431   2.333   1.473   1.864
13935SOL     OW53432   0.468   4.086  11.904
13935SOL    HW153433   0.420   4.003  11.898
13935SOL    HW253434   0.412   4.143  11.957
13936SOL     OW53435   3.916   4.022  28.284
13936SOL    HW153436   3.897   4.008  28.376
13936SOL    HW253437   3.923   3.934  28.247
13937SOL     OW53438   0.751   3.799  21.082
13937SOL    HW153439   0.717   3.740  21.015
13937SOL    HW253440   0.730   3.886  21.051
13938SOL     OW53441   4.094   3.468  26.294
13938SOL    HW153442   4.072   3.388  26.342
13938SOL    HW253443   4.180   3.494  26.327
13939SOL     OW53444   0.052   1.046  22.390
13939SOL    HW153445   0.023   1.011  22.474
13939SOL    HW253446   0.118   1.111  22.413
13940SOL     OW53447   0.369   1.085   7.387
13940SOL    HW153448   0.423   1.157   7.356
13940SOL    HW253449   0.386   1.014   7.324
13941SOL     OW53450   4.776   2.034  21.165
13941SOL    HW153451   0.055   2.100  21.132
13941SOL    HW253452   0.036   2.000  21.244
13942SOL     OW53453   0.737   3.013   1.701
13942SOL    HW153454   0.703   3.021   1.790
13942SOL    HW253455   0.832   3.022   1.711
13943SOL     OW53456   0.171   0.066  22.818
13943SOL    HW153457   0.266   0.075  22.830
13943SOL    HW253458   0.135   0.149  22.849
13944SOL     OW53459   4.637   0.840   3.286
13944SOL    HW153460   4.564   0.879   3.238
13944SOL    HW253461   4.605   0.754   3.314
13945SOL     OW53462   1.370   0.687   4.534
13945SOL    HW153463   1.301   0.733   4.486
13945SOL    HW253464   1.324   0.616   4.580
13946SOL     OW53465   2.518   0.773   0.802
13946SOL    HW153466   2.564   0.756   0.719
13946SOL    HW253467   2.488   0.687   0.831
13947SOL     OW53468   3.096   0.385   8.929
13947SOL    HW153469   3.014   0.359   8.971
13947SOL    HW253470   3.090   0.480   8.921
13948SOL     OW53471   1.353   2.882   2.114
13948SOL    HW153472   1.402   2.955   2.077
13948SOL    HW253473   1.390   2.804   2.073
13949SOL     OW53474   1.843   1.430   5.397
13949SOL    HW153475   1.899   1.352   5.397
13949SOL    HW253476   1.775   1.411   5.333
13950SOL     OW53477   1.089   0.900  25.453
13950SOL    HW153478   1.075   0.943  25.537
13950SOL    HW253479   1.142   0.962  25.403
13951SOL     OW53480   3.196   2.877   1.854
13951SOL    HW153481   3.144   2.863   1.933
13951SOL    HW253482   3.181   2.969   1.831
13952SOL     OW53483   0.208   2.804  25.034
13952SOL    HW153484   0.207   2.760  24.949
13952SOL    HW253485   0.184   2.895  25.014
13953SOL     OW53486   0.850   4.648  26.017
13953SOL    HW153487   0.864   4.554  26.012
13953SOL    HW253488   0.863   4.680  25.928
13954SOL     OW53489   1.335   4.240   6.378
13954SOL    HW153490   1.377   4.268   6.296
13954SOL    HW253491   1.260   4.188   6.349
13955SOL     OW53492   4.030   1.654   3.132
13955SOL    HW153493   4.093   1.601   3.083
13955SOL    HW253494   4.048   1.633   3.224
13956SOL     OW53495   2.380   1.991  21.028
13956SOL    HW153496   2.382   1.987  20.933
13956SOL    HW253497   2.461   2.037  21.052
13957SOL     OW53498   1.472   0.463  22.327
13957SOL    HW153499   1.378   0.475  22.339
13957SOL    HW253500   1.502   0.547  22.291
13958SOL     OW53501   2.976   1.277   7.394
13958SOL    HW153502   2.907   1.294   7.458
13958SOL    HW253503   2.947   1.324   7.315
13959SOL     OW53504   3.694   2.978   2.423
13959SOL    HW153505   3.710   3.041   2.494
13959SOL    HW253506   3.636   3.025   2.363
13960SOL     OW53507   3.293   3.427   7.565
13960SOL    HW153508   3.225   3.477   7.520
13960SOL    HW253509   3.375   3.471   7.541
13961SOL     OW53510   1.530   0.853  22.983
13961SOL    HW153511   1.442   0.815  22.987
13961SOL    HW253512   1.521   0.925  22.921
13962SOL     OW53513   1.305   1.621  20.353
13962SOL    HW153514   1.302   1.546  20.293
13962SOL    HW253515   1.397   1.648  20.354
13963SOL     OW53516   1.973   0.723  26.380
13963SOL    HW153517   2.040   0.685  26.438
13963SOL    HW253518   1.905   0.656  26.375
13964SOL     OW53519   0.488   2.326   3.219
13964SOL    HW153520   0.419   2.392   3.220
13964SOL    HW253521   0.477   2.277   3.300
13965SOL     OW53522   0.140   4.549   7.055
13965SOL    HW153523   0.047   4.527   7.046
13965SOL    HW253524   0.150   4.569   7.149
13966SOL     OW53525   3.110   3.139  12.567
13966SOL    HW153526   3.204   3.139  12.550
13966SOL    HW253527   3.087   3.231  12.578
13967SOL     OW53528   4.021   3.632  21.000
13967SOL    HW153529   4.005   3.625  20.906
13967SOL    HW253530   4.078   3.709  21.008
13968SOL     OW53531   0.709   2.462   9.926
13968SOL    HW153532   0.752   2.436  10.007
13968SOL    HW253533   0.653   2.536   9.951
13969SOL     OW53534   1.904   1.480  20.827
13969SOL    HW153535   1.868   1.567  20.847
13969SOL    HW253536   1.965   1.495  20.755
13970SOL     OW53537   2.757   3.937   9.295
13970SOL    HW153538   2.843   3.954   9.334
13970SOL    HW253539   2.734   3.850   9.326
13971SOL     OW53540   3.506   3.939   1.808
13971SOL    HW153541   3.576   3.883   1.774
13971SOL    HW253542   3.425   3.898   1.778
13972SOL     OW53543   1.106   4.206  23.196
13972SOL    HW153544   1.157   4.171  23.269
13972SOL    HW253545   1.169   4.254  23.143
13973SOL     OW53546   0.443   2.268  26.571
13973SOL    HW153547   0.500   2.343  26.581
13973SOL    HW253548   0.472   2.206  26.639
13974SOL     OW53549   2.395   4.591  21.901
13974SOL    HW153550   2.453   4.518  21.878
13974SOL    HW253551   2.383   4.582  21.996
13975SOL     OW53552   3.980   0.003  17.144
13975SOL    HW153553   3.891   0.026  17.170
13975SOL    HW253554   4.029   0.002  17.227
13976SOL     OW53555   1.940   1.234   8.192
13976SOL    HW153556   1.994   1.290   8.248
13976SOL    HW253557   2.003   1.180   8.144
13977SOL     OW53558   4.182   1.063   8.709
13977SOL    HW153559   4.087   1.068   8.693
13977SOL    HW253560   4.198   0.971   8.730
13978SOL     OW53561   4.191   2.408   3.025
13978SOL    HW153562   4.129   2.430   2.956
13978SOL    HW253563   4.247   2.340   2.987
13979SOL     OW53564   3.723   4.761  24.758
13979SOL    HW153565   3.811   4.728  24.772
13979SOL    HW253566   3.684   4.699  24.696
13980SOL     OW53567   2.874   0.134   8.942
13980SOL    HW153568   2.888   0.167   9.030
13980SOL    HW253569   2.849   0.042   8.954
13981SOL     OW53570   4.085   4.073   1.202
13981SOL    HW153571   4.081   4.154   1.252
13981SOL    HW253572   4.076   4.003   1.266
13982SOL     OW53573   3.444   4.076   8.522
13982SOL    HW153574   3.358   4.097   8.484
13982SOL    HW253575   3.479   4.161   8.549
13983SOL     OW53576   1.813   1.225  20.807
13983SOL    HW153577   1.866   1.162  20.758
13983SOL    HW253578   1.870   1.301  20.818
13984SOL     OW53579   1.213   0.397  24.670
13984SOL    HW153580   1.262   0.442  24.740
13984SOL    HW253581   1.268   0.407  24.592
13985SOL     OW53582   2.401   0.648  22.921
13985SOL    HW153583   2.395   0.723  22.863
13985SOL    HW253584   2.345   0.582  22.882
13986SOL     OW53585   2.566   2.788  25.223
13986SOL    HW153586   2.594   2.880  25.220
13986SOL    HW253587   2.645   2.738  25.204
13987SOL     OW53588   0.009   3.186   0.011
13987SOL    HW153589   4.712   3.132  28.519
13987SOL    HW253590   0.078   3.142  28.484
13988SOL     OW53591   2.133   4.541   7.950
13988SOL    HW153592   2.085   4.540   8.033
13988SOL    HW253593   2.146   4.633   7.931
13989SOL     OW53594   4.001   2.921  20.407
13989SOL    HW153595   4.015   2.852  20.342
13989SOL    HW253596   4.023   2.881  20.491
13990SOL     OW53597   2.571   2.078   2.233
13990SOL    HW153598   2.648   2.128   2.259
13990SOL    HW253599   2.499   2.119   2.281
13991SOL     OW53600   4.402   2.132   2.697
13991SOL    HW153601   4.415   2.223   2.670
13991SOL    HW253602   4.345   2.095   2.629
13992SOL     OW53603   3.732   2.235  19.128
13992SOL    HW153604   3.799   2.244  19.196
13992SOL    HW253605   3.780   2.248  19.046
13993SOL     OW53606   0.193   1.952   2.590
13993SOL    HW153607   0.106   1.987   2.570
13993SOL    HW253608   0.210   1.980   2.680
13994SOL     OW53609   4.115   1.067   4.964
13994SOL    HW153610   4.033   1.076   5.012
13994SOL    HW253611   4.137   1.156   4.937
13995SOL     OW53612   2.999   1.450  25.631
13995SOL    HW153613   2.966   1.519  25.574
13995SOL    HW253614   2.931   1.439  25.698
13996SOL     OW53615   1.625   0.648   0.315
13996SOL    HW153616   1.627   0.553   0.330
13996SOL    HW253617   1.614   0.686   0.402
13997SOL     OW53618   4.405   1.496   9.556
13997SOL    HW153619   4.356   1.519   9.635
13997SOL    HW253620   4.378   1.561   9.491
13998SOL     OW53621   0.235   0.548  23.926
13998SOL    HW153622   0.181   0.609  23.875
13998SOL    HW253623   0.183   0.530  24.005
13999SOL     OW53624   0.837   2.947  20.119
13999SOL    HW153625   0.820   2.984  20.032
13999SOL    HW253626   0.754   2.955  20.165
14000SOL     OW53627   2.610   1.488  18.703
14000SOL    HW153628   2.702   1.501  18.680
14000SOL    HW253629   2.561   1.535  18.636
14001SOL     OW53630   4.597   3.837   5.084
14001SOL    HW153631   4.666   3.903   5.073
14001SOL    HW253632   4.529   3.883   5.134
14002SOL     OW53633   1.575   3.959  18.061
14002SOL    HW153634   1.556   4.023  17.993
14002SOL    HW253635   1.661   3.924  18.038
14003SOL     OW53636   3.639   1.963  23.409
14003SOL    HW153637   3.684   1.927  23.332
14003SOL    HW253638   3.583   1.893  23.439
14004SOL     OW53639   4.777   1.426  25.267
14004SOL    HW153640   4.733   1.498  25.220
14004SOL    HW253641   4.754   1.348  25.217
14005SOL     OW53642   4.765   1.746   7.202
14005SOL    HW153643   0.012   1.670   7.151
14005SOL    HW253644   0.023   1.732   7.288
14006SOL     OW53645   0.844   0.072   6.213
14006SOL    HW153646   0.751   0.077   6.191
14006SOL    HW253647   0.845   0.047   6.306
14007SOL     OW53648   0.061   0.029  20.882
14007SOL    HW153649   0.115   4.732  20.868
14007SOL    HW253650   0.080   0.085  20.807
14008SOL     OW53651   1.237   0.926   7.182
14008SOL    HW153652   1.196   0.840   7.188
14008SOL    HW253653   1.281   0.925   7.096
14009SOL     OW53654   3.034   0.321   0.438
14009SOL    HW153655   2.941   0.334   0.421
14009SOL    HW253656   3.047   0.226   0.432
14010SOL     OW53657   1.173   4.390  26.430
14010SOL    HW153658   1.152   4.400  26.337
14010SOL    HW253659   1.262   4.426  26.437
14011SOL     OW53660   2.062   0.749   7.372
14011SOL    HW153661   1.978   0.793   7.355
14011SOL    HW253662   2.093   0.723   7.285
14012SOL     OW53663   4.398   2.138  19.699
14012SOL    HW153664   4.467   2.125  19.764
14012SOL    HW253665   4.327   2.181  19.747
14013SOL     OW53666   0.983   3.665  10.428
14013SOL    HW153667   0.994   3.660  10.333
14013SOL    HW253668   0.891   3.688  10.441
14014SOL     OW53669   4.331   1.743   2.771
14014SOL    HW153670   4.370   1.672   2.822
14014SOL    HW253671   4.280   1.793   2.835
14015SOL     OW53672   0.969   4.364  20.370
14015SOL    HW153673   1.041   4.356  20.307
14015SOL    HW253674   0.949   4.458  20.371
14016SOL     OW53675   1.081   1.616  21.932
14016SOL    HW153676   1.022   1.596  21.859
14016SOL    HW253677   1.023   1.625  22.008
14017SOL     OW53678   0.291   4.556   1.894
14017SOL    HW153679   0.345   4.629   1.925
14017SOL    HW253680   0.344   4.478   1.912
14018SOL     OW53681   3.088   3.829  27.062
14018SOL    HW153682   3.039   3.747  27.055
14018SOL    HW253683   3.024   3.897  27.042
14019SOL     OW53684   3.424   2.687  22.504
14019SOL    HW153685   3.444   2.775  22.472
14019SOL    HW253686   3.509   2.643  22.506
14020SOL     OW53687   4.199   1.853  26.754
14020SOL    HW153688   4.282   1.855  26.803
14020SOL    HW253689   4.134   1.824  26.818
14021SOL     OW53690   2.240   3.772  18.618
14021SOL    HW153691   2.149   3.768  18.591
14021SOL    HW253692   2.289   3.791  18.538
14022SOL     OW53693   4.379   0.777   4.705
14022SOL    HW153694   4.421   0.832   4.771
14022SOL    HW253695   4.447   0.716   4.678
14023SOL     OW53696   1.755   4.165   5.244
14023SOL    HW153697   1.746   4.186   5.336
14023SOL    HW253698   1.841   4.125   5.236
14024SOL     OW53699   2.764   4.681   3.963
14024SOL    HW153700   2.817   4.604   3.984
14024SOL    HW253701   2.720   4.704   4.045
14025SOL     OW53702   4.613   2.791  27.841
14025SOL    HW153703   4.600   2.770  27.748
14025SOL    HW253704   4.640   2.708  27.880
14026SOL     OW53705   0.997   1.747   2.182
14026SOL    HW153706   1.022   1.678   2.121
14026SOL    HW253707   1.079   1.783   2.214
14027SOL     OW53708   3.948   1.874   0.510
14027SOL    HW153709   3.931   1.918   0.594
14027SOL    HW253710   3.861   1.856   0.475
14028SOL     OW53711   4.364   4.423   4.708
14028SOL    HW153712   4.405   4.491   4.762
14028SOL    HW253713   4.396   4.440   4.620
14029SOL     OW53714   3.529   0.719  22.454
14029SOL    HW153715   3.466   0.715  22.527
14029SOL    HW253716   3.585   0.642  22.467
14030SOL     OW53717   2.993   3.875  19.907
14030SOL    HW153718   3.060   3.913  19.851
14030SOL    HW253719   2.912   3.883  19.856
14031SOL     OW53720   2.333   3.365   6.959
14031SOL    HW153721   2.405   3.348   7.020
14031SOL    HW253722   2.286   3.439   6.997
14032SOL     OW53723   3.788   4.460   4.441
14032SOL    HW153724   3.695   4.479   4.454
14032SOL    HW253725   3.798   4.457   4.346
14033SOL     OW53726   3.865   3.262   3.693
14033SOL    HW153727   3.781   3.294   3.660
14033SOL    HW253728   3.894   3.331   3.753
14034SOL     OW53729   0.327   4.056   9.337
14034SOL    HW153730   0.280   4.130   9.376
14034SOL    HW253731   0.259   3.997   9.306
14035SOL     OW53732   2.983   1.345   9.069
14035SOL    HW153733   2.934   1.266   9.095
14035SOL    HW253734   3.040   1.315   8.998
14036SOL     OW53735   2.661   1.477  27.721
14036SOL    HW153736   2.606   1.554  27.737
14036SOL    HW253737   2.739   1.492  27.776
14037SOL     OW53738   0.179   1.260  20.357
14037SOL    HW153739   0.095   1.220  20.384
14037SOL    HW253740   0.156   1.315  20.283
14038SOL     OW53741   0.131   4.011   1.787
14038SOL    HW153742   0.210   3.957   1.785
14038SOL    HW253743   0.155   4.092   1.742
14039SOL     OW53744   0.599   3.124   5.260
14039SOL    HW153745   0.599   3.205   5.209
14039SOL    HW253746   0.626   3.150   5.348
14040SOL     OW53747   3.324   0.631   2.772
14040SOL    HW153748   3.297   0.605   2.860
14040SOL    HW253749   3.316   0.727   2.773
14041SOL     OW53750   0.632   2.671  28.043
14041SOL    HW153751   0.544   2.654  28.076
14041SOL    HW253752   0.634   2.629  27.956
14042SOL     OW53753   0.099   3.096  10.247
14042SOL    HW153754   0.083   3.117  10.339
14042SOL    HW253755   0.183   3.049  10.248
14043SOL     OW53756   2.169   1.829  27.495
14043SOL    HW153757   2.141   1.894  27.559
14043SOL    HW253758   2.150   1.745  27.535
14044SOL     OW53759   4.243   2.134  22.358
14044SOL    HW153760   4.309   2.189  22.316
14044SOL    HW253761   4.295   2.069  22.407
14045SOL     OW53762   3.476   0.591   0.249
14045SOL    HW153763   3.470   0.495   0.239
14045SOL    HW253764   3.403   0.624   0.197
14046SOL     OW53765   2.186   1.458   0.792
14046SOL    HW153766   2.113   1.511   0.824
14046SOL    HW253767   2.166   1.444   0.699
14047SOL     OW53768   2.350   3.347   0.108
14047SOL    HW153769   2.255   3.355   0.110
14047SOL    HW253770   2.367   3.281   0.041
14048SOL     OW53771   3.884   4.226  20.896
14048SOL    HW153772   3.946   4.165  20.936
14048SOL    HW253773   3.847   4.177  20.823
14049SOL     OW53774   2.967   0.919   9.335
14049SOL    HW153775   3.009   0.897   9.418
14049SOL    HW253776   3.026   0.884   9.268
14050SOL     OW53777   2.909   4.124  11.761
14050SOL    HW153778   2.919   4.182  11.686
14050SOL    HW253779   2.959   4.165  11.831
14051SOL     OW53780   1.763   4.174   4.513
14051SOL    HW153781   1.732   4.251   4.465
14051SOL    HW253782   1.791   4.208   4.598
14052SOL     OW53783   0.098   2.649  18.879
14052SOL    HW153784   0.008   2.618  18.869
14052SOL    HW253785   0.131   2.655  18.789
14053SOL     OW53786   1.498   4.453  24.219
14053SOL    HW153787   1.563   4.390  24.250
14053SOL    HW253788   1.469   4.419  24.134
14054SOL     OW53789   1.294   2.719   0.373
14054SOL    HW153790   1.236   2.745   0.302
14054SOL    HW253791   1.318   2.801   0.416
14055SOL     OW53792   1.555   3.377   9.132
14055SOL    HW153793   1.643   3.346   9.111
14055SOL    HW253794   1.505   3.297   9.150
14056SOL     OW53795   1.370   0.792   5.461
14056SOL    HW153796   1.466   0.787   5.462
14056SOL    HW253797   1.345   0.760   5.375
14057SOL     OW53798   2.243   0.879  26.826
14057SOL    HW153799   2.327   0.890  26.870
14057SOL    HW253800   2.247   0.937  26.750
14058SOL     OW53801   2.192   0.796   9.070
14058SOL    HW153802   2.282   0.774   9.045
14058SOL    HW253803   2.157   0.715   9.106
14059SOL     OW53804   1.660   0.937   1.310
14059SOL    HW153805   1.648   0.928   1.404
14059SOL    HW253806   1.747   0.976   1.300
14060SOL     OW53807   1.463   0.312   5.084
14060SOL    HW153808   1.385   0.314   5.139
14060SOL    HW253809   1.514   0.388   5.112
14061SOL     OW53810   3.151   2.657   1.688
14061SOL    HW153811   3.083   2.593   1.708
14061SOL    HW253812   3.160   2.708   1.768
14062SOL     OW53813   0.173   2.160  19.817
14062SOL    HW153814   0.205   2.246  19.788
14062SOL    HW253815   0.204   2.152  19.907
14063SOL     OW53816   3.597   3.493   5.398
14063SOL    HW153817   3.680   3.484   5.352
14063SOL    HW253818   3.574   3.586   5.388
14064SOL     OW53819   4.396   1.243   8.674
14064SOL    HW153820   4.367   1.320   8.722
14064SOL    HW253821   4.320   1.186   8.671
14065SOL     OW53822   0.290   1.861   3.598
14065SOL    HW153823   0.290   1.766   3.604
14065SOL    HW253824   0.223   1.881   3.532
14066SOL     OW53825   4.499   4.147   8.904
14066SOL    HW153826   4.500   4.103   8.818
14066SOL    HW253827   4.525   4.079   8.966
14067SOL     OW53828   3.644   1.301   4.626
14067SOL    HW153829   3.631   1.389   4.591
14067SOL    HW253830   3.557   1.262   4.624
14068SOL     OW53831   3.400   0.221  26.406
14068SOL    HW153832   3.374   0.129  26.407
14068SOL    HW253833   3.397   0.245  26.313
14069SOL     OW53834   3.549   0.441  22.836
14069SOL    HW153835   3.530   0.490  22.916
14069SOL    HW253836   3.512   0.494  22.765
14070SOL     OW53837   1.676   1.340   6.506
14070SOL    HW153838   1.623   1.308   6.579
14070SOL    HW253839   1.695   1.431   6.529
14071SOL     OW53840   2.255   0.656   3.931
14071SOL    HW153841   2.162   0.681   3.934
14071SOL    HW253842   2.302   0.736   3.954
14072SOL     OW53843   4.624   2.070   2.054
14072SOL    HW153844   4.674   1.999   2.093
14072SOL    HW253845   4.676   2.148   2.071
14073SOL     OW53846   1.692   2.162  10.753
14073SOL    HW153847   1.765   2.171  10.815
14073SOL    HW253848   1.637   2.093  10.791
14074SOL     OW53849   4.641   3.593   6.651
14074SOL    HW153850   4.645   3.624   6.560
14074SOL    HW253851   4.729   3.560   6.669
14075SOL     OW53852   1.423   1.424   7.765
14075SOL    HW153853   1.366   1.461   7.698
14075SOL    HW253854   1.364   1.392   7.833
14076SOL     OW53855   1.585   3.153  19.449
14076SOL    HW153856   1.630   3.235  19.429
14076SOL    HW253857   1.507   3.154  19.394
14077SOL     OW53858   3.231   2.724   5.942
14077SOL    HW153859   3.247   2.643   5.991
14077SOL    HW253860   3.249   2.794   6.005
14078SOL     OW53861   3.145   3.586  20.833
14078SOL    HW153862   3.073   3.627  20.785
14078SOL    HW253863   3.224   3.612  20.786
14079SOL     OW53864   2.675   2.062  25.397
14079SOL    HW153865   2.595   2.106  25.370
14079SOL    HW253866   2.682   2.081  25.491
14080SOL     OW53867   1.386   2.730  20.646
14080SOL    HW153868   1.400   2.795  20.715
14080SOL    HW253869   1.390   2.645  20.691
14081SOL     OW53870   3.612   0.855  25.088
14081SOL    HW153871   3.539   0.820  25.037
14081SOL    HW253872   3.626   0.790  25.158
14082SOL     OW53873   4.358   2.869  23.181
14082SOL    HW153874   4.391   2.941  23.128
14082SOL    HW253875   4.264   2.885  23.187
14083SOL     OW53876   0.520   4.340  24.501
14083SOL    HW153877   0.581   4.352  24.428
14083SOL    HW253878   0.566   4.280  24.560
14084SOL     OW53879   3.371   4.627  23.858
14084SOL    HW153880   3.311   4.686  23.812
14084SOL    HW253881   3.327   4.543  23.858
14085SOL     OW53882   4.489   0.041  21.321
14085SOL    HW153883   4.543   0.027  21.243
14085SOL    HW253884   4.467   4.733  21.351
14086SOL     OW53885   4.133   3.758   1.686
14086SOL    HW153886   4.172   3.733   1.770
14086SOL    HW253887   4.207   3.775   1.628
14087SOL     OW53888   1.619   2.750   0.369
14087SOL    HW153889   1.663   2.826   0.407
14087SOL    HW253890   1.551   2.728   0.432
14088SOL     OW53891   3.120   4.705  23.789
14088SOL    HW153892   3.044   4.716  23.732
14088SOL    HW253893   3.089   4.646  23.858
14089SOL     OW53894   1.851   3.378   2.821
14089SOL    HW153895   1.880   3.301   2.773
14089SOL    HW253896   1.908   3.382   2.898
14090SOL     OW53897   1.772   1.974  17.163
14090SOL    HW153898   1.698   2.007  17.112
14090SOL    HW253899   1.832   1.938  17.098
14091SOL     OW53900   1.906   1.606   1.816
14091SOL    HW153901   1.941   1.588   1.903
14091SOL    HW253902   1.871   1.695   1.823
14092SOL     OW53903   0.879   1.293   7.025
14092SOL    HW153904   0.823   1.370   7.018
14092SOL    HW253905   0.957   1.323   7.070
14093SOL     OW53906   3.416   3.313   1.144
14093SOL    HW153907   3.485   3.256   1.110
14093SOL    HW253908   3.340   3.293   1.090
14094SOL     OW53909   4.574   3.801  21.110
14094SOL    HW153910   4.653   3.747  21.100
14094SOL    HW253911   4.607   3.886  21.137
14095SOL     OW53912   3.265   4.533  20.499
14095SOL    HW153913   3.337   4.502  20.554
14095SOL    HW253914   3.307   4.556  20.416
14096SOL     OW53915   1.235   2.594  21.158
14096SOL    HW153916   1.216   2.687  21.165
14096SOL    HW253917   1.266   2.569  21.245
14097SOL     OW53918   1.401   0.399   7.243
14097SOL    HW153919   1.306   0.409   7.257
14097SOL    HW253920   1.429   0.342   7.314
14098SOL     OW53921   1.332   1.570   2.663
14098SOL    HW153922   1.343   1.475   2.664
14098SOL    HW253923   1.260   1.586   2.725
14099SOL     OW53924   1.445   3.318  20.791
14099SOL    HW153925   1.512   3.249  20.789
14099SOL    HW253926   1.372   3.277  20.837
14100SOL     OW53927   3.997   0.086   7.559
14100SOL    HW153928   4.001   0.125   7.646
14100SOL    HW253929   4.072   0.027   7.556
14101SOL     OW53930   2.066   1.342  27.472
14101SOL    HW153931   2.119   1.264  27.489
14101SOL    HW253932   2.110   1.385  27.399
14102SOL     OW53933   1.248   4.627  21.745
14102SOL    HW153934   1.223   4.683  21.818
14102SOL    HW253935   1.323   4.577  21.778
14103SOL     OW53936   4.773   0.730  26.534
14103SOL    HW153937   0.046   0.807  26.546
14103SOL    HW253938   4.722   0.748  26.455
14104SOL     OW53939   1.163   1.270   4.282
14104SOL    HW153940   1.147   1.315   4.365
14104SOL    HW253941   1.245   1.221   4.297
14105SOL     OW53942   3.292   1.595  20.608
14105SOL    HW153943   3.331   1.605  20.695
14105SOL    HW253944   3.201   1.572  20.625
14106SOL     OW53945   4.385   4.262  23.654
14106SOL    HW153946   4.324   4.201  23.612
14106SOL    HW253947   4.347   4.348  23.639
14107SOL     OW53948   2.929   0.591   3.418
14107SOL    HW153949   2.966   0.645   3.488
14107SOL    HW253950   2.895   0.514   3.464
14108SOL     OW53951   0.540   2.846   0.815
14108SOL    HW153952   0.582   2.783   0.756
14108SOL    HW253953   0.613   2.898   0.851
14109SOL     OW53954   3.084   3.093  20.985
14109SOL    HW153955   3.106   3.002  20.963
14109SOL    HW253956   3.129   3.145  20.918
14110SOL     OW53957   3.683   1.852   1.944
14110SOL    HW153958   3.678   1.914   1.871
14110SOL    HW253959   3.687   1.907   2.022
14111SOL     OW53960   2.298   4.489   1.009
14111SOL    HW153961   2.212   4.456   0.985
14111SOL    HW253962   2.299   4.580   0.978
14112SOL     OW53963   0.242   2.728   4.133
14112SOL    HW153964   0.317   2.669   4.141
14112SOL    HW253965   0.210   2.738   4.223
14113SOL     OW53966   4.781   1.469   4.159
14113SOL    HW153967   4.715   1.408   4.193
14113SOL    HW253968   0.028   1.519   4.235
14114SOL     OW53969   0.000   2.079  10.469
14114SOL    HW153970   4.741   2.018  10.532
14114SOL    HW253971   4.746   2.052  10.384
14115SOL     OW53972   2.890   0.139  26.725
14115SOL    HW153973   2.942   0.171  26.651
14115SOL    HW253974   2.882   0.045  26.710
14116SOL     OW53975   2.913   1.089   3.829
14116SOL    HW153976   2.961   1.136   3.761
14116SOL    HW253977   2.827   1.072   3.791
14117SOL     OW53978   1.443   0.173  25.109
14117SOL    HW153979   1.389   0.249  25.132
14117SOL    HW253980   1.386   0.097  25.126
14118SOL     OW53981   3.427   4.392  27.033
14118SOL    HW153982   3.391   4.305  27.054
14118SOL    HW253983   3.508   4.397  27.085
14119SOL     OW53984   1.653   3.343  24.501
14119SOL    HW153985   1.628   3.357  24.409
14119SOL    HW253986   1.748   3.355  24.502
14120SOL     OW53987   2.932   1.073  26.026
14120SOL    HW153988   2.907   1.018  25.952
14120SOL    HW253989   3.024   1.094  26.011
14121SOL     OW53990   0.740   2.181   8.260
14121SOL    HW153991   0.778   2.267   8.278
14121SOL    HW253992   0.761   2.129   8.338
14122SOL     OW53993   4.493   1.948   8.379
14122SOL    HW153994   4.414   1.964   8.327
14122SOL    HW253995   4.531   2.034   8.394
14123SOL     OW53996   4.426   0.859   1.568
14123SOL    HW153997   4.487   0.898   1.630
14123SOL    HW253998   4.457   0.769   1.558
14124SOL     OW53999   4.373   4.343   9.033
14124SOL    HW154000   4.288   4.325   9.073
14124SOL    HW254001   4.402   4.258   8.999
14125SOL     OW54002   3.817   2.457  21.099
14125SOL    HW154003   3.753   2.398  21.139
14125SOL    HW254004   3.770   2.497  21.026
14126SOL     OW54005   0.570   2.694   8.487
14126SOL    HW154006   0.552   2.727   8.575
14126SOL    HW254007   0.483   2.686   8.447
14127SOL     OW54008   0.931   1.356  21.932
14127SOL    HW154009   1.002   1.377  21.871
14127SOL    HW254010   0.975   1.324  22.010
14128SOL     OW54011   2.336   0.577  12.401
14128SOL    HW154012   2.377   0.656  12.365
14128SOL    HW254013   2.251   0.572  12.356
14129SOL     OW54014   4.206   3.642  25.331
14129SOL    HW154015   4.237   3.673  25.246
14129SOL    HW254016   4.121   3.685  25.344
14130SOL     OW54017   0.311   3.216  24.598
14130SOL    HW154018   0.351   3.150  24.540
14130SOL    HW254019   0.384   3.269  24.628
14131SOL     OW54020   0.228   2.065  10.997
14131SOL    HW154021   0.270   2.146  11.027
14131SOL    HW254022   0.202   2.020  11.077
14132SOL     OW54023   4.379   4.263   3.811
14132SOL    HW154024   4.415   4.322   3.745
14132SOL    HW254025   4.325   4.319   3.867
14133SOL     OW54026   4.361   4.578   5.789
14133SOL    HW154027   4.293   4.596   5.853
14133SOL    HW254028   4.439   4.623   5.824
14134SOL     OW54029   3.558   3.327   0.831
14134SOL    HW154030   3.583   3.419   0.817
14134SOL    HW254031   3.615   3.278   0.772
14135SOL     OW54032   1.080   0.548   4.416
14135SOL    HW154033   1.065   0.506   4.331
14135SOL    HW254034   1.040   0.488   4.479
14136SOL     OW54035   1.283   4.169   7.642
14136SOL    HW154036   1.306   4.258   7.668
14136SOL    HW254037   1.210   4.145   7.699
14137SOL     OW54038   0.408   4.619   7.358
14137SOL    HW154039   0.411   4.669   7.439
14137SOL    HW254040   0.314   4.603   7.343
14138SOL     OW54041   0.474   2.670  20.327
14138SOL    HW154042   0.494   2.750  20.375
14138SOL    HW254043   0.460   2.604  20.394
14139SOL     OW54044   3.004   4.291   9.944
14139SOL    HW154045   2.931   4.345   9.913
14139SOL    HW254046   2.963   4.207   9.967
14140SOL     OW54047   4.360   2.289   1.234
14140SOL    HW154048   4.307   2.333   1.300
14140SOL    HW254049   4.450   2.300   1.264
14141SOL     OW54050   2.703   1.179   0.082
14141SOL    HW154051   2.724   1.263   0.122
14141SOL    HW254052   2.776   1.122   0.106
14142SOL     OW54053   3.253   2.201  27.335
14142SOL    HW154054   3.332   2.179  27.285
14142SOL    HW254055   3.246   2.131  27.400
14143SOL     OW54056   1.923   1.828  23.400
14143SOL    HW154057   1.911   1.905  23.345
14143SOL    HW254058   1.884   1.757  23.350
14144SOL     OW54059   2.282   1.866   8.842
14144SOL    HW154060   2.326   1.856   8.926
14144SOL    HW254061   2.321   1.800   8.785
14145SOL     OW54062   3.730   3.793   1.502
14145SOL    HW154063   3.764   3.727   1.442
14145SOL    HW254064   3.641   3.811   1.470
14146SOL     OW54065   4.762   2.458   2.823
14146SOL    HW154066   0.053   2.410   2.782
14146SOL    HW254067   4.709   2.390   2.866
14147SOL     OW54068   2.825   3.443  27.449
14147SOL    HW154069   2.845   3.514  27.389
14147SOL    HW254070   2.778   3.485  27.521
14148SOL     OW54071   0.162   0.030  21.249
14148SOL    HW154072   0.113   0.097  21.296
14148SOL    HW254073   0.118   4.729  21.270
14149SOL     OW54074   3.697   2.556  22.448
14149SOL    HW154075   3.759   2.614  22.404
14149SOL    HW254076   3.710   2.471  22.407
14150SOL     OW54077   4.736   4.778   9.513
14150SOL    HW154078   4.755   4.701   9.460
14150SOL    HW254079   4.702   0.061   9.451
14151SOL     OW54080   4.624   1.615  24.326
14151SOL    HW154081   4.572   1.538  24.350
14151SOL    HW254082   4.597   1.636  24.237
14152SOL     OW54083   0.480   0.973   7.849
14152SOL    HW154084   0.574   0.972   7.831
14152SOL    HW254085   0.451   0.883   7.833
14153SOL     OW54086   0.275   4.571  22.641
14153SOL    HW154087   0.226   4.528  22.571
14153SOL    HW254088   0.238   4.660  22.645
14154SOL     OW54089   0.912   0.061   0.179
14154SOL    HW154090   0.828   0.096   0.211
14154SOL    HW254091   0.971   0.137   0.179
14155SOL     OW54092   2.612   2.657   3.785
14155SOL    HW154093   2.611   2.746   3.821
14155SOL    HW254094   2.528   2.648   3.741
14156SOL     OW54095   1.742   0.949   3.133
14156SOL    HW154096   1.768   0.867   3.090
14156SOL    HW254097   1.697   0.920   3.213
14157SOL     OW54098   3.837   3.092  22.494
14157SOL    HW154099   3.792   3.138  22.565
14157SOL    HW254100   3.815   3.142  22.416
14158SOL     OW54101   1.799   4.355  27.162
14158SOL    HW154102   1.849   4.275  27.177
14158SOL    HW254103   1.708   4.327  27.159
14159SOL     OW54104   2.627   0.465   6.232
14159SOL    HW154105   2.640   0.498   6.144
14159SOL    HW254106   2.600   0.542   6.283
14160SOL     OW54107   1.202   0.299  28.356
14160SOL    HW154108   1.170   0.372  28.304
14160SOL    HW254109   1.206   0.226  28.295
14161SOL     OW54110   0.650   0.951  26.903
14161SOL    HW154111   0.571   0.901  26.885
14161SOL    HW254112   0.620   1.041  26.914
14162SOL     OW54113   0.439   2.970  26.981
14162SOL    HW154114   0.456   2.953  26.888
14162SOL    HW254115   0.495   3.045  27.002
14163SOL     OW54116   0.572   1.520   7.273
14163SOL    HW154117   0.645   1.562   7.319
14163SOL    HW254118   0.511   1.591   7.254
14164SOL     OW54119   0.259   2.220   4.736
14164SOL    HW154120   0.320   2.244   4.805
14164SOL    HW254121   0.252   2.125   4.742
14165SOL     OW54122   0.652   1.411   5.789
14165SOL    HW154123   0.595   1.482   5.758
14165SOL    HW254124   0.642   1.412   5.884
14166SOL     OW54125   3.387   4.517   3.602
14166SOL    HW154126   3.315   4.477   3.552
14166SOL    HW254127   3.464   4.466   3.577
14167SOL     OW54128   1.241   2.487   8.936
14167SOL    HW154129   1.276   2.403   8.907
14167SOL    HW254130   1.148   2.484   8.913
14168SOL     OW54131   1.773   3.566   8.198
14168SOL    HW154132   1.783   3.515   8.279
14168SOL    HW254133   1.776   3.500   8.129
14169SOL     OW54134   0.539   1.689   6.894
14169SOL    HW154135   0.473   1.667   6.959
14169SOL    HW254136   0.489   1.722   6.819
14170SOL     OW54137   2.410   3.854   0.034
14170SOL    HW154138   2.433   3.904  28.478
14170SOL    HW254139   2.420   3.763   0.008
14171SOL     OW54140   1.767   0.191  10.295
14171SOL    HW154141   1.723   0.232  10.370
14171SOL    HW254142   1.756   0.097  10.309
14172SOL     OW54143   3.988   2.922   0.555
14172SOL    HW154144   4.027   2.875   0.481
14172SOL    HW254145   4.060   2.972   0.593
14173SOL     OW54146   4.560   1.205   3.376
14173SOL    HW154147   4.499   1.274   3.401
14173SOL    HW254148   4.524   1.125   3.413
14174SOL     OW54149   0.862   0.981   4.644
14174SOL    HW154150   0.787   0.978   4.585
14174SOL    HW254151   0.828   0.953   4.729
14175SOL     OW54152   0.744   2.701   8.278
14175SOL    HW154153   0.712   2.774   8.224
14175SOL    HW254154   0.694   2.708   8.359
14176SOL     OW54155   0.634   3.273   3.943
14176SOL    HW154156   0.676   3.207   3.998
14176SOL    HW254157   0.580   3.224   3.882
14177SOL     OW54158   0.840   1.130  20.807
14177SOL    HW154159   0.833   1.037  20.783
14177SOL    HW254160   0.760   1.148  20.855
14178SOL     OW54161   4.050   4.312   7.938
14178SOL    HW154162   3.956   4.293   7.941
14178SOL    HW254163   4.090   4.228   7.915
14179SOL     OW54164   1.752   0.850  20.439
14179SOL    HW154165   1.810   0.867  20.364
14179SOL    HW254166   1.666   0.838  20.401
14180SOL     OW54167   0.791   2.881   9.535
14180SOL    HW154168   0.784   2.811   9.470
14180SOL    HW254169   0.779   2.836   9.619
14181SOL     OW54170   0.580   3.874  21.339
14181SOL    HW154171   0.625   3.947  21.297
14181SOL    HW254172   0.644   3.803  21.338
14182SOL     OW54173   0.840   3.298  19.741
14182SOL    HW154174   0.782   3.268  19.671
14182SOL    HW254175   0.892   3.367  19.700
14183SOL     OW54176   0.005   2.680  18.204
14183SOL    HW154177   0.019   2.604  18.147
14183SOL    HW254178   0.076   2.740  18.182
14184SOL     OW54179   2.804   3.276   7.363
14184SOL    HW154180   2.793   3.367   7.392
14184SOL    HW254181   2.715   3.247   7.342
14185SOL     OW54182   1.816   2.387   1.997
14185SOL    HW154183   1.828   2.292   2.002
14185SOL    HW254184   1.725   2.398   1.971
14186SOL     OW54185   0.931   1.262  24.250
14186SOL    HW154186   0.915   1.351  24.219
14186SOL    HW254187   0.847   1.218  24.244
14187SOL     OW54188   1.719   2.851   7.353
14187SOL    HW154189   1.678   2.819   7.273
14187SOL    HW254190   1.646   2.870   7.412
14188SOL     OW54191   3.325   4.630   5.183
14188SOL    HW154192   3.303   4.716   5.218
14188SOL    HW254193   3.264   4.570   5.225
14189SOL     OW54194   4.358   0.497   4.460
14189SOL    HW154195   4.415   0.423   4.436
14189SOL    HW254196   4.301   0.508   4.385
14190SOL     OW54197   0.464   1.471   2.974
14190SOL    HW154198   0.420   1.450   2.891
14190SOL    HW254199   0.551   1.500   2.948
14191SOL     OW54200   4.257   1.698   8.590
14191SOL    HW154201   4.346   1.670   8.568
14191SOL    HW254202   4.258   1.710   8.685
14192SOL     OW54203   3.011   2.086   3.644
14192SOL    HW154204   3.005   1.991   3.655
14192SOL    HW254205   3.066   2.097   3.566
14193SOL     OW54206   2.810   0.389  20.856
14193SOL    HW154207   2.828   0.482  20.865
14193SOL    HW254208   2.729   0.384  20.805
14194SOL     OW54209   2.086   2.295  26.194
14194SOL    HW154210   2.101   2.206  26.227
14194SOL    HW254211   2.049   2.343  26.268
14195SOL     OW54212   4.582   2.029   4.798
14195SOL    HW154213   4.619   1.972   4.864
14195SOL    HW254214   4.626   2.004   4.717
14196SOL     OW54215   0.494   1.388   0.119
14196SOL    HW154216   0.559   1.448   0.082
14196SOL    HW254217   0.512   1.304   0.075
14197SOL     OW54218   3.734   0.939   3.650
14197SOL    HW154219   3.817   0.949   3.603
14197SOL    HW254220   3.734   0.848   3.679
14198SOL     OW54221   1.828   3.265  19.918
14198SOL    HW154222   1.807   3.203  19.989
14198SOL    HW254223   1.800   3.220  19.838
14199SOL     OW54224   0.000   0.493   5.052
14199SOL    HW154225   4.735   0.561   5.003
14199SOL    HW254226   4.775   0.522   5.143
14200SOL     OW54227   0.025   4.130  23.906
14200SOL    HW154228   0.087   4.062  23.879
14200SOL    HW254229   4.769   4.163  23.824
14201SOL     OW54230   4.711   0.282  20.650
14201SOL    HW154231   4.748   0.366  20.679
14201SOL    HW254232   4.770   0.252  20.581
14202SOL     OW54233   4.766   4.151  27.328
14202SOL    HW154234   0.065   4.158  27.277
14202SOL    HW254235   0.013   4.166  27.419
14203SOL     OW54236   2.613   1.464  22.635
14203SOL    HW154237   2.583   1.469  22.726
14203SOL    HW254238   2.554   1.524  22.588
14204SOL     OW54239   0.438   1.274  11.451
14204SOL    HW154240   0.464   1.302  11.539
14204SOL    HW254241   0.421   1.356  11.405
14205SOL     OW54242   2.888   2.084  23.641
14205SOL    HW154243   2.971   2.080  23.593
14205SOL    HW254244   2.896   2.162  23.696
14206SOL     OW54245   2.781   4.584   5.942
14206SOL    HW154246   2.820   4.541   6.018
14206SOL    HW254247   2.840   4.657   5.922
14207SOL     OW54248   0.218   0.261  22.180
14207SOL    HW154249   0.255   0.195  22.122
14207SOL    HW254250   0.241   0.231  22.268
14208SOL     OW54251   4.409   0.568  24.726
14208SOL    HW154252   4.341   0.575  24.659
14208SOL    HW254253   4.362   0.544  24.806
14209SOL     OW54254   3.195   3.018   8.475
14209SOL    HW154255   3.243   3.058   8.548
14209SOL    HW254256   3.104   3.047   8.488
14210SOL     OW54257   1.936   3.016   8.168
14210SOL    HW154258   1.946   3.081   8.238
14210SOL    HW254259   1.992   3.048   8.097
14211SOL     OW54260   0.924   3.743  21.444
14211SOL    HW154261   0.973   3.698  21.512
14211SOL    HW254262   0.989   3.762  21.376
14212SOL     OW54263   1.620   0.783  27.731
14212SOL    HW154264   1.689   0.717  27.731
14212SOL    HW254265   1.547   0.742  27.778
14213SOL     OW54266   2.303   4.579   2.617
14213SOL    HW154267   2.314   4.555   2.709
14213SOL    HW254268   2.349   4.663   2.610
14214SOL     OW54269   3.438   0.820   3.829
14214SOL    HW154270   3.452   0.799   3.922
14214SOL    HW254271   3.508   0.773   3.783
14215SOL     OW54272   3.293   0.649   7.403
14215SOL    HW154273   3.329   0.693   7.326
14215SOL    HW254274   3.234   0.713   7.443
14216SOL     OW54275   0.253   3.645  26.968
14216SOL    HW154276   0.249   3.572  26.906
14216SOL    HW254277   0.339   3.638  27.008
14217SOL     OW54278   3.368   4.388  22.878
14217SOL    HW154279   3.355   4.360  22.787
14217SOL    HW254280   3.442   4.336  22.908
14218SOL     OW54281   3.907   2.150  24.562
14218SOL    HW154282   3.919   2.242  24.585
14218SOL    HW254283   3.891   2.105  24.645
14219SOL     OW54284   3.815   4.611  23.871
14219SOL    HW154285   3.735   4.662  23.857
14219SOL    HW254286   3.830   4.566  23.787
14220SOL     OW54287   2.380   3.530  28.250
14220SOL    HW154288   2.310   3.571  28.300
14220SOL    HW254289   2.396   3.447  28.294
14221SOL     OW54290   4.015   2.295  26.656
14221SOL    HW154291   4.066   2.297  26.737
14221SOL    HW254292   4.040   2.212  26.615
14222SOL     OW54293   1.712   0.420   0.983
14222SOL    HW154294   1.710   0.330   1.016
14222SOL    HW254295   1.784   0.462   1.031
14223SOL     OW54296   0.005   1.146   9.315
14223SOL    HW154297   0.091   1.175   9.284
14223SOL    HW254298   0.020   1.058   9.350
14224SOL     OW54299   3.934   4.436   4.175
14224SOL    HW154300   3.852   4.413   4.132
14224SOL    HW254301   3.989   4.359   4.165
14225SOL     OW54302   1.988   1.249  20.235
14225SOL    HW154303   2.024   1.181  20.179
14225SOL    HW254304   1.914   1.284  20.185
14226SOL     OW54305   1.388   4.529  24.623
14226SOL    HW154306   1.465   4.585  24.634
14226SOL    HW254307   1.325   4.563  24.687
14227SOL     OW54308   3.836   4.487  20.234
14227SOL    HW154309   3.902   4.551  20.260
14227SOL    HW254310   3.875   4.439  20.161
14228SOL     OW54311   1.251   0.973  24.320
14228SOL    HW154312   1.336   0.982  24.362
14228SOL    HW254313   1.197   0.925  24.383
14229SOL     OW54314   0.669   2.680   7.281
14229SOL    HW154315   0.584   2.681   7.324
14229SOL    HW254316   0.653   2.717   7.194
14230SOL     OW54317   0.408   0.386  23.309
14230SOL    HW154318   0.331   0.338  23.338
14230SOL    HW254319   0.411   0.372  23.214
14231SOL     OW54320   1.046   2.550   0.979
14231SOL    HW154321   1.026   2.493   0.905
14231SOL    HW254322   1.128   2.594   0.954
14232SOL     OW54323   0.069   0.085   4.032
14232SOL    HW154324   0.033   4.778   4.033
14232SOL    HW254325   4.776   0.140   4.006
14233SOL     OW54326   0.094   1.529  10.154
14233SOL    HW154327   0.018   1.513  10.210
14233SOL    HW254328   0.057   1.576  10.078
14234SOL     OW54329   3.840   3.489  18.517
14234SOL    HW154330   3.826   3.584  18.516
14234SOL    HW254331   3.824   3.463  18.607
14235SOL     OW54332   2.799   1.942  21.137
14235SOL    HW154333   2.865   1.927  21.070
14235SOL    HW254334   2.752   2.020  21.107
14236SOL     OW54335   2.702   0.708   0.991
14236SOL    HW154336   2.706   0.614   0.971
14236SOL    HW254337   2.681   0.749   0.907
14237SOL     OW54338   3.987   0.811   5.682
14237SOL    HW154339   4.023   0.899   5.678
14237SOL    HW254340   3.913   0.813   5.622
14238SOL     OW54341   0.367   1.359   8.099
14238SOL    HW154342   0.289   1.411   8.120
14238SOL    HW254343   0.438   1.422   8.095
14239SOL     OW54344   2.841   2.890  24.786
14239SOL    HW154345   2.824   2.842  24.867
14239SOL    HW254346   2.882   2.972  24.815
14240SOL     OW54347   0.458   2.176  26.326
14240SOL    HW154348   0.454   2.216  26.412
14240SOL    HW254349   0.367   2.168  26.298
14241SOL     OW54350   3.091   3.613   2.993
14241SOL    HW154351   3.143   3.622   2.913
14241SOL    HW254352   3.119   3.686   3.048
14242SOL     OW54353   0.456   3.274  23.887
14242SOL    HW154354   0.519   3.342  23.911
14242SOL    HW254355   0.455   3.274  23.792
14243SOL     OW54356   4.081   4.594  23.966
14243SOL    HW154357   3.990   4.600  23.936
14243SOL    HW254358   4.083   4.645  24.047
14244SOL     OW54359   0.068   3.100  19.124
14244SOL    HW154360   0.045   3.014  19.090
14244SOL    HW254361   0.129   3.082  19.196
14245SOL     OW54362   2.374   0.791  11.069
14245SOL    HW154363   2.361   0.747  11.153
14245SOL    HW254364   2.309   0.862  11.069
14246SOL     OW54365   1.591   2.865  26.092
14246SOL    HW154366   1.564   2.955  26.073
14246SOL    HW254367   1.686   2.870  26.101
14247SOL     OW54368   0.619   3.121  20.800
14247SOL    HW154369   0.691   3.146  20.741
14247SOL    HW254370   0.540   3.135  20.748
14248SOL     OW54371   3.581   2.285  21.168
14248SOL    HW154372   3.530   2.257  21.092
14248SOL    HW254373   3.515   2.299  21.237
14249SOL     OW54374   0.864   1.165  27.720
14249SOL    HW154375   0.939   1.211  27.759
14249SOL    HW254376   0.818   1.232  27.670
14250SOL     OW54377   3.836   0.479   8.033
14250SOL    HW154378   3.924   0.474   7.994
14250SOL    HW254379   3.797   0.394   8.014
14251SOL     OW54380   0.992   2.683   7.399
14251SOL    HW154381   0.900   2.660   7.416
14251SOL    HW254382   1.034   2.599   7.379
14252SOL     OW54383   0.134   4.393  23.272
14252SOL    HW154384   0.226   4.393  23.247
14252SOL    HW254385   0.111   4.486  23.281
14253SOL     OW54386   1.177   3.413   2.741
14253SOL    HW154387   1.244   3.480   2.736
14253SOL    HW254388   1.218   3.335   2.704
14254SOL     OW54389   4.608   1.603   9.743
14254SOL    HW154390   4.543   1.670   9.721
14254SOL    HW254391   4.624   1.558   9.660
14255SOL     OW54392   0.344   3.338   1.235
14255SOL    HW154393   0.312   3.250   1.219
14255SOL    HW254394   0.381   3.334   1.323
14256SOL     OW54395   3.448   0.505   9.989
14256SOL    HW154396   3.454   0.594  10.025
14256SOL    HW254397   3.442   0.449  10.066
14257SOL     OW54398   3.465   4.598   4.787
14257SOL    HW154399   3.486   4.558   4.872
14257SOL    HW254400   3.549   4.627   4.753
14258SOL     OW54401   1.744   2.677  26.564
14258SOL    HW154402   1.809   2.743  26.588
14258SOL    HW254403   1.688   2.721  26.500
14259SOL     OW54404   1.981   1.398   6.453
14259SOL    HW154405   2.032   1.345   6.514
14259SOL    HW254406   1.890   1.374   6.471
14260SOL     OW54407   4.010   4.448   7.227
14260SOL    HW154408   3.930   4.499   7.211
14260SOL    HW254409   4.079   4.498   7.184
14261SOL     OW54410   4.066   0.332   5.863
14261SOL    HW154411   4.005   0.335   5.936
14261SOL    HW254412   4.052   0.414   5.816
14262SOL     OW54413   1.134   2.320  28.259
14262SOL    HW154414   1.049   2.284  28.235
14262SOL    HW254415   1.180   2.329  28.176
14263SOL     OW54416   4.004   2.887   6.643
14263SOL    HW154417   4.097   2.896   6.664
14263SOL    HW254418   4.003   2.860   6.552
14264SOL     OW54419   2.678   1.083  18.078
14264SOL    HW154420   2.594   1.038  18.083
14264SOL    HW254421   2.679   1.142  18.153
14265SOL     OW54422   2.692   0.330   7.115
14265SOL    HW154423   2.709   0.389   7.042
14265SOL    HW254424   2.774   0.328   7.164
14266SOL     OW54425   3.482   2.981  27.678
14266SOL    HW154426   3.405   2.983  27.734
14266SOL    HW254427   3.460   3.039  27.605
14267SOL     OW54428   1.109   3.656  23.275
14267SOL    HW154429   1.028   3.635  23.321
14267SOL    HW254430   1.125   3.748  23.296
14268SOL     OW54431   1.915   1.715   8.678
14268SOL    HW154432   1.982   1.647   8.676
14268SOL    HW254433   1.960   1.794   8.705
14269SOL     OW54434   0.699   1.411  25.566
14269SOL    HW154435   0.603   1.418  25.564
14269SOL    HW254436   0.727   1.447  25.482
14270SOL     OW54437   0.709   1.290   8.070
14270SOL    HW154438   0.744   1.273   7.982
14270SOL    HW254439   0.663   1.374   8.061
14271SOL     OW54440   2.425   0.757  27.655
14271SOL    HW154441   2.356   0.693  27.640
14271SOL    HW254442   2.492   0.737  27.590
14272SOL     OW54443   2.208   2.447  21.748
14272SOL    HW154444   2.214   2.524  21.691
14272SOL    HW254445   2.276   2.460  21.814
14273SOL     OW54446   2.962   3.072  22.887
14273SOL    HW154447   2.939   3.033  22.803
14273SOL    HW254448   2.934   3.164  22.879
14274SOL     OW54449   1.416   1.461  22.971
14274SOL    HW154450   1.501   1.427  22.944
14274SOL    HW254451   1.389   1.404  23.043
14275SOL     OW54452   4.538   3.809   7.476
14275SOL    HW154453   4.569   3.900   7.481
14275SOL    HW254454   4.616   3.758   7.457
14276SOL     OW54455   4.709   1.934   8.178
14276SOL    HW154456   4.712   1.908   8.270
14276SOL    HW254457   4.752   2.020   8.176
14277SOL     OW54458   2.038   2.640  28.225
14277SOL    HW154459   2.110   2.658  28.164
14277SOL    HW254460   2.001   2.727  28.244
14278SOL     OW54461   1.044   0.487   4.784
14278SOL    HW154462   1.002   0.505   4.868
14278SOL    HW254463   1.003   0.406   4.753
14279SOL     OW54464   1.235   3.160   8.016
14279SOL    HW154465   1.321   3.198   7.994
14279SOL    HW254466   1.177   3.235   8.023
14280SOL     OW54467   3.617   0.227  24.756
14280SOL    HW154468   3.655   0.140  24.753
14280SOL    HW254469   3.542   0.219  24.815
14281SOL     OW54470   4.535   3.268   5.210
14281SOL    HW154471   4.552   3.315   5.128
14281SOL    HW254472   4.503   3.182   5.181
14282SOL     OW54473   1.989   1.058   4.334
14282SOL    HW154474   1.977   0.973   4.377
14282SOL    HW254475   1.900   1.084   4.308
14283SOL     OW54476   3.639   4.133   7.039
14283SOL    HW154477   3.676   4.198   6.980
14283SOL    HW254478   3.669   4.158   7.126
14284SOL     OW54479   4.106   4.311  25.775
14284SOL    HW154480   4.085   4.242  25.839
14284SOL    HW254481   4.201   4.306  25.765
14285SOL     OW54482   3.430   1.183   7.524
14285SOL    HW154483   3.348   1.170   7.476
14285SOL    HW254484   3.497   1.145   7.467
14286SOL     OW54485   4.704   3.194  23.435
14286SOL    HW154486   4.733   3.116  23.387
14286SOL    HW254487   4.620   3.217  23.395
14287SOL     OW54488   1.112   1.508  18.967
14287SOL    HW154489   1.087   1.435  18.910
14287SOL    HW254490   1.185   1.550  18.921
14288SOL     OW54491   3.474   0.821  26.654
14288SOL    HW154492   3.436   0.897  26.609
14288SOL    HW254493   3.399   0.766  26.675
14289SOL     OW54494   3.604   3.605   1.988
14289SOL    HW154495   3.655   3.647   1.919
14289SOL    HW254496   3.515   3.599   1.954
14290SOL     OW54497   2.225   4.746   0.891
14290SOL    HW154498   2.264   4.702   0.816
14290SOL    HW254499   2.253   0.056   0.882
14291SOL     OW54500   4.664   3.549   8.075
14291SOL    HW154501   4.659   3.455   8.093
14291SOL    HW254502   4.650   3.590   8.160
14292SOL     OW54503   2.340   2.420  24.266
14292SOL    HW154504   2.386   2.339  24.291
14292SOL    HW254505   2.269   2.428  24.331
14293SOL     OW54506   3.541   4.654   1.863
14293SOL    HW154507   3.516   4.563   1.881
14293SOL    HW254508   3.460   4.704   1.874
14294SOL     OW54509   1.361   4.595  20.522
14294SOL    HW154510   1.324   4.630  20.441
14294SOL    HW254511   1.453   4.620  20.520
14295SOL     OW54512   1.398   4.392   1.406
14295SOL    HW154513   1.375   4.352   1.322
14295SOL    HW254514   1.481   4.436   1.390
14296SOL     OW54515   0.084   2.567  19.357
14296SOL    HW154516   0.038   2.526  19.284
14296SOL    HW254517   0.121   2.494  19.406
14297SOL     OW54518   0.467   3.477  20.367
14297SOL    HW154519   0.382   3.442  20.341
14297SOL    HW254520   0.453   3.571  20.375
14298SOL     OW54521   3.810   4.071   2.086
14298SOL    HW154522   3.747   4.037   2.023
14298SOL    HW254523   3.873   4.000   2.098
14299SOL     OW54524   3.117   2.852  18.194
14299SOL    HW154525   3.177   2.846  18.121
14299SOL    HW254526   3.078   2.939  18.186
14300SOL     OW54527   1.953   1.604   4.063
14300SOL    HW154528   1.868   1.649   4.064
14300SOL    HW254529   1.991   1.624   4.149
14301SOL     OW54530   1.468   2.591  25.357
14301SOL    HW154531   1.391   2.600  25.413
14301SOL    HW254532   1.509   2.510  25.385
14302SOL     OW54533   3.397   2.840   3.424
14302SOL    HW154534   3.466   2.893   3.463
14302SOL    HW254535   3.373   2.886   3.344
14303SOL     OW54536   0.198   3.216   2.474
14303SOL    HW154537   0.186   3.310   2.459
14303SOL    HW254538   0.112   3.186   2.505
14304SOL     OW54539   2.262   2.233  23.077
14304SOL    HW154540   2.356   2.219  23.075
14304SOL    HW254541   2.227   2.172  23.012
14305SOL     OW54542   1.779   0.293  11.055
14305SOL    HW154543   1.745   0.376  11.089
14305SOL    HW254544   1.761   0.229  11.124
14306SOL     OW54545   0.023   1.723   7.986
14306SOL    HW154546   0.107   1.708   8.029
14306SOL    HW254547   4.763   1.793   8.038
14307SOL     OW54548   4.685   3.305  19.162
14307SOL    HW154549   4.692   3.356  19.081
14307SOL    HW254550   4.754   3.239  19.154
14308SOL     OW54551   0.951   3.293   0.450
14308SOL    HW154552   0.904   3.374   0.431
14308SOL    HW254553   0.956   3.289   0.545
14309SOL     OW54554   0.347   1.995  25.953
14309SOL    HW154555   0.305   1.915  25.922
14309SOL    HW254556   0.338   2.057  25.881
14310SOL     OW54557   1.792   1.219  22.302
14310SOL    HW154558   1.868   1.229  22.245
14310SOL    HW254559   1.717   1.232  22.244
14311SOL     OW54560   2.129   3.641   7.716
14311SOL    HW154561   2.058   3.596   7.763
14311SOL    HW254562   2.153   3.714   7.773
14312SOL     OW54563   1.963   2.805  27.024
14312SOL    HW154564   2.007   2.807  26.939
14312SOL    HW254565   2.033   2.788  27.087
14313SOL     OW54566   0.685   1.796  26.644
14313SOL    HW154567   0.768   1.839  26.666
14313SOL    HW254568   0.711   1.709  26.615
14314SOL     OW54569   2.678   1.860   3.544
14314SOL    HW154570   2.638   1.773   3.537
14314SOL    HW254571   2.755   1.846   3.600
14315SOL     OW54572   1.302   1.392   0.576
14315SOL    HW154573   1.333   1.463   0.520
14315SOL    HW254574   1.376   1.331   0.581
14316SOL     OW54575   0.571   4.662   7.839
14316SOL    HW154576   0.570   4.750   7.802
14316SOL    HW254577   0.583   4.605   7.764
14317SOL     OW54578   2.721   4.286  25.023
14317SOL    HW154579   2.800   4.337  25.007
14317SOL    HW254580   2.686   4.322  25.105
14318SOL     OW54581   1.084   0.894   8.141
14318SOL    HW154582   1.042   0.860   8.221
14318SOL    HW254583   1.022   0.875   8.071
14319SOL     OW54584   2.117   1.551  18.801
14319SOL    HW154585   2.049   1.603  18.843
14319SOL    HW254586   2.194   1.561  18.858
14320SOL     OW54587   2.252   4.438  21.023
14320SOL    HW154588   2.228   4.484  20.942
14320SOL    HW254589   2.321   4.377  20.995
14321SOL     OW54590   1.543   3.253  23.568
14321SOL    HW154591   1.536   3.348  23.555
14321SOL    HW254592   1.634   3.232  23.546
14322SOL     OW54593   0.990   2.480  21.696
14322SOL    HW154594   0.947   2.409  21.744
14322SOL    HW254595   0.957   2.560  21.737
14323SOL     OW54596   4.735   1.753   2.382
14323SOL    HW154597   0.040   1.765   2.422
14323SOL    HW254598   4.675   1.746   2.457
14324SOL     OW54599   4.524   1.667   1.247
14324SOL    HW154600   4.439   1.659   1.204
14324SOL    HW254601   4.554   1.755   1.225
14325SOL     OW54602   2.736   3.771   1.394
14325SOL    HW154603   2.797   3.708   1.355
14325SOL    HW254604   2.792   3.841   1.426
14326SOL     OW54605   1.768   3.614  26.302
14326SOL    HW154606   1.819   3.694  26.292
14326SOL    HW254607   1.807   3.569  26.377
14327SOL     OW54608   1.242   2.751   5.925
14327SOL    HW154609   1.206   2.739   5.837
14327SOL    HW254610   1.298   2.674   5.939
14328SOL     OW54611   2.511   2.647   5.519
14328SOL    HW154612   2.523   2.578   5.585
14328SOL    HW254613   2.510   2.600   5.436
14329SOL     OW54614   1.319   3.902   5.973
14329SOL    HW154615   1.246   3.959   5.998
14329SOL    HW254616   1.337   3.850   6.052
14330SOL     OW54617   4.393   3.040  26.616
14330SOL    HW154618   4.358   3.056  26.528
14330SOL    HW254619   4.438   3.122  26.639
14331SOL     OW54620   4.278   0.558  25.268
14331SOL    HW154621   4.366   0.566  25.232
14331SOL    HW254622   4.227   0.626  25.225
14332SOL     OW54623   1.905   4.579   0.452
14332SOL    HW154624   1.924   4.641   0.383
14332SOL    HW254625   1.823   4.536   0.425
14333SOL     OW54626   3.195   4.603   4.922
14333SOL    HW154627   3.265   4.608   4.987
14333SOL    HW254628   3.240   4.611   4.838
14334SOL     OW54629   3.719   4.579  27.072
14334SOL    HW154630   3.727   4.484  27.074
14334SOL    HW254631   3.765   4.609  27.151
14335SOL     OW54632   2.166   0.854  24.503
14335SOL    HW154633   2.219   0.909  24.446
14335SOL    HW254634   2.212   0.770  24.505
14336SOL     OW54635   3.353   0.917  27.674
14336SOL    HW154636   3.402   0.861  27.735
14336SOL    HW254637   3.378   1.006  27.698
14337SOL     OW54638   4.124   3.182  27.908
14337SOL    HW154639   4.163   3.097  27.928
14337SOL    HW254640   4.030   3.165  27.905
14338SOL     OW54641   0.039   2.965   5.917
14338SOL    HW154642   0.130   2.963   5.888
14338SOL    HW254643   4.769   2.953   5.838
14339SOL     OW54644   0.730   1.305   8.615
14339SOL    HW154645   0.794   1.241   8.585
14339SOL    HW254646   0.684   1.332   8.535
14340SOL     OW54647   4.254   4.243   6.973
14340SOL    HW154648   4.278   4.158   6.935
14340SOL    HW254649   4.273   4.234   7.067
14341SOL     OW54650   0.576   0.460  25.614
14341SOL    HW154651   0.659   0.491  25.651
14341SOL    HW254652   0.572   0.501  25.527
14342SOL     OW54653   0.499   2.414  25.612
14342SOL    HW154654   0.561   2.452  25.550
14342SOL    HW254655   0.431   2.482  25.622
14343SOL     OW54656   3.533   2.361   8.082
14343SOL    HW154657   3.548   2.446   8.040
14343SOL    HW254658   3.522   2.383   8.175
14344SOL     OW54659   3.612   3.508   7.953
14344SOL    HW154660   3.525   3.490   7.990
14344SOL    HW254661   3.637   3.427   7.910
14345SOL     OW54662   4.223   3.460   3.992
14345SOL    HW154663   4.244   3.534   3.935
14345SOL    HW254664   4.284   3.467   4.065
14346SOL     OW54665   2.124   0.543   5.442
14346SOL    HW154666   2.211   0.570   5.412
14346SOL    HW254667   2.120   0.449   5.424
14347SOL     OW54668   2.065   1.752   7.663
14347SOL    HW154669   2.056   1.733   7.569
14347SOL    HW254670   2.050   1.667   7.706
14348SOL     OW54671   3.509   2.621  17.917
14348SOL    HW154672   3.546   2.703  17.885
14348SOL    HW254673   3.546   2.554  17.859
14349SOL     OW54674   4.275   2.974   7.444
14349SOL    HW154675   4.249   2.889   7.410
14349SOL    HW254676   4.334   2.953   7.517
14350SOL     OW54677   1.381   1.563   0.383
14350SOL    HW154678   1.320   1.569   0.309
14350SOL    HW254679   1.459   1.610   0.353
14351SOL     OW54680   4.702   1.973   7.057
14351SOL    HW154681   4.616   1.967   7.016
14351SOL    HW254682   4.700   1.908   7.128
14352SOL     OW54683   3.317   0.876  28.317
14352SOL    HW154684   3.408   0.846  28.312
14352SOL    HW254685   3.321   0.968  28.291
14353SOL     OW54686   4.256   1.947   1.241
14353SOL    HW154687   4.236   2.009   1.171
14353SOL    HW254688   4.238   1.995   1.322
14354SOL     OW54689   3.957   1.740   2.138
14354SOL    HW154690   3.976   1.824   2.096
14354SOL    HW254691   3.870   1.717   2.107
14355SOL     OW54692   2.702   1.351  24.612
14355SOL    HW154693   2.745   1.323  24.531
14355SOL    HW254694   2.706   1.274  24.669
14356SOL     OW54695   1.812   3.593   5.339
14356SOL    HW154696   1.860   3.543   5.404
14356SOL    HW254697   1.837   3.555   5.255
14357SOL     OW54698   0.053   1.591  20.408
14357SOL    HW154699   0.061   1.560  20.317
14357SOL    HW254700   4.742   1.576  20.430
14358SOL     OW54701   2.272   1.055  12.899
14358SOL    HW154702   2.238   1.130  12.947
14358SOL    HW254703   2.247   0.979  12.952
14359SOL     OW54704   1.996   1.592  27.596
14359SOL    HW154705   2.015   1.507  27.557
14359SOL    HW254706   1.902   1.592  27.609
14360SOL     OW54707   2.627   4.585   5.199
14360SOL    HW154708   2.677   4.557   5.276
14360SOL    HW254709   2.594   4.672   5.223
14361SOL     OW54710   1.201   1.222  23.953
14361SOL    HW154711   1.146   1.150  23.983
14361SOL    HW254712   1.283   1.179  23.927
14362SOL     OW54713   1.704   4.416  24.478
14362SOL    HW154714   1.773   4.405  24.544
14362SOL    HW254715   1.700   4.510  24.462
14363SOL     OW54716   3.485   0.379   5.336
14363SOL    HW154717   3.515   0.469   5.320
14363SOL    HW254718   3.524   0.328   5.266
14364SOL     OW54719   0.197   2.040  18.574
14364SOL    HW154720   0.180   1.951  18.543
14364SOL    HW254721   0.222   2.030  18.666
14365SOL     OW54722   2.175   3.620  22.815
14365SOL    HW154723   2.146   3.543  22.767
14365SOL    HW254724   2.207   3.680  22.748
14366SOL     OW54725   3.556   2.665  23.908
14366SOL    HW154726   3.595   2.658  23.995
14366SOL    HW254727   3.604   2.736  23.865
14367SOL     OW54728   4.292   1.533   1.533
14367SOL    HW154729   4.296   1.625   1.509
14367SOL    HW254730   4.203   1.506   1.510
14368SOL     OW54731   4.604   1.270  23.739
14368SOL    HW154732   4.573   1.337  23.799
14368SOL    HW254733   4.697   1.261  23.757
14369SOL     OW54734   1.819   1.164  25.660
14369SOL    HW154735   1.790   1.192  25.747
14369SOL    HW254736   1.745   1.182  25.603
14370SOL     OW54737   2.738   1.932  21.975
14370SOL    HW154738   2.665   1.906  22.030
14370SOL    HW254739   2.718   1.896  21.889
14371SOL     OW54740   3.825   2.164   2.935
14371SOL    HW154741   3.757   2.099   2.953
14371SOL    HW254742   3.904   2.128   2.974
14372SOL     OW54743   0.996   4.468  21.279
14372SOL    HW154744   1.038   4.536  21.332
14372SOL    HW254745   0.960   4.407  21.344
14373SOL     OW54746   4.255   0.655   0.812
14373SOL    HW154747   4.182   0.692   0.861
14373SOL    HW254748   4.296   0.730   0.769
14374SOL     OW54749   3.964   1.523   1.053
14374SOL    HW154750   3.995   1.438   1.084
14374SOL    HW254751   4.018   1.541   0.975
14375SOL     OW54752   1.515   1.005  26.842
14375SOL    HW154753   1.596   1.050  26.819
14375SOL    HW254754   1.469   0.994  26.759
14376SOL     OW54755   2.667   4.132  21.586
14376SOL    HW154756   2.708   4.217  21.572
14376SOL    HW254757   2.574   4.146  21.565
14377SOL     OW54758   2.775   2.895   8.084
14377SOL    HW154759   2.749   2.836   8.013
14377SOL    HW254760   2.739   2.980   8.060
14378SOL     OW54761   1.665   3.606  18.836
14378SOL    HW154762   1.622   3.577  18.755
14378SOL    HW254763   1.744   3.650  18.805
14379SOL     OW54764   2.207   4.296   1.551
14379SOL    HW154765   2.159   4.321   1.630
14379SOL    HW254766   2.142   4.254   1.495
14380SOL     OW54767   1.011   1.709  25.052
14380SOL    HW154768   0.991   1.697  25.145
14380SOL    HW254769   1.049   1.626  25.024
14381SOL     OW54770   3.224   2.066  25.237
14381SOL    HW154771   3.212   2.085  25.330
14381SOL    HW254772   3.147   2.104  25.194
14382SOL     OW54773   4.715   2.647  26.683
14382SOL    HW154774   4.715   2.590  26.606
14382SOL    HW254775   4.655   2.718  26.660
14383SOL     OW54776   1.081   1.352  27.425
14383SOL    HW154777   1.027   1.405  27.366
14383SOL    HW254778   1.113   1.280  27.369
14384SOL     OW54779   4.424   3.285   1.960
14384SOL    HW154780   4.510   3.322   1.941
14384SOL    HW254781   4.443   3.198   1.997
14385SOL     OW54782   0.076   2.756   3.371
14385SOL    HW154783   0.007   2.805   3.325
14385SOL    HW254784   0.158   2.797   3.342
14386SOL     OW54785   3.156   4.035  19.708
14386SOL    HW154786   3.216   4.110  19.711
14386SOL    HW254787   3.212   3.961  19.685
14387SOL     OW54788   3.032   0.563  24.268
14387SOL    HW154789   2.959   0.536  24.323
14387SOL    HW254790   3.043   0.656  24.286
14388SOL     OW54791   4.145   1.863  21.025
14388SOL    HW154792   4.102   1.878  21.109
14388SOL    HW254793   4.192   1.945  21.007
14389SOL     OW54794   1.784   0.498   5.393
14389SOL    HW154795   1.767   0.455   5.477
14389SOL    HW254796   1.849   0.566   5.413
14390SOL     OW54797   2.645   4.026  10.475
14390SOL    HW154798   2.556   3.993  10.488
14390SOL    HW254799   2.634   4.119  10.459
14391SOL     OW54800   1.638   4.590   7.726
14391SOL    HW154801   1.662   4.550   7.642
14391SOL    HW254802   1.708   4.652   7.744
14392SOL     OW54803   4.227   2.561  21.706
14392SOL    HW154804   4.141   2.602  21.697
14392SOL    HW254805   4.251   2.535  21.617
14393SOL     OW54806   1.041   0.585   0.711
14393SOL    HW154807   0.952   0.605   0.681
14393SOL    HW254808   1.055   0.494   0.683
14394SOL     OW54809   1.383   3.134   6.427
14394SOL    HW154810   1.337   3.051   6.439
14394SOL    HW254811   1.333   3.197   6.478
14395SOL     OW54812   3.639   2.603   6.030
14395SOL    HW154813   3.687   2.659   6.091
14395SOL    HW254814   3.708   2.559   5.979
14396SOL     OW54815   4.648   2.932   3.998
14396SOL    HW154816   4.639   2.846   4.039
14396SOL    HW254817   4.740   2.954   4.007
14397SOL     OW54818   3.180   3.600  22.789
14397SOL    HW154819   3.125   3.530  22.754
14397SOL    HW254820   3.155   3.606  22.882
14398SOL     OW54821   0.470   2.213   6.463
14398SOL    HW154822   0.543   2.228   6.403
14398SOL    HW254823   0.446   2.121   6.449
14399SOL     OW54824   0.556   2.545   7.715
14399SOL    HW154825   0.508   2.483   7.661
14399SOL    HW254826   0.509   2.545   7.799
14400SOL     OW54827   4.568   3.016  13.260
14400SOL    HW154828   4.506   2.997  13.330
14400SOL    HW254829   4.567   3.111  13.251
14401SOL     OW54830   1.239   1.169   1.618
14401SOL    HW154831   1.221   1.081   1.652
14401SOL    HW254832   1.166   1.222   1.650
14402SOL     OW54833   0.107   3.329   5.899
14402SOL    HW154834   0.054   3.289   5.830
14402SOL    HW254835   0.084   3.280   5.978
14403SOL     OW54836   3.955   2.724  20.878
14403SOL    HW154837   3.876   2.774  20.901
14403SOL    HW254838   4.007   2.725  20.958
14404SOL     OW54839   3.344   3.584   1.145
14404SOL    HW154840   3.393   3.528   1.205
14404SOL    HW254841   3.330   3.530   1.067
14405SOL     OW54842   2.034   3.160   6.649
14405SOL    HW154843   1.987   3.215   6.711
14405SOL    HW254844   2.092   3.106   6.703
14406SOL     OW54845   3.893   3.818  25.805
14406SOL    HW154846   3.976   3.830  25.852
14406SOL    HW254847   3.882   3.723  25.800
14407SOL     OW54848   3.315   2.620   0.989
14407SOL    HW154849   3.287   2.706   1.020
14407SOL    HW254850   3.404   2.609   1.024
14408SOL     OW54851   1.269   1.892  23.747
14408SOL    HW154852   1.240   1.849  23.827
14408SOL    HW254853   1.325   1.964  23.777
14409SOL     OW54854   2.324   3.033   9.501
14409SOL    HW154855   2.343   2.957   9.447
14409SOL    HW254856   2.249   3.007   9.554
14410SOL     OW54857   2.341   0.123   7.666
14410SOL    HW154858   2.376   0.207   7.697
14410SOL    HW254859   2.397   0.099   7.592
14411SOL     OW54860   1.910   1.045   7.417
14411SOL    HW154861   1.828   1.020   7.373
14411SOL    HW254862   1.886   1.049   7.510
14412SOL     OW54863   0.527   4.557  19.991
14412SOL    HW154864   0.531   4.575  19.897
14412SOL    HW254865   0.601   4.605  20.027
14413SOL     OW54866   1.667   2.594   9.036
14413SOL    HW154867   1.609   2.668   9.053
14413SOL    HW254868   1.704   2.613   8.949
14414SOL     OW54869   2.684   3.524  22.396
14414SOL    HW154870   2.741   3.546  22.322
14414SOL    HW254871   2.604   3.492  22.355
14415SOL     OW54872   1.612   0.276   7.826
14415SOL    HW154873   1.683   0.281   7.762
14415SOL    HW254874   1.567   0.194   7.806
14416SOL     OW54875   1.192   1.553   1.607
14416SOL    HW154876   1.223   1.526   1.693
14416SOL    HW254877   1.264   1.531   1.547
14417SOL     OW54878   0.742   4.087  26.650
14417SOL    HW154879   0.711   4.160  26.703
14417SOL    HW254880   0.779   4.128  26.572
14418SOL     OW54881   0.141   1.588  23.345
14418SOL    HW154882   0.061   1.612  23.392
14418SOL    HW254883   0.192   1.669  23.343
14419SOL     OW54884   1.541   1.540   4.097
14419SOL    HW154885   1.553   1.609   4.032
14419SOL    HW254886   1.447   1.521   4.095
14420SOL     OW54887   2.044   1.922  12.144
14420SOL    HW154888   2.112   1.925  12.212
14420SOL    HW254889   1.988   1.849  12.171
14421SOL     OW54890   3.340   1.845  20.924
14421SOL    HW154891   3.300   1.881  20.845
14421SOL    HW254892   3.431   1.830  20.899
14422SOL     OW54893   3.954   1.879  27.207
14422SOL    HW154894   3.864   1.860  27.234
14422SOL    HW254895   4.008   1.829  27.268
14423SOL     OW54896   1.804   1.759  10.183
14423SOL    HW154897   1.781   1.751  10.276
14423SOL    HW254898   1.781   1.850  10.161
14424SOL     OW54899   2.521   3.584   8.097
14424SOL    HW154900   2.609   3.574   8.132
14424SOL    HW254901   2.520   3.672   8.058
14425SOL     OW54902   2.131   1.905   8.186
14425SOL    HW154903   2.113   1.974   8.121
14425SOL    HW254904   2.167   1.952   8.261
14426SOL     OW54905   1.745   0.149   1.104
14426SOL    HW154906   1.836   0.168   1.127
14426SOL    HW254907   1.727   0.064   1.144
14427SOL     OW54908   3.276   3.029   5.083
14427SOL    HW154909   3.335   2.994   5.017
14427SOL    HW254910   3.334   3.072   5.146
14428SOL     OW54911   2.637   4.588   1.956
14428SOL    HW154912   2.551   4.570   1.995
14428SOL    HW254913   2.616   4.628   1.871
14429SOL     OW54914   3.653   1.123  23.467
14429SOL    HW154915   3.647   1.030  23.441
14429SOL    HW254916   3.590   1.167  23.409
14430SOL     OW54917   4.460   4.402  28.444
14430SOL    HW154918   4.374   4.411  28.403
14430SOL    HW254919   4.482   4.310  28.431
14431SOL     OW54920   3.263   0.732   7.682
14431SOL    HW154921   3.224   0.802   7.630
14431SOL    HW254922   3.337   0.773   7.727
14432SOL     OW54923   3.581   2.861  23.345
14432SOL    HW154924   3.558   2.951  23.321
14432SOL    HW254925   3.543   2.849  23.432
14433SOL     OW54926   1.298   4.455   8.791
14433SOL    HW154927   1.204   4.454   8.776
14433SOL    HW254928   1.325   4.545   8.772
14434SOL     OW54929   2.021   4.688  24.576
14434SOL    HW154930   2.086   4.754  24.599
14434SOL    HW254931   1.965   4.730  24.512
14435SOL     OW54932   2.646   2.684  24.475
14435SOL    HW154933   2.599   2.752  24.524
14435SOL    HW254934   2.730   2.724  24.453
14436SOL     OW54935   2.014   3.154   1.958
14436SOL    HW154936   1.984   3.078   2.008
14436SOL    HW254937   2.108   3.159   1.977
14437SOL     OW54938   0.559   1.011   6.768
14437SOL    HW154939   0.585   1.104   6.769
14437SOL    HW254940   0.570   0.985   6.676
14438SOL     OW54941   1.124   2.536   1.790
14438SOL    HW154942   1.037   2.557   1.756
14438SOL    HW254943   1.179   2.609   1.761
14439SOL     OW54944   2.256   1.113   0.432
14439SOL    HW154945   2.299   1.131   0.349
14439SOL    HW254946   2.174   1.163   0.428
14440SOL     OW54947   2.721   4.561  11.320
14440SOL    HW154948   2.795   4.605  11.361
14440SOL    HW254949   2.674   4.520  11.393
14441SOL     OW54950   0.344   1.446  20.117
14441SOL    HW154951   0.252   1.457  20.142
14441SOL    HW254952   0.393   1.456  20.198
14442SOL     OW54953   0.828   4.423   7.813
14442SOL    HW154954   0.811   4.487   7.882
14442SOL    HW254955   0.772   4.450   7.740
14443SOL     OW54956   1.228   3.829  20.346
14443SOL    HW154957   1.281   3.798  20.420
14443SOL    HW254958   1.233   3.758  20.282
14444SOL     OW54959   0.181   0.810  27.834
14444SOL    HW154960   0.122   0.777  27.766
14444SOL    HW254961   0.126   0.821  27.911
14445SOL     OW54962   4.271   3.105   4.626
14445SOL    HW154963   4.250   3.105   4.532
14445SOL    HW254964   4.246   3.192   4.656
14446SOL     OW54965   2.075   1.920  11.883
14446SOL    HW154966   2.075   1.934  11.978
14446SOL    HW254967   2.132   1.845  11.870
14447SOL     OW54968   0.576   2.834  22.077
14447SOL    HW154969   0.601   2.858  21.988
14447SOL    HW254970   0.481   2.839  22.078
14448SOL     OW54971   4.753   4.265   9.330
14448SOL    HW154972   4.670   4.307   9.355
14448SOL    HW254973   4.742   4.243   9.237
14449SOL     OW54974   0.682   3.541  28.220
14449SOL    HW154975   0.677   3.543  28.124
14449SOL    HW254976   0.705   3.631  28.244
14450SOL     OW54977   1.531   2.746  26.344
14450SOL    HW154978   1.445   2.732  26.304
14450SOL    HW254979   1.587   2.773  26.271
14451SOL     OW54980   0.003   0.876  21.779
14451SOL    HW154981   0.035   0.869  21.689
14451SOL    HW254982   0.082   0.873  21.833
14452SOL     OW54983   3.927   0.414  21.300
14452SOL    HW154984   3.974   0.352  21.244
14452SOL    HW254985   3.958   0.500  21.273
14453SOL     OW54986   1.403   0.616  22.754
14453SOL    HW154987   1.392   0.674  22.678
14453SOL    HW254988   1.383   0.672  22.830
14454SOL     OW54989   4.600   3.131  16.935
14454SOL    HW154990   4.530   3.194  16.953
14454SOL    HW254991   4.604   3.127  16.839
14455SOL     OW54992   2.141   4.625   4.586
14455SOL    HW154993   2.221   4.668   4.615
14455SOL    HW254994   2.102   4.686   4.523
14456SOL     OW54995   0.909   1.457   9.524
14456SOL    HW154996   0.993   1.466   9.568
14456SOL    HW254997   0.915   1.374   9.476
14457SOL     OW54998   3.970   2.854   2.477
14457SOL    HW154999   3.894   2.886   2.427
14457SOL    HW255000   3.969   2.760   2.462
14458SOL     OW55001   2.941   2.546  22.769
14458SOL    HW155002   2.977   2.617  22.822
14458SOL    HW255003   2.994   2.470  22.791
14459SOL     OW55004   2.372   2.553   5.933
14459SOL    HW155005   2.371   2.527   6.025
14459SOL    HW255006   2.298   2.507   5.894
14460SOL     OW55007   1.083   0.729   7.256
14460SOL    HW155008   0.989   0.738   7.240
14460SOL    HW255009   1.091   0.646   7.304
14461SOL     OW55010   3.424   3.382  12.588
14461SOL    HW155011   3.494   3.317  12.593
14461SOL    HW255012   3.382   3.378  12.674
14462SOL     OW55013   4.172   1.541   2.146
14462SOL    HW155014   4.142   1.561   2.234
14462SOL    HW255015   4.112   1.588   2.088
14463SOL     OW55016   2.278   4.563   2.149
14463SOL    HW155017   2.216   4.593   2.216
14463SOL    HW255018   2.332   4.640   2.131
14464SOL     OW55019   1.535   3.652   3.227
14464SOL    HW155020   1.502   3.734   3.263
14464SOL    HW255021   1.626   3.648   3.254
14465SOL     OW55022   1.309   3.377  22.949
14465SOL    HW155023   1.344   3.297  22.988
14465SOL    HW255024   1.300   3.438  23.022
14466SOL     OW55025   2.138   2.733  21.884
14466SOL    HW155026   2.096   2.648  21.892
14466SOL    HW255027   2.106   2.769  21.801
14467SOL     OW55028   2.359   4.585  25.744
14467SOL    HW155029   2.338   4.678  25.732
14467SOL    HW255030   2.418   4.565  25.671
14468SOL     OW55031   4.287   2.243   6.781
14468SOL    HW155032   4.375   2.246   6.817
14468SOL    HW255033   4.299   2.238   6.686
14469SOL     OW55034   3.514   0.114  25.080
14469SOL    HW155035   3.551   0.182  25.136
14469SOL    HW255036   3.477   0.161  25.005
14470SOL     OW55037   1.409   4.299   8.574
14470SOL    HW155038   1.390   4.337   8.660
14470SOL    HW255039   1.503   4.279   8.577
14471SOL     OW55040   0.687   3.234   5.499
14471SOL    HW155041   0.773   3.193   5.500
14471SOL    HW255042   0.702   3.321   5.536
14472SOL     OW55043   2.719   3.675   9.357
14472SOL    HW155044   2.719   3.590   9.402
14472SOL    HW255045   2.702   3.655   9.266
14473SOL     OW55046   3.592   3.895  28.504
14473SOL    HW155047   3.535   3.821  28.486
14473SOL    HW255048   3.565   3.926   0.068
14474SOL     OW55049   1.341   3.475  24.904
14474SOL    HW155050   1.271   3.435  24.853
14474SOL    HW255051   1.405   3.405  24.917
14475SOL     OW55052   0.115   0.354   3.077
14475SOL    HW155053   0.191   0.412   3.076
14475SOL    HW255054   0.105   0.327   2.986
14476SOL     OW55055   0.297   3.189   6.218
14476SOL    HW155056   0.312   3.101   6.253
14476SOL    HW255057   0.208   3.185   6.182
14477SOL     OW55058   2.357   3.878   8.242
14477SOL    HW155059   2.449   3.903   8.235
14477SOL    HW255060   2.340   3.871   8.336
14478SOL     OW55061   1.861   0.485   2.433
14478SOL    HW155062   1.872   0.563   2.487
14478SOL    HW255063   1.914   0.502   2.355
14479SOL     OW55064   2.011   4.779  12.928
14479SOL    HW155065   2.076   0.048  12.978
14479SOL    HW255066   2.062   4.729  12.864
14480SOL     OW55067   3.010   2.315  11.291
14480SOL    HW155068   3.098   2.354  11.294
14480SOL    HW255069   3.017   2.247  11.224
14481SOL     OW55070   2.902   2.232   8.872
14481SOL    HW155071   2.839   2.165   8.897
14481SOL    HW255072   2.853   2.292   8.816
14482SOL     OW55073   2.546   3.046  18.598
14482SOL    HW155074   2.532   3.109  18.527
14482SOL    HW255075   2.533   3.097  18.678
14483SOL     OW55076   0.752   3.097  20.546
14483SOL    HW155077   0.723   3.145  20.468
14483SOL    HW255078   0.835   3.057  20.519
14484SOL     OW55079   0.497   4.259   7.669
14484SOL    HW155080   0.415   4.212   7.678
14484SOL    HW255081   0.560   4.193   7.639
14485SOL     OW55082   0.402   3.508   1.485
14485SOL    HW155083   0.459   3.537   1.557
14485SOL    HW255084   0.397   3.584   1.427
14486SOL     OW55085   3.797   3.536  21.415
14486SOL    HW155086   3.811   3.474  21.343
14486SOL    HW255087   3.715   3.581  21.392
14487SOL     OW55088   2.971   3.019   2.226
14487SOL    HW155089   3.036   3.087   2.206
14487SOL    HW255090   2.991   2.949   2.165
14488SOL     OW55091   2.164   0.353  13.267
14488SOL    HW155092   2.101   0.413  13.308
14488SOL    HW255093   2.247   0.371  13.311
14489SOL     OW55094   3.534   1.553  10.228
14489SOL    HW155095   3.558   1.461  10.245
14489SOL    HW255096   3.483   1.579  10.305
14490SOL     OW55097   1.869   2.981  24.763
14490SOL    HW155098   1.939   3.035  24.726
14490SOL    HW255099   1.908   2.895  24.775
14491SOL     OW55100   3.633   2.268  11.747
14491SOL    HW155101   3.719   2.265  11.789
14491SOL    HW255102   3.598   2.179  11.756
14492SOL     OW55103   0.040   0.231  10.474
14492SOL    HW155104   0.052   0.143  10.437
14492SOL    HW255105   0.043   0.289  10.398
14493SOL     OW55106   1.184   1.856   0.455
14493SOL    HW155107   1.131   1.797   0.402
14493SOL    HW255108   1.261   1.804   0.478
14494SOL     OW55109   3.284   1.413  21.280
14494SOL    HW155110   3.201   1.446  21.314
14494SOL    HW255111   3.297   1.462  21.198
14495SOL     OW55112   0.485   3.180  19.059
14495SOL    HW155113   0.408   3.135  19.024
14495SOL    HW255114   0.456   3.213  19.144
14496SOL     OW55115   1.189   2.208  13.244
14496SOL    HW155116   1.218   2.214  13.334
14496SOL    HW255117   1.270   2.204  13.192
14497SOL     OW55118   2.763   4.675   6.803
14497SOL    HW155119   2.828   4.742   6.780
14497SOL    HW255120   2.811   4.614   6.859
14498SOL     OW55121   0.793   0.147  25.225
14498SOL    HW155122   0.816   0.061  25.187
14498SOL    HW255123   0.847   0.209  25.175
14499SOL     OW55124   3.993   2.586  28.379
14499SOL    HW155125   3.998   2.491  28.374
14499SOL    HW255126   3.974   2.614  28.289
14500SOL     OW55127   3.991   4.778  19.991
14500SOL    HW155128   4.034   4.739  19.915
14500SOL    HW255129   4.062   0.023  20.049
14501SOL     OW55130   1.858   3.301   8.091
14501SOL    HW155131   1.781   3.247   8.077
14501SOL    HW255132   1.880   3.289   8.184
14502SOL     OW55133   3.607   2.423  27.354
14502SOL    HW155134   3.697   2.429  27.387
14502SOL    HW255135   3.618   2.416  27.259
14503SOL     OW55136   3.691   3.905   9.820
14503SOL    HW155137   3.616   3.964   9.817
14503SOL    HW255138   3.767   3.960   9.803
14504SOL     OW55139   3.788   0.067  22.115
14504SOL    HW155140   3.861   0.064  22.053
14504SOL    HW255141   3.781   0.159  22.139
14505SOL     OW55142   2.071   2.790  11.733
14505SOL    HW155143   2.009   2.863  11.736
14505SOL    HW255144   2.046   2.734  11.807
14506SOL     OW55145   4.259   2.076   3.913
14506SOL    HW155146   4.325   2.139   3.942
14506SOL    HW255147   4.183   2.095   3.967
14507SOL     OW55148   3.627   1.023   8.366
14507SOL    HW155149   3.615   1.085   8.294
14507SOL    HW255150   3.570   0.950   8.344
14508SOL     OW55151   2.370   3.343   6.220
14508SOL    HW155152   2.379   3.438   6.216
14508SOL    HW255153   2.291   3.330   6.274
14509SOL     OW55154   4.688   4.095  25.699
14509SOL    HW155155   4.677   4.098  25.604
14509SOL    HW255156   4.625   4.028  25.728
14510SOL     OW55157   3.568   3.236  25.977
14510SOL    HW155158   3.563   3.324  25.939
14510SOL    HW255159   3.647   3.238  26.031
14511SOL     OW55160   0.285   3.425  28.395
14511SOL    HW155161   0.380   3.416  28.386
14511SOL    HW255162   0.269   3.419  28.489
14512SOL     OW55163   4.612   1.538  24.852
14512SOL    HW155164   4.683   1.560  24.791
14512SOL    HW255165   4.534   1.532  24.798
14513SOL     OW55166   3.140   3.633  22.423
14513SOL    HW155167   3.079   3.585  22.367
14513SOL    HW255168   3.129   3.594  22.510
14514SOL     OW55169   2.379   4.363  13.425
14514SOL    HW155170   2.347   4.364  13.335
14514SOL    HW255171   2.336   4.288  13.466
14515SOL     OW55172   1.229   2.975  21.170
14515SOL    HW155173   1.154   2.994  21.226
14515SOL    HW255174   1.256   3.060  21.136
14516SOL     OW55175   2.567   4.352   3.263
14516SOL    HW155176   2.611   4.432   3.234
14516SOL    HW255177   2.491   4.344   3.204
14517SOL     OW55178   0.341   3.078   3.495
14517SOL    HW155179   0.315   3.166   3.466
14517SOL    HW255180   0.279   3.056   3.564
14518SOL     OW55181   3.669   0.397   8.850
14518SOL    HW155182   3.576   0.415   8.837
14518SOL    HW255183   3.672   0.351   8.935
14519SOL     OW55184   0.355   2.628  22.404
14519SOL    HW155185   0.300   2.579  22.343
14519SOL    HW255186   0.309   2.622  22.488
14520SOL     OW55187   3.107   3.156   6.891
14520SOL    HW155188   3.145   3.159   6.979
14520SOL    HW255189   3.021   3.115   6.904
14521SOL     OW55190   1.055   3.814   1.484
14521SOL    HW155191   1.049   3.896   1.436
14521SOL    HW255192   1.021   3.748   1.423
14522SOL     OW55193   2.935   3.673   3.291
14522SOL    HW155194   2.932   3.695   3.384
14522SOL    HW255195   2.882   3.593   3.284
14523SOL     OW55196   0.638   2.051   3.084
14523SOL    HW155197   0.615   1.978   3.027
14523SOL    HW255198   0.561   2.108   3.084
14524SOL     OW55199   1.878   2.933   6.106
14524SOL    HW155200   1.905   2.920   6.197
14524SOL    HW255201   1.788   2.900   6.103
14525SOL     OW55202   3.003   2.748   4.439
14525SOL    HW155203   2.996   2.710   4.526
14525SOL    HW255204   2.912   2.749   4.407
14526SOL     OW55205   1.015   2.382   0.381
14526SOL    HW155206   1.057   2.433   0.312
14526SOL    HW255207   1.084   2.325   0.415
14527SOL     OW55208   3.450   1.809  23.525
14527SOL    HW155209   3.471   1.858  23.605
14527SOL    HW255210   3.375   1.754  23.549
14528SOL     OW55211   3.866   4.605  12.323
14528SOL    HW155212   3.853   4.520  12.364
14528SOL    HW255213   3.790   4.657  12.349
14529SOL     OW55214   4.280   0.570  12.008
14529SOL    HW155215   4.312   0.531  12.089
14529SOL    HW255216   4.346   0.547  11.943
14530SOL     OW55217   0.794   2.100   9.332
14530SOL    HW155218   0.744   2.023   9.305
14530SOL    HW255219   0.886   2.073   9.323
14531SOL     OW55220   4.342   1.870  26.257
14531SOL    HW155221   4.429   1.836  26.236
14531SOL    HW255222   4.313   1.816  26.330
14532SOL     OW55223   4.556   3.134   7.446
14532SOL    HW155224   4.612   3.123   7.523
14532SOL    HW255225   4.472   3.096   7.472
14533SOL     OW55226   2.356   0.669  11.327
14533SOL    HW155227   2.421   0.701  11.389
14533SOL    HW255228   2.308   0.601  11.375
14534SOL     OW55229   1.524   4.252  13.096
14534SOL    HW155230   1.505   4.168  13.056
14534SOL    HW255231   1.537   4.232  13.189
14535SOL     OW55232   0.292   3.471   2.320
14535SOL    HW155233   0.382   3.438   2.325
14535SOL    HW255234   0.284   3.505   2.231
14536SOL     OW55235   1.408   3.064  20.409
14536SOL    HW155236   1.326   3.097  20.447
14536SOL    HW255237   1.455   3.143  20.383
14537SOL     OW55238   1.955   2.591  11.217
14537SOL    HW155239   1.913   2.561  11.298
14537SOL    HW255240   2.043   2.616  11.243
14538SOL     OW55241   2.699   1.611  13.163
14538SOL    HW155242   2.722   1.690  13.114
14538SOL    HW255243   2.676   1.642  13.250
14539SOL     OW55244   1.730   3.968  12.700
14539SOL    HW155245   1.665   4.020  12.652
14539SOL    HW255246   1.678   3.905  12.750
14540SOL     OW55247   2.792   1.493   4.628
14540SOL    HW155248   2.826   1.414   4.586
14540SOL    HW255249   2.703   1.502   4.593
14541SOL     OW55250   1.910   1.683  12.148
14541SOL    HW155251   1.943   1.619  12.211
14541SOL    HW255252   1.823   1.651  12.125
14542SOL     OW55253   2.341   1.149  13.311
14542SOL    HW155254   2.341   1.104  13.395
14542SOL    HW255255   2.433   1.148  13.283
14543SOL     OW55256   2.334   0.623  27.885
14543SOL    HW155257   2.392   0.678  27.832
14543SOL    HW255258   2.296   0.562  27.822
14544SOL     OW55259   3.511   2.365  18.930
14544SOL    HW155260   3.588   2.399  18.885
14544SOL    HW255261   3.528   2.271  18.938
14545SOL     OW55262   1.926   3.984  12.516
14545SOL    HW155263   1.945   4.077  12.510
14545SOL    HW255264   1.849   3.979  12.573
14546SOL     OW55265   0.979   3.600  13.520
14546SOL    HW155266   0.922   3.649  13.460
14546SOL    HW255267   1.027   3.668  13.568
14547SOL     OW55268   4.553   1.210  12.712
14547SOL    HW155269   4.564   1.280  12.775
14547SOL    HW255270   4.529   1.255  12.630
14548SOL     OW55271   1.822   3.714  22.268
14548SOL    HW155272   1.817   3.620  22.250
14548SOL    HW255273   1.749   3.732  22.327
14549SOL     OW55274   1.164   1.028   9.179
14549SOL    HW155275   1.224   1.084   9.229
14549SOL    HW255276   1.211   0.945   9.170
14550SOL     OW55277   1.423   2.772  11.516
14550SOL    HW155278   1.461   2.696  11.473
14550SOL    HW255279   1.329   2.756  11.513
14551SOL     OW55280   1.849   3.741  12.402
14551SOL    HW155281   1.904   3.674  12.442
14551SOL    HW255282   1.890   3.824  12.428
14552SOL     OW55283   0.693   3.307  13.744
14552SOL    HW155284   0.659   3.327  13.831
14552SOL    HW255285   0.660   3.219  13.725
14553SOL     OW55286   4.648   0.938  12.159
14553SOL    HW155287   4.645   0.846  12.185
14553SOL    HW255288   4.663   0.985  12.241
14554SOL     OW55289   0.157   3.469  12.249
14554SOL    HW155290   0.147   3.470  12.345
14554SOL    HW255291   0.226   3.533  12.231
14555SOL     OW55292   1.108   4.645   6.518
14555SOL    HW155293   1.065   4.605   6.442
14555SOL    HW255294   1.105   4.739   6.500
14556SOL     OW55295   0.963   1.353  11.976
14556SOL    HW155296   0.958   1.378  12.068
14556SOL    HW255297   0.872   1.340  11.949
14557SOL     OW55298   1.736   3.335  23.073
14557SOL    HW155299   1.785   3.291  23.004
14557SOL    HW255300   1.777   3.305  23.154
14558SOL     OW55301   0.820   4.549  25.721
14558SOL    HW155302   0.864   4.596  25.651
14558SOL    HW255303   0.728   4.576  25.714
14559SOL     OW55304   2.222   0.699  12.836
14559SOL    HW155305   2.205   0.739  12.921
14559SOL    HW255306   2.284   0.628  12.854
14560SOL     OW55307   2.952   3.855  14.216
14560SOL    HW155308   3.006   3.776  14.219
14560SOL    HW255309   2.959   3.885  14.125
14561SOL     OW55310   0.689   1.323  11.908
14561SOL    HW155311   0.660   1.367  11.988
14561SOL    HW255312   0.667   1.231  11.923
14562SOL     OW55313   3.466   3.065  12.824
14562SOL    HW155314   3.474   2.971  12.810
14562SOL    HW255315   3.504   3.104  12.745
14563SOL     OW55316   0.794   4.129  10.865
14563SOL    HW155317   0.812   4.040  10.895
14563SOL    HW255318   0.721   4.159  10.920
14564SOL     OW55319   3.239   4.416  23.261
14564SOL    HW155320   3.168   4.435  23.199
14564SOL    HW255321   3.207   4.448  23.345
14565SOL     OW55322   1.746   4.170  14.544
14565SOL    HW155323   1.776   4.229  14.613
14565SOL    HW255324   1.800   4.190  14.468
14566SOL     OW55325   0.199   1.345  15.356
14566SOL    HW155326   0.257   1.271  15.338
14566SOL    HW255327   0.164   1.370  15.270
14567SOL     OW55328   1.093   3.666  14.688
14567SOL    HW155329   1.083   3.645  14.595
14567SOL    HW255330   1.015   3.718  14.709
14568SOL     OW55331   1.120   4.239  13.450
14568SOL    HW155332   1.069   4.270  13.375
14568SOL    HW255333   1.180   4.311  13.469
14569SOL     OW55334   1.732   0.143  14.681
14569SOL    HW155335   1.742   0.087  14.605
14569SOL    HW255336   1.734   0.083  14.756
14570SOL     OW55337   0.940   3.949  13.194
14570SOL    HW155338   0.892   4.019  13.239
14570SOL    HW255339   0.947   3.979  13.103
14571SOL     OW55340   0.835   3.721  13.305
14571SOL    HW155341   0.862   3.807  13.274
14571SOL    HW255342   0.753   3.737  13.351
14572SOL     OW55343   2.461   3.688  13.657
14572SOL    HW155344   2.553   3.690  13.682
14572SOL    HW255345   2.442   3.594  13.646
14573SOL     OW55346   2.203   3.099  15.199
14573SOL    HW155347   2.285   3.068  15.160
14573SOL    HW255348   2.183   3.034  15.266
14574SOL     OW55349   2.328   3.938  13.735
14574SOL    HW155350   2.380   3.861  13.711
14574SOL    HW255351   2.307   3.925  13.828
14575SOL     OW55352   1.919   4.250  14.345
14575SOL    HW155353   2.011   4.249  14.372
14575SOL    HW255354   1.923   4.245  14.249
14576SOL     OW55355   1.156   0.533  13.494
14576SOL    HW155356   1.236   0.585  13.503
14576SOL    HW255357   1.186   0.444  13.478
14577SOL     OW55358   0.214   4.038  12.871
14577SOL    HW155359   0.192   4.104  12.805
14577SOL    HW255360   0.246   3.963  12.821
14578SOL     OW55361   1.183   2.658  12.909
14578SOL    HW155362   1.251   2.596  12.936
14578SOL    HW255363   1.118   2.656  12.980
14579SOL     OW55364   1.821   3.394  14.675
14579SOL    HW155365   1.833   3.460  14.743
14579SOL    HW255366   1.728   3.399  14.652
14580SOL     OW55367   1.534   0.355  14.732
14580SOL    HW155368   1.615   0.307  14.713
14580SOL    HW255369   1.468   0.287  14.745
14581SOL     OW55370   1.604   4.340  13.549
14581SOL    HW155371   1.579   4.433  13.540
14581SOL    HW255372   1.538   4.293  13.497
14582SOL     OW55373   1.425   4.458  13.796
14582SOL    HW155374   1.380   4.503  13.868
14582SOL    HW255375   1.470   4.528  13.749
14583SOL     OW55376   1.341   2.457  12.948
14583SOL    HW155377   1.309   2.383  12.897
14583SOL    HW255378   1.409   2.421  13.004
14584SOL     OW55379   1.211   0.819  13.444
14584SOL    HW155380   1.232   0.879  13.516
14584SOL    HW255381   1.296   0.785  13.416
14585SOL     OW55382   1.526   3.813  12.858
14585SOL    HW155383   1.490   3.887  12.907
14585SOL    HW255384   1.589   3.773  12.919
14586SOL     OW55385   1.369   3.501  14.562
14586SOL    HW155386   1.329   3.472  14.480
14586SOL    HW255387   1.435   3.565  14.535
14587SOL     OW55388   0.851   3.138  12.871
14587SOL    HW155389   0.836   3.044  12.869
14587SOL    HW255390   0.885   3.156  12.958
14588SOL     OW55391   2.842   2.625  15.412
14588SOL    HW155392   2.836   2.548  15.467
14588SOL    HW255393   2.759   2.672  15.426
14589SOL     OW55394   2.264   3.683  12.533
14589SOL    HW155395   2.267   3.650  12.623
14589SOL    HW255396   2.178   3.658  12.501
14590SOL     OW55397   0.843   2.452  13.700
14590SOL    HW155398   0.767   2.417  13.747
14590SOL    HW255399   0.907   2.381  13.699
14591SOL     OW55400   1.434   0.540  14.539
14591SOL    HW155401   1.406   0.620  14.582
14591SOL    HW255402   1.450   0.478  14.610
14592SOL     OW55403   2.478   3.606  14.432
14592SOL    HW155404   2.393   3.643  14.455
14592SOL    HW255405   2.518   3.671  14.375
14593SOL     OW55406   1.505   4.138  13.343
14593SOL    HW155407   1.440   4.085  13.390
14593SOL    HW255408   1.578   4.079  13.327
14594SOL     OW55409   0.918   4.116  13.699
14594SOL    HW155410   0.947   4.205  13.679
14594SOL    HW255411   0.906   4.115  13.794
14595SOL     OW55412   1.049   4.127  14.402
14595SOL    HW155413   0.960   4.132  14.366
14595SOL    HW255414   1.066   4.215  14.435
14596SOL     OW55415   1.297   4.426  13.558
14596SOL    HW155416   1.354   4.393  13.628
14596SOL    HW255417   1.231   4.479  13.604
14597SOL     OW55418   1.055   3.589  14.434
14597SOL    HW155419   1.065   3.682  14.415
14597SOL    HW255420   1.134   3.549  14.397
14598SOL     OW55421   1.726   2.822  11.544
14598SOL    HW155422   1.634   2.804  11.527
14598SOL    HW255423   1.753   2.753  11.604
14599SOL     OW55424   1.222   3.214  13.652
14599SOL    HW155425   1.236   3.240  13.743
14599SOL    HW255426   1.133   3.246  13.632
14600SOL     OW55427   1.842   3.406  13.900
14600SOL    HW155428   1.849   3.496  13.870
14600SOL    HW255429   1.882   3.354  13.830
14601SOL     OW55430   2.202   2.457  11.879
14601SOL    HW155431   2.221   2.413  11.797
14601SOL    HW255432   2.286   2.494  11.907
14602SOL     OW55433   1.415   4.484  13.145
14602SOL    HW155434   1.440   4.392  13.135
14602SOL    HW255435   1.498   4.530  13.159
14603SOL     OW55436   1.947   0.508  13.393
14603SOL    HW155437   1.902   0.478  13.472
14603SOL    HW255438   1.881   0.558  13.346
14604SOL     OW55439   0.837   3.888  15.895
14604SOL    HW155440   0.823   3.898  15.801
14604SOL    HW255441   0.903   3.953  15.917
14605SOL     OW55442   3.921   4.748  14.475
14605SOL    HW155443   3.831   4.731  14.504
14605SOL    HW255444   3.911   4.770  14.382
14606SOL     OW55445   2.107   4.409  15.101
14606SOL    HW155446   2.150   4.435  15.019
14606SOL    HW255447   2.117   4.314  15.104
14607SOL     OW55448   0.829   3.941  15.404
14607SOL    HW155449   0.767   3.882  15.361
14607SOL    HW255450   0.857   4.001  15.335
14608SOL     OW55451   0.284   0.186  15.434
14608SOL    HW155452   0.283   0.258  15.371
14608SOL    HW255453   0.221   0.123  15.399
14609SOL     OW55454   1.867   3.795  16.081
14609SOL    HW155455   1.846   3.768  15.992
14609SOL    HW255456   1.813   3.738  16.136
14610SOL     OW55457   1.338   0.109  16.320
14610SOL    HW155458   1.248   0.083  16.341
14610SOL    HW255459   1.346   0.197  16.356
14611SOL     OW55460   0.484   0.815  15.707
14611SOL    HW155461   0.423   0.772  15.647
14611SOL    HW255462   0.502   0.749  15.774
14612SOL     OW55463   3.362   0.623  16.363
14612SOL    HW155464   3.277   0.581  16.353
14612SOL    HW255465   3.341   0.715  16.379
14613SOL     OW55466   1.359   4.645  15.177
14613SOL    HW155467   1.288   4.638  15.241
14613SOL    HW255468   1.435   4.607  15.222
14614SOL     OW55469   0.323   1.090  15.359
14614SOL    HW155470   0.361   1.076  15.273
14614SOL    HW255471   0.238   1.048  15.355
14615SOL     OW55472   4.311   3.688  17.214
14615SOL    HW155473   4.293   3.668  17.122
14615SOL    HW255474   4.354   3.773  17.213
14616SOL     OW55475   1.497   4.387  17.132
14616SOL    HW155476   1.466   4.300  17.106
14616SOL    HW255477   1.417   4.437  17.148
14617SOL     OW55478   1.862   3.760  15.513
14617SOL    HW155479   1.955   3.741  15.496
14617SOL    HW255480   1.815   3.707  15.449
14618SOL     OW55481   3.324   4.450  16.766
14618SOL    HW155482   3.269   4.495  16.702
14618SOL    HW255483   3.275   4.456  16.848
14619SOL     OW55484   1.560   3.538  15.674
14619SOL    HW155485   1.637   3.482  15.686
14619SOL    HW255486   1.519   3.541  15.760
14620SOL     OW55487   2.222   3.664  15.154
14620SOL    HW155488   2.220   3.757  15.128
14620SOL    HW255489   2.296   3.628  15.106
14621SOL     OW55490   1.125   1.574  15.350
14621SOL    HW155491   1.033   1.551  15.341
14621SOL    HW255492   1.133   1.662  15.315
14622SOL     OW55493   1.006   3.857  15.614
14622SOL    HW155494   0.936   3.873  15.550
14622SOL    HW255495   1.056   3.939  15.616
14623SOL     OW55496   2.572   2.696  15.416
14623SOL    HW155497   2.480   2.673  15.426
14623SOL    HW255498   2.575   2.751  15.338
14624SOL     OW55499   0.205   0.850  16.259
14624SOL    HW155500   0.134   0.912  16.278
14624SOL    HW255501   0.265   0.900  16.203
14625SOL     OW55502   0.459   4.768  15.466
14625SOL    HW155503   0.436   4.725  15.384
14625SOL    HW255504   0.406   0.067  15.467
14626SOL     OW55505   0.383   4.038  15.646
14626SOL    HW155506   0.357   4.055  15.555
14626SOL    HW255507   0.360   3.946  15.660
14627SOL     OW55508   1.560   3.672  15.414
14627SOL    HW155509   1.634   3.632  15.368
14627SOL    HW255510   1.571   3.645  15.505
14628SOL     OW55511   2.130   1.436  16.769
14628SOL    HW155512   2.082   1.410  16.690
14628SOL    HW255513   2.165   1.354  16.804
14629SOL     OW55514   0.939   0.564  15.921
14629SOL    HW155515   1.021   0.606  15.894
14629SOL    HW255516   0.908   0.518  15.843
14630SOL     OW55517   0.955   0.159  15.914
14630SOL    HW155518   0.901   0.196  15.844
14630SOL    HW255519   1.001   0.085  15.874
14631SOL     OW55520   1.181   4.310  15.031
14631SOL    HW155521   1.273   4.337  15.027
14631SOL    HW255522   1.180   4.222  14.994
14632SOL     OW55523   1.829   3.931  16.745
14632SOL    HW155524   1.825   3.962  16.654
14632SOL    HW255525   1.751   3.876  16.755
14633SOL     OW55526   2.364   0.191  17.268
14633SOL    HW155527   2.370   0.138  17.189
14633SOL    HW255528   2.345   0.280  17.237
14634SOL     OW55529   0.665   4.053  17.435
14634SOL    HW155530   0.604   4.082  17.367
14634SOL    HW255531   0.682   4.131  17.487
14635SOL     OW55532   1.104   4.349  16.002
14635SOL    HW155533   1.032   4.390  16.050
14635SOL    HW255534   1.085   4.369  15.910
14636SOL     OW55535   2.207   3.937  15.193
14636SOL    HW155536   2.253   3.985  15.262
14636SOL    HW255537   2.138   3.998  15.164
14637SOL     OW55538   0.899   0.526  16.192
14637SOL    HW155539   0.897   0.432  16.210
14637SOL    HW255540   0.915   0.532  16.097
14638SOL     OW55541   0.058   4.723  15.032
14638SOL    HW155542   0.106   4.640  15.032
14638SOL    HW255543   4.764   4.708  15.089
14639SOL     OW55544   1.436   3.802  16.479
14639SOL    HW155545   1.529   3.825  16.481
14639SOL    HW255546   1.396   3.867  16.422
14640SOL     OW55547   1.573   4.526  14.780
14640SOL    HW155548   1.650   4.580  14.795
14640SOL    HW255549   1.541   4.551  14.694
14641SOL     OW55550   1.402   4.685  15.515
14641SOL    HW155551   1.315   4.651  15.490
14641SOL    HW255552   1.397   4.695  15.610
14642SOL     OW55553   2.436   4.517  24.691
14642SOL    HW155554   2.434   4.490  24.783
14642SOL    HW255555   2.363   4.469  24.651
14643SOL     OW55556   3.737   1.972   1.565
14643SOL    HW155557   3.752   2.053   1.515
14643SOL    HW255558   3.729   1.904   1.499
14644SOL     OW55559   2.138   4.547  17.913
14644SOL    HW155560   2.106   4.457  17.917
14644SOL    HW255561   2.207   4.545  17.847
14645SOL     OW55562   2.418   4.747  16.681
14645SOL    HW155563   2.423   4.756  16.777
14645SOL    HW255564   2.505   4.717  16.655
14646SOL     OW55565   0.254   0.194  17.828
14646SOL    HW155566   0.178   0.188  17.771
14646SOL    HW255567   0.329   0.200  17.768
14647SOL     OW55568   1.359   3.735  16.926
14647SOL    HW155569   1.335   3.696  16.841
14647SOL    HW255570   1.355   3.662  16.987
14648SOL     OW55571   4.234   3.530  17.414
14648SOL    HW155572   4.293   3.459  17.391
14648SOL    HW255573   4.266   3.605  17.363
14649SOL     OW55574   1.626   3.985  16.202
14649SOL    HW155575   1.561   4.049  16.171
14649SOL    HW255576   1.612   3.909  16.146
14650SOL     OW55577   1.475   2.548  17.989
14650SOL    HW155578   1.476   2.453  18.001
14650SOL    HW255579   1.395   2.565  17.940
14651SOL     OW55580   2.053   4.023  16.918
14651SOL    HW155581   1.976   3.991  16.871
14651SOL    HW255582   2.127   3.984  16.872
14652SOL     OW55583   2.265   3.488  17.214
14652SOL    HW155584   2.356   3.491  17.243
14652SOL    HW255585   2.260   3.555  17.145
14653SOL     OW55586   1.140   0.089  18.293
14653SOL    HW155587   1.219   0.142  18.285
14653SOL    HW255588   1.068   0.149  18.273
14654SOL     OW55589   0.940   2.782  17.103
14654SOL    HW155590   0.964   2.722  17.032
14654SOL    HW255591   0.851   2.810  17.081
14655SOL     OW55592   0.944   4.685  18.495
14655SOL    HW155593   0.961   4.606  18.443
14655SOL    HW255594   1.032   4.716  18.519
14656SOL     OW55595   0.791   4.398  17.093
14656SOL    HW155596   0.731   4.466  17.122
14656SOL    HW255597   0.871   4.445  17.070
14657SOL     OW55598   4.683   3.470  17.851
14657SOL    HW155599   4.777   3.455  17.841
14657SOL    HW255600   4.655   3.502  17.765
14658SOL     OW55601   0.283   3.659  17.644
14658SOL    HW155602   0.241   3.596  17.586
14658SOL    HW255603   0.372   3.668  17.610
14659SOL     OW55604   3.874   4.042  25.406
14659SOL    HW155605   3.960   4.084  25.405
14659SOL    HW255606   3.814   4.111  25.378
14660SOL     OW55607   1.052   4.395  22.798
14660SOL    HW155608   0.971   4.345  22.811
14660SOL    HW255609   1.062   4.445  22.879
14661SOL     OW55610   1.363   0.791  17.944
14661SOL    HW155611   1.284   0.775  17.893
14661SOL    HW255612   1.432   0.747  17.896
14662SOL     OW55613   0.637   2.476  18.994
14662SOL    HW155614   0.592   2.494  19.076
14662SOL    HW255615   0.657   2.382  18.998
14663SOL     OW55616   0.397   1.048  16.669
14663SOL    HW155617   0.329   0.996  16.626
14663SOL    HW255618   0.388   1.027  16.762
14664SOL     OW55619   2.872   2.488  18.782
14664SOL    HW155620   2.877   2.547  18.707
14664SOL    HW255621   2.800   2.428  18.761
14665SOL     OW55622   2.118   3.033  20.477
14665SOL    HW155623   2.052   3.064  20.539
14665SOL    HW255624   2.106   3.088  20.399
14666SOL     OW55625   1.741   4.335  16.973
14666SOL    HW155626   1.822   4.301  17.010
14666SOL    HW255627   1.676   4.322  17.042
14667SOL     OW55628   1.548   2.254  18.298
14667SOL    HW155629   1.631   2.264  18.344
14667SOL    HW255630   1.500   2.335  18.316
14668SOL     OW55631   2.911   1.173   4.976
14668SOL    HW155632   2.952   1.180   4.889
14668SOL    HW255633   2.897   1.264   5.003
14669SOL     OW55634   3.774   4.010  16.766
14669SOL    HW155635   3.696   3.955  16.763
14669SOL    HW255636   3.822   3.979  16.842
14670SOL     OW55637   4.558   4.386   9.459
14670SOL    HW155638   4.521   4.469   9.489
14670SOL    HW255639   4.625   4.365   9.524
14671SOL     OW55640   1.679   3.401  16.367
14671SOL    HW155641   1.762   3.410  16.414
14671SOL    HW255642   1.620   3.360  16.430
14672SOL     OW55643   0.806   1.068   6.094
14672SOL    HW155644   0.842   1.097   6.178
14672SOL    HW255645   0.862   0.996   6.066
14673SOL     OW55646   2.011   4.100  18.321
14673SOL    HW155647   2.036   4.187  18.289
14673SOL    HW255648   1.915   4.101  18.317
14674SOL     OW55649   0.754   0.168  17.278
14674SOL    HW155650   0.672   0.211  17.302
14674SOL    HW255651   0.741   0.139  17.188
14675SOL     OW55652   2.515   3.543  17.276
14675SOL    HW155653   2.564   3.610  17.230
14675SOL    HW255654   2.581   3.480  17.305
14676SOL     OW55655   3.392   3.875  17.838
14676SOL    HW155656   3.360   3.931  17.767
14676SOL    HW255657   3.312   3.837  17.875
14677SOL     OW55658   0.974   0.888  17.131
14677SOL    HW155659   0.940   0.861  17.046
14677SOL    HW255660   0.970   0.984  17.130
14678SOL     OW55661   0.538   0.110  17.035
14678SOL    HW155662   0.459   0.086  16.987
14678SOL    HW255663   0.514   0.188  17.085
14679SOL     OW55664   2.062   4.325  24.915
14679SOL    HW155665   2.126   4.301  24.981
14679SOL    HW255666   2.074   4.419  24.902
14680SOL     OW55667   3.057   0.175   6.805
14680SOL    HW155668   3.079   0.196   6.896
14680SOL    HW255669   3.101   0.092   6.788
14681SOL     OW55670   4.404   3.664  25.531
14681SOL    HW155671   4.341   3.684  25.463
14681SOL    HW255672   4.451   3.587  25.499
14682SOL     OW55673   1.791   3.359  16.121
14682SOL    HW155674   1.783   3.431  16.058
14682SOL    HW255675   1.730   3.382  16.191
14683SOL     OW55676   3.003   0.780  16.899
14683SOL    HW155677   2.991   0.736  16.815
14683SOL    HW255678   2.918   0.773  16.943
14684SOL     OW55679   2.380   2.943   4.334
14684SOL    HW155680   2.350   2.925   4.423
14684SOL    HW255681   2.305   2.984   4.291
14685SOL     OW55682   1.337   3.959  16.302
14685SOL    HW155683   1.286   3.910  16.237
14685SOL    HW255684   1.378   4.029  16.251
14686SOL     OW55685   1.518   0.403  17.763
14686SOL    HW155686   1.493   0.334  17.825
14686SOL    HW255687   1.545   0.356  17.684
14687SOL     OW55688   4.397   0.457   1.863
14687SOL    HW155689   4.418   0.534   1.916
14687SOL    HW255690   4.303   0.444   1.875
14688SOL     OW55691   4.495   2.268  24.927
14688SOL    HW155692   4.484   2.198  24.991
14688SOL    HW255693   4.579   2.309  24.949
14689SOL     OW55694   0.066   0.397  23.463
14689SOL    HW155695   0.150   0.386  23.507
14689SOL    HW255696   0.042   0.488  23.481
14690SOL     OW55697   2.560   4.385   9.462
14690SOL    HW155698   2.635   4.357   9.514
14690SOL    HW255699   2.522   4.458   9.511
14691SOL     OW55700   4.154   4.725   2.342
14691SOL    HW155701   4.171   4.781   2.267
14691SOL    HW255702   4.059   4.708   2.338
14692SOL     OW55703   3.152   0.405   3.726
14692SOL    HW155704   3.246   0.409   3.708
14692SOL    HW255705   3.134   0.481   3.781
14693SOL     OW55706   0.380   2.625   2.115
14693SOL    HW155707   0.430   2.544   2.108
14693SOL    HW255708   0.433   2.681   2.173
14694SOL     OW55709   2.517   4.030  11.325
14694SOL    HW155710   2.595   4.032  11.380
14694SOL    HW255711   2.478   4.117  11.335
14695SOL     OW55712   1.136   3.651  15.707
14695SOL    HW155713   1.192   3.611  15.640
14695SOL    HW255714   1.083   3.714  15.658
14696SOL     OW55715   2.392   2.576   0.028
14696SOL    HW155716   2.321   2.640   0.033
14696SOL    HW255717   2.401   2.545   0.118
14697SOL     OW55718   2.467   1.436  19.234
14697SOL    HW155719   2.490   1.437  19.142
14697SOL    HW255720   2.414   1.514  19.247
14698SOL     OW55721   0.308   3.491   1.963
14698SOL    HW155722   0.348   3.411   1.996
14698SOL    HW255723   0.265   3.464   1.882
14699SOL     OW55724   1.941   3.833  19.068
14699SOL    HW155725   1.973   3.913  19.025
14699SOL    HW255726   2.015   3.772  19.062
14700SOL     OW55727   4.150   3.195   8.076
14700SOL    HW155728   4.091   3.139   8.127
14700SOL    HW255729   4.146   3.159   7.988
14701SOL     OW55730   2.321   1.272  25.023
14701SOL    HW155731   2.367   1.351  24.994
14701SOL    HW255732   2.372   1.200  24.987
14702SOL     OW55733   3.693   3.442   4.878
14702SOL    HW155734   3.679   3.518   4.936
14702SOL    HW255735   3.648   3.370   4.922
14703SOL     OW55736   4.188   4.513   0.776
14703SOL    HW155737   4.181   4.506   0.681
14703SOL    HW255738   4.216   4.426   0.804
14704SOL     OW55739   2.334   1.816  24.894
14704SOL    HW155740   2.331   1.886  24.829
14704SOL    HW255741   2.425   1.817  24.926
14705SOL     OW55742   4.203   3.589   0.224
14705SOL    HW155743   4.252   3.539   0.289
14705SOL    HW255744   4.161   3.659   0.275
14706SOL     OW55745   3.984   2.276  21.247
14706SOL    HW155746   3.985   2.337  21.173
14706SOL    HW255747   4.074   2.247  21.256
14707SOL     OW55748   4.004   3.880   2.679
14707SOL    HW155749   4.033   3.844   2.595
14707SOL    HW255750   3.981   3.971   2.660
14708SOL     OW55751   2.328   4.051  17.147
14708SOL    HW155752   2.292   4.101  17.074
14708SOL    HW255753   2.351   3.966  17.109
14709SOL     OW55754   3.787   4.442  24.792
14709SOL    HW155755   3.769   4.510  24.726
14709SOL    HW255756   3.702   4.424  24.831
14710SOL     OW55757   1.969   2.089   0.883
14710SOL    HW155758   2.001   2.134   0.804
14710SOL    HW255759   1.885   2.051   0.857
14711SOL     OW55760   2.887   3.138  27.168
14711SOL    HW155761   2.955   3.207  27.166
14711SOL    HW255762   2.933   3.059  27.140
14712SOL     OW55763   4.185   0.508  17.675
14712SOL    HW155764   4.260   0.466  17.633
14712SOL    HW255765   4.162   0.580  17.617
14713SOL     OW55766   0.900   3.302  26.295
14713SOL    HW155767   0.900   3.228  26.357
14713SOL    HW255768   0.984   3.296  26.251
14714SOL     OW55769   3.704   2.509   8.788
14714SOL    HW155770   3.708   2.602   8.810
14714SOL    HW255771   3.669   2.506   8.699
14715SOL     OW55772   4.666   2.950  25.598
14715SOL    HW155773   4.604   3.001  25.546
14715SOL    HW255774   4.699   3.011  25.663
14716SOL     OW55775   0.171   4.554   6.520
14716SOL    HW155776   0.263   4.578   6.534
14716SOL    HW255777   0.127   4.581   6.601
14717SOL     OW55778   0.911   4.731  16.141
14717SOL    HW155779   0.939   0.000  16.065
14717SOL    HW255780   0.876   4.650  16.105
14718SOL     OW55781   3.415   0.271   8.386
14718SOL    HW155782   3.392   0.239   8.473
14718SOL    HW255783   3.432   0.365   8.398
14719SOL     OW55784   4.725   4.700  23.287
14719SOL    HW155785   4.655   4.664  23.232
14719SOL    HW255786   4.716   0.014  23.277
14720SOL     OW55787   4.703   1.718   6.830
14720SOL    HW155788   4.650   1.798   6.826
14720SOL    HW255789   4.653   1.659   6.886
14721SOL     OW55790   0.642   4.330   9.166
14721SOL    HW155791   0.646   4.344   9.072
14721SOL    HW255792   0.585   4.400   9.199
14722SOL     OW55793   3.904   1.045  20.872
14722SOL    HW155794   3.830   1.076  20.821
14722SOL    HW255795   3.874   1.047  20.963
14723SOL     OW55796   3.591   3.600  17.097
14723SOL    HW155797   3.623   3.621  17.009
14723SOL    HW255798   3.618   3.509  17.111
14724SOL     OW55799   2.086   0.010  22.010
14724SOL    HW155800   2.106   0.055  21.928
14724SOL    HW255801   2.158   0.034  22.068
14725SOL     OW55802   0.544   1.935   9.431
14725SOL    HW155803   0.512   1.845   9.442
14725SOL    HW255804   0.501   1.984   9.501
14726SOL     OW55805   2.326   0.076  17.520
14726SOL    HW155806   2.330   0.121  17.436
14726SOL    HW255807   2.241   0.033  17.521
14727SOL     OW55808   4.716   4.329   7.517
14727SOL    HW155809   4.768   4.400   7.554
14727SOL    HW255810   4.763   4.305   7.436
14728SOL     OW55811   2.747   3.517   7.680
14728SOL    HW155812   2.694   3.439   7.695
14728SOL    HW255813   2.835   3.492   7.706
14729SOL     OW55814   4.033   0.963   1.315
14729SOL    HW155815   4.101   0.979   1.381
14729SOL    HW255816   3.980   0.892   1.352
14730SOL     OW55817   3.190   2.554  20.711
14730SOL    HW155818   3.180   2.647  20.689
14730SOL    HW255819   3.266   2.526  20.659
14731SOL     OW55820   2.721   3.834  22.863
14731SOL    HW155821   2.805   3.826  22.819
14731SOL    HW255822   2.660   3.856  22.793
14732SOL     OW55823   2.075   3.733   2.232
14732SOL    HW155824   2.046   3.820   2.258
14732SOL    HW255825   2.078   3.736   2.137
14733SOL     OW55826   2.100   4.445   0.595
14733SOL    HW155827   2.179   4.499   0.603
14733SOL    HW255828   2.043   4.493   0.536
14734SOL     OW55829   0.954   3.680  24.515
14734SOL    HW155830   0.951   3.584  24.520
14734SOL    HW255831   0.985   3.699  24.426
14735SOL     OW55832   0.253   4.476  19.800
14735SOL    HW155833   0.196   4.553  19.800
14735SOL    HW255834   0.225   4.425  19.875
14736SOL     OW55835   0.823   1.704  25.266
14736SOL    HW155836   0.797   1.740  25.182
14736SOL    HW255837   0.759   1.740  25.328
14737SOL     OW55838   1.121   2.572  27.372
14737SOL    HW155839   1.072   2.645  27.411
14737SOL    HW255840   1.071   2.494  27.395
14738SOL     OW55841   1.644   1.446   0.693
14738SOL    HW155842   1.724   1.470   0.739
14738SOL    HW255843   1.592   1.526   0.693
14739SOL     OW55844   1.638   3.000   8.296
14739SOL    HW155845   1.667   2.936   8.230
14739SOL    HW255846   1.670   2.965   8.379
14740SOL     OW55847   4.685   0.187   3.815
14740SOL    HW155848   4.634   0.220   3.741
14740SOL    HW255849   4.633   0.212   3.892
14741SOL     OW55850   3.475   2.455  23.576
14741SOL    HW155851   3.484   2.373  23.527
14741SOL    HW255852   3.480   2.428  23.668
14742SOL     OW55853   1.576   3.401   5.070
14742SOL    HW155854   1.511   3.431   5.007
14742SOL    HW255855   1.582   3.471   5.135
14743SOL     OW55856   4.593   3.838  23.500
14743SOL    HW155857   4.635   3.820  23.416
14743SOL    HW255858   4.514   3.887  23.478
14744SOL     OW55859   4.594   3.870   4.780
14744SOL    HW155860   4.597   3.891   4.873
14744SOL    HW255861   4.681   3.836   4.760
14745SOL     OW55862   2.316   3.303   2.916
14745SOL    HW155863   2.296   3.328   2.826
14745SOL    HW255864   2.358   3.381   2.954
14746SOL     OW55865   2.540   1.650   6.245
14746SOL    HW155866   2.619   1.670   6.296
14746SOL    HW255867   2.472   1.638   6.312
14747SOL     OW55868   0.139   0.981  25.419
14747SOL    HW155869   0.157   1.055  25.362
14747SOL    HW255870   0.137   1.017  25.507
14748SOL     OW55871   0.146   3.238   0.631
14748SOL    HW155872   0.068   3.293   0.623
14748SOL    HW255873   0.148   3.213   0.724
14749SOL     OW55874   1.159   3.950  20.795
14749SOL    HW155875   1.108   3.934  20.716
14749SOL    HW255876   1.096   3.943  20.866
14750SOL     OW55877   0.320   2.473   8.153
14750SOL    HW155878   0.313   2.382   8.181
14750SOL    HW255879   0.336   2.522   8.233
14751SOL     OW55880   2.932   1.710   3.404
14751SOL    HW155881   2.967   1.777   3.345
14751SOL    HW255882   2.873   1.659   3.349
14752SOL     OW55883   0.330   2.853   2.763
14752SOL    HW155884   0.323   2.943   2.794
14752SOL    HW255885   0.401   2.815   2.814
14753SOL     OW55886   0.743   1.106   3.684
14753SOL    HW155887   0.701   1.050   3.620
14753SOL    HW255888   0.712   1.194   3.663
14754SOL     OW55889   0.296   1.914   9.235
14754SOL    HW155890   0.344   1.941   9.313
14754SOL    HW255891   0.214   1.878   9.268
14755SOL     OW55892   2.512   4.773   0.104
14755SOL    HW155893   2.572   4.709   0.066
14755SOL    HW255894   2.431   4.725   0.118
14756SOL     OW55895   2.577   3.933  24.815
14756SOL    HW155896   2.652   3.934  24.756
14756SOL    HW255897   2.527   3.855  24.789
14757SOL     OW55898   1.042   0.244   8.028
14757SOL    HW155899   1.019   0.160   7.989
14757SOL    HW255900   1.114   0.277   7.975
14758SOL     OW55901   0.047   0.469  21.547
14758SOL    HW155902   0.014   0.478  21.637
14758SOL    HW255903   0.036   0.556  21.509
14759SOL     OW55904   1.511   2.326   3.775
14759SOL    HW155905   1.487   2.270   3.849
14759SOL    HW255906   1.479   2.413   3.800
14760SOL     OW55907   4.222   4.632  28.180
14760SOL    HW155908   4.160   4.626  28.108
14760SOL    HW255909   4.210   4.550  28.229
14761SOL     OW55910   2.696   2.308  24.100
14761SOL    HW155911   2.781   2.271  24.122
14761SOL    HW255912   2.694   2.394  24.143
14762SOL     OW55913   2.184   2.178  27.234
14762SOL    HW155914   2.182   2.273  27.246
14762SOL    HW255915   2.216   2.144  27.318
14763SOL     OW55916   1.843   4.016  10.387
14763SOL    HW155917   1.817   3.938  10.339
14763SOL    HW255918   1.917   4.051  10.339
14764SOL     OW55919   1.304   4.697  22.509
14764SOL    HW155920   1.209   4.687  22.500
14764SOL    HW255921   1.339   4.613  22.479
14765SOL     OW55922   1.390   2.297   1.594
14765SOL    HW155923   1.353   2.372   1.548
14765SOL    HW255924   1.317   2.236   1.606
14766SOL     OW55925   3.974   4.393  21.100
14766SOL    HW155926   3.884   4.411  21.128
14766SOL    HW255927   3.965   4.329  21.030
14767SOL     OW55928   3.932   0.794  20.755
14767SOL    HW155929   3.940   0.889  20.764
14767SOL    HW255930   4.015   0.760  20.788
14768SOL     OW55931   3.389   3.149   6.029
14768SOL    HW155932   3.407   3.060   6.060
14768SOL    HW255933   3.476   3.189   6.020
14769SOL     OW55934   1.104   2.720   1.338
14769SOL    HW155935   1.013   2.731   1.308
14769SOL    HW255936   1.101   2.739   1.432
14770SOL     OW55937   3.701   0.297  26.843
14770SOL    HW155938   3.644   0.317  26.917
14770SOL    HW255939   3.648   0.320  26.766
14771SOL     OW55940   3.832   2.112  27.126
14771SOL    HW155941   3.776   2.122  27.204
14771SOL    HW255942   3.845   2.018  27.118
14772SOL     OW55943   2.602   4.619  10.814
14772SOL    HW155944   2.580   4.584  10.900
14772SOL    HW255945   2.681   4.671  10.829
14773SOL     OW55946   3.363   2.939   0.267
14773SOL    HW155947   3.421   3.001   0.223
14773SOL    HW255948   3.392   2.853   0.236
14774SOL     OW55949   4.429   0.797   5.333
14774SOL    HW155950   4.366   0.829   5.268
14774SOL    HW255951   4.402   0.707   5.351
14775SOL     OW55952   3.451   1.173  24.582
14775SOL    HW155953   3.424   1.200  24.494
14775SOL    HW255954   3.532   1.220  24.599
14776SOL     OW55955   4.336   0.815  26.352
14776SOL    HW155956   4.267   0.786  26.292
14776SOL    HW255957   4.289   0.836  26.433
14777SOL     OW55958   1.456   4.218   4.525
14777SOL    HW155959   1.442   4.135   4.479
14777SOL    HW255960   1.448   4.196   4.618
14778SOL     OW55961   1.241   1.897  27.569
14778SOL    HW155962   1.237   1.845  27.649
14778SOL    HW255963   1.302   1.968  27.590
14779SOL     OW55964   2.802   2.583   3.571
14779SOL    HW155965   2.747   2.505   3.576
14779SOL    HW255966   2.768   2.641   3.639
14780SOL     OW55967   1.633   4.128   9.842
14780SOL    HW155968   1.717   4.134   9.798
14780SOL    HW255969   1.654   4.140   9.935
14781SOL     OW55970   0.182   0.405   0.532
14781SOL    HW155971   0.163   0.382   0.623
14781SOL    HW255972   0.246   0.475   0.538
14782SOL     OW55973   1.878   4.650  17.947
14782SOL    HW155974   1.972   4.633  17.949
14782SOL    HW255975   1.859   4.689  18.032
14783SOL     OW55976   3.951   4.699   2.637
14783SOL    HW155977   3.933   0.008   2.666
14783SOL    HW255978   4.013   4.709   2.565
14784SOL     OW55979   3.673   4.614   8.536
14784SOL    HW155980   3.634   4.684   8.589
14784SOL    HW255981   3.767   4.628   8.543
14785SOL     OW55982   1.555   4.264  27.484
14785SOL    HW155983   1.620   4.209  27.527
14785SOL    HW255984   1.580   4.266  27.392
14786SOL     OW55985   3.340   1.915   3.752
14786SOL    HW155986   3.289   1.923   3.832
14786SOL    HW255987   3.373   2.004   3.736
14787SOL     OW55988   0.125   0.185  27.469
14787SOL    HW155989   0.108   0.201  27.376
14787SOL    HW255990   0.127   0.089  27.476
14788SOL     OW55991   1.365   1.161  19.590
14788SOL    HW155992   1.326   1.236  19.634
14788SOL    HW255993   1.459   1.172  19.603
14789SOL     OW55994   0.379   3.462   6.964
14789SOL    HW155995   0.445   3.414   6.914
14789SOL    HW255996   0.334   3.395   7.016
14790SOL     OW55997   0.680   0.031  21.319
14790SOL    HW155998   0.589   0.059  21.333
14790SOL    HW255999   0.730   0.112  21.318
14791SOL     OW56000   4.340   2.568  17.467
14791SOL    HW156001   4.262   2.522  17.498
14791SOL    HW256002   4.409   2.502  17.469
14792SOL     OW56003   4.492   1.434   1.364
14792SOL    HW156004   4.525   1.512   1.319
14792SOL    HW256005   4.415   1.465   1.411
14793SOL     OW56006   2.020   3.998   8.158
14793SOL    HW156007   2.114   4.002   8.143
14793SOL    HW256008   2.002   3.905   8.172
14794SOL     OW56009   4.708   0.495  23.951
14794SOL    HW156010   4.616   0.507  23.974
14794SOL    HW256011   4.756   0.556  24.008
14795SOL     OW56012   4.373   2.767  23.452
14795SOL    HW156013   4.382   2.844  23.508
14795SOL    HW256014   4.369   2.802  23.363
14796SOL     OW56015   3.002   1.940  20.473
14796SOL    HW156016   3.087   1.906  20.446
14796SOL    HW256017   2.973   1.881  20.543
14797SOL     OW56018   4.410   3.759  22.465
14797SOL    HW156019   4.441   3.720  22.383
14797SOL    HW256020   4.428   3.692  22.531
14798SOL     OW56021   3.833   1.383  26.448
14798SOL    HW156022   3.764   1.445  26.472
14798SOL    HW256023   3.875   1.361  26.531
14799SOL     OW56024   4.322   2.135   0.984
14799SOL    HW156025   4.274   2.188   0.921
14799SOL    HW256026   4.335   2.193   1.059
14800SOL     OW56027   0.662   3.260  21.437
14800SOL    HW156028   0.609   3.193  21.480
14800SOL    HW256029   0.686   3.221  21.353
14801SOL     OW56030   0.583   1.755   6.235
14801SOL    HW156031   0.545   1.668   6.224
14801SOL    HW256032   0.662   1.741   6.287
14802SOL     OW56033   0.146   0.009   3.046
14802SOL    HW156034   0.187   0.078   3.099
14802SOL    HW256035   0.056   0.040   3.032
14803SOL     OW56036   1.111   1.165   8.745
14803SOL    HW156037   1.070   1.083   8.771
14803SOL    HW256038   1.205   1.151   8.761
14804SOL     OW56039   3.936   4.048  26.230
14804SOL    HW156040   3.842   4.036  26.245
14804SOL    HW256041   3.974   3.961  26.246
14805SOL     OW56042   0.065   1.518   8.766
14805SOL    HW156043   0.064   1.476   8.680
14805SOL    HW256044   0.061   1.612   8.747
14806SOL     OW56045   2.276   2.131   1.448
14806SOL    HW156046   2.260   2.200   1.384
14806SOL    HW256047   2.218   2.060   1.421
14807SOL     OW56048   1.957   3.036   1.289
14807SOL    HW156049   1.912   3.087   1.357
14807SOL    HW256050   2.031   3.091   1.264
14808SOL     OW56051   4.170   1.522  11.221
14808SOL    HW156052   4.119   1.520  11.140
14808SOL    HW256053   4.106   1.504  11.290
14809SOL     OW56054   3.181   3.602  21.090
14809SOL    HW156055   3.173   3.598  20.995
14809SOL    HW256056   3.204   3.513  21.116
14810SOL     OW56057   3.528   2.402  23.823
14810SOL    HW156058   3.542   2.493  23.850
14810SOL    HW256059   3.507   2.356  23.904
14811SOL     OW56060   4.674   0.693   4.291
14811SOL    HW156061   4.594   0.725   4.251
14811SOL    HW256062   4.704   0.623   4.233
14812SOL     OW56063   4.286   4.335  26.780
14812SOL    HW156064   4.280   4.354  26.874
14812SOL    HW256065   4.374   4.298  26.769
14813SOL     OW56066   2.710   2.670   5.305
14813SOL    HW156067   2.666   2.753   5.321
14813SOL    HW256068   2.782   2.669   5.367
14814SOL     OW56069   1.900   3.151   9.313
14814SOL    HW156070   1.962   3.208   9.359
14814SOL    HW256071   1.814   3.178   9.345
14815SOL     OW56072   4.018   0.498   5.076
14815SOL    HW156073   3.962   0.574   5.086
14815SOL    HW256074   4.107   0.532   5.087
14816SOL     OW56075   3.188   0.013  20.602
14816SOL    HW156076   3.169   4.706  20.570
14816SOL    HW256077   3.202   0.001  20.696
14817SOL     OW56078   2.875   2.966  26.405
14817SOL    HW156079   2.915   3.035  26.353
14817SOL    HW256080   2.824   2.915  26.341
14818SOL     OW56081   2.715   1.932   4.991
14818SOL    HW156082   2.679   1.864   4.933
14818SOL    HW256083   2.685   1.905   5.079
14819SOL     OW56084   1.372   4.259   5.308
14819SOL    HW156085   1.336   4.258   5.397
14819SOL    HW256086   1.316   4.199   5.259
14820SOL     OW56087   4.295   0.382   9.256
14820SOL    HW156088   4.295   0.427   9.340
14820SOL    HW256089   4.383   0.393   9.222
14821SOL     OW56090   4.219   4.507  27.352
14821SOL    HW156091   4.300   4.531  27.397
14821SOL    HW256092   4.184   4.591  27.321
14822SOL     OW56093   2.643   0.275  21.145
14822SOL    HW156094   2.630   0.352  21.201
14822SOL    HW256095   2.601   0.298  21.062
14823SOL     OW56096   0.452   1.583   8.571
14823SOL    HW156097   0.416   1.499   8.544
14823SOL    HW256098   0.422   1.594   8.661
14824SOL     OW56099   0.586   2.083   8.796
14824SOL    HW156100   0.594   1.997   8.838
14824SOL    HW256101   0.557   2.063   8.707
14825SOL     OW56102   1.893   0.766  24.742
14825SOL    HW156103   1.847   0.847  24.721
14825SOL    HW256104   1.968   0.794  24.794
14826SOL     OW56105   2.958   0.466   3.996
14826SOL    HW156106   3.041   0.512   3.979
14826SOL    HW256107   2.984   0.374   4.005
14827SOL     OW56108   2.663   3.018   2.615
14827SOL    HW156109   2.650   3.087   2.550
14827SOL    HW256110   2.586   3.024   2.671
14828SOL     OW56111   3.183   0.997  18.616
14828SOL    HW156112   3.264   1.020  18.570
14828SOL    HW256113   3.194   1.034  18.704
14829SOL     OW56114   4.291   4.646  22.409
14829SOL    HW156115   4.315   4.555  22.430
14829SOL    HW256116   4.349   4.699  22.463
14830SOL     OW56117   1.927   3.003   6.380
14830SOL    HW156118   1.985   3.030   6.452
14830SOL    HW256119   1.844   3.048   6.398
14831SOL     OW56120   2.903   0.946  19.391
14831SOL    HW156121   2.823   0.895  19.376
14831SOL    HW256122   2.874   1.020  19.444
14832SOL     OW56123   0.253   1.227   0.780
14832SOL    HW156124   0.336   1.200   0.818
14832SOL    HW256125   0.191   1.226   0.852
14833SOL     OW56126   1.013   2.265  19.466
14833SOL    HW156127   1.052   2.348  19.438
14833SOL    HW256128   0.954   2.289  19.538
14834SOL     OW56129   0.478   3.875   7.980
14834SOL    HW156130   0.563   3.917   7.995
14834SOL    HW256131   0.445   3.855   8.068
14835SOL     OW56132   4.643   2.006  19.396
14835SOL    HW156133   4.657   2.050  19.480
14835SOL    HW256134   4.729   2.008  19.354
14836SOL     OW56135   2.063   2.191   1.743
14836SOL    HW156136   2.049   2.166   1.835
14836SOL    HW256137   2.062   2.286   1.743
14837SOL     OW56138   3.293   0.594   4.268
14837SOL    HW156139   3.296   0.633   4.355
14837SOL    HW256140   3.265   0.504   4.283
14838SOL     OW56141   0.429   4.433  20.197
14838SOL    HW156142   0.346   4.478  20.212
14838SOL    HW256143   0.469   4.481  20.125
14839SOL     OW56144   0.582   2.271  24.925
14839SOL    HW156145   0.578   2.285  24.830
14839SOL    HW256146   0.503   2.221  24.945
14840SOL     OW56147   2.841   4.144  21.824
14840SOL    HW156148   2.811   4.227  21.786
14840SOL    HW256149   2.765   4.087  21.820
14841SOL     OW56150   0.973   2.694   6.296
14841SOL    HW156151   0.978   2.599   6.308
14841SOL    HW256152   1.064   2.723   6.302
14842SOL     OW56153   0.840   3.344   4.273
14842SOL    HW156154   0.752   3.340   4.310
14842SOL    HW256155   0.881   3.262   4.300
14843SOL     OW56156   2.503   3.257   7.177
14843SOL    HW156157   2.474   3.334   7.225
14843SOL    HW256158   2.458   3.183   7.219
14844SOL     OW56159   3.277   0.131   5.211
14844SOL    HW156160   3.249   0.188   5.282
14844SOL    HW256161   3.317   0.190   5.147
14845SOL     OW56162   4.498   0.959  27.692
14845SOL    HW156163   4.443   1.037  27.696
14845SOL    HW256164   4.587   0.992  27.706
14846SOL     OW56165   0.851   0.703  26.220
14846SOL    HW156166   0.940   0.682  26.191
14846SOL    HW256167   0.817   0.762  26.153
14847SOL     OW56168   0.302   1.583   5.377
14847SOL    HW156169   0.313   1.640   5.453
14847SOL    HW256170   0.223   1.615   5.333
14848SOL     OW56171   0.986   0.064   7.134
14848SOL    HW156172   1.035   0.078   7.052
14848SOL    HW256173   0.897   0.044   7.105
14849SOL     OW56174   4.109   3.220  21.949
14849SOL    HW156175   4.125   3.305  21.910
14849SOL    HW256176   4.188   3.169  21.930
14850SOL     OW56177   2.184   2.664   3.358
14850SOL    HW156178   2.274   2.683   3.385
14850SOL    HW256179   2.176   2.569   3.367
14851SOL     OW56180   1.115   0.863   2.997
14851SOL    HW156181   1.194   0.874   2.943
14851SOL    HW256182   1.130   0.918   3.073
14852SOL     OW56183   4.768   0.884   1.794
14852SOL    HW156184   4.721   0.866   1.875
14852SOL    HW256185   0.005   0.978   1.797
14853SOL     OW56186   0.977   3.108   4.368
14853SOL    HW156187   0.932   3.023   4.374
14853SOL    HW256188   0.984   3.138   4.459
14854SOL     OW56189   0.693   4.135  21.881
14854SOL    HW156190   0.639   4.065  21.918
14854SOL    HW256191   0.631   4.204  21.858
14855SOL     OW56192   0.059   3.187  24.464
14855SOL    HW156193   0.050   3.092  24.469
14855SOL    HW256194   0.144   3.205  24.503
14856SOL     OW56195   0.429   4.326  23.833
14856SOL    HW156196   0.450   4.259  23.898
14856SOL    HW256197   0.334   4.338  23.840
14857SOL     OW56198   2.635   1.673   8.019
14857SOL    HW156199   2.731   1.679   8.024
14857SOL    HW256200   2.616   1.682   7.926
14858SOL     OW56201   3.528   3.169  21.710
14858SOL    HW156202   3.602   3.136  21.659
14858SOL    HW256203   3.517   3.259  21.680
14859SOL     OW56204   2.088   0.515   2.189
14859SOL    HW156205   2.013   0.466   2.155
14859SOL    HW256206   2.154   0.506   2.120
14860SOL     OW56207   2.691   3.856   0.435
14860SOL    HW156208   2.760   3.868   0.369
14860SOL    HW256209   2.610   3.877   0.388
14861SOL     OW56210   0.424   1.695   9.480
14861SOL    HW156211   0.356   1.685   9.547
14861SOL    HW256212   0.498   1.645   9.514
14862SOL     OW56213   3.094   2.876  21.838
14862SOL    HW156214   3.010   2.861  21.795
14862SOL    HW256215   3.093   2.969  21.861
14863SOL     OW56216   4.429   4.152  10.874
14863SOL    HW156217   4.469   4.103  10.801
14863SOL    HW256218   4.428   4.089  10.946
14864SOL     OW56219   3.300   0.954  24.708
14864SOL    HW156220   3.354   1.032  24.692
14864SOL    HW256221   3.276   0.924  24.620
14865SOL     OW56222   1.842   0.883  25.309
14865SOL    HW156223   1.812   0.973  25.299
14865SOL    HW256224   1.917   0.889  25.369
14866SOL     OW56225   0.125   2.818  21.737
14866SOL    HW156226   0.083   2.878  21.798
14866SOL    HW256227   0.072   2.824  21.658
14867SOL     OW56228   3.608   2.723  19.411
14867SOL    HW156229   3.649   2.645  19.448
14867SOL    HW256230   3.580   2.775  19.487
14868SOL     OW56231   1.551   4.571   2.270
14868SOL    HW156232   1.620   4.628   2.303
14868SOL    HW256233   1.481   4.630   2.243
14869SOL     OW56234   3.142   2.528  22.147
14869SOL    HW156235   3.234   2.533  22.174
14869SOL    HW256236   3.139   2.578  22.065
14870SOL     OW56237   1.760   2.454  26.713
14870SOL    HW156238   1.692   2.496  26.765
14870SOL    HW256239   1.774   2.514  26.639
14871SOL     OW56240   1.431   3.592  26.418
14871SOL    HW156241   1.371   3.592  26.344
14871SOL    HW256242   1.503   3.649  26.391
14872SOL     OW56243   1.969   2.779   7.277
14872SOL    HW156244   1.875   2.795   7.283
14872SOL    HW256245   2.007   2.867   7.268
14873SOL     OW56246   0.683   0.917  25.001
14873SOL    HW156247   0.633   0.941  25.079
14873SOL    HW256248   0.620   0.927  24.929
14874SOL     OW56249   1.584   2.971   6.146
14874SOL    HW156250   1.564   3.035   6.078
14874SOL    HW256251   1.571   3.019   6.228
14875SOL     OW56252   1.561   3.186   7.701
14875SOL    HW156253   1.654   3.191   7.678
14875SOL    HW256254   1.530   3.276   7.698
14876SOL     OW56255   2.981   2.536  24.801
14876SOL    HW156256   2.896   2.494  24.793
14876SOL    HW256257   2.961   2.629  24.815
14877SOL     OW56258   3.383   1.107  16.887
14877SOL    HW156259   3.328   1.029  16.891
14877SOL    HW256260   3.447   1.088  16.818
14878SOL     OW56261   4.162   2.805  19.104
14878SOL    HW156262   4.120   2.851  19.031
14878SOL    HW256263   4.220   2.871  19.143
14879SOL     OW56264   3.540   0.526  24.071
14879SOL    HW156265   3.506   0.589  24.134
14879SOL    HW256266   3.553   0.446  24.122
14880SOL     OW56267   1.877   4.256  21.278
14880SOL    HW156268   1.788   4.282  21.256
14880SOL    HW256269   1.897   4.304  21.358
14881SOL     OW56270   3.818   1.283   2.480
14881SOL    HW156271   3.798   1.204   2.429
14881SOL    HW256272   3.739   1.336   2.474
14882SOL     OW56273   4.443   3.487  20.327
14882SOL    HW156274   4.532   3.518  20.340
14882SOL    HW256275   4.391   3.566  20.314
14883SOL     OW56276   1.461   3.681   8.364
14883SOL    HW156277   1.478   3.587   8.364
14883SOL    HW256278   1.547   3.720   8.377
14884SOL     OW56279   1.961   0.589  20.893
14884SOL    HW156280   1.913   0.619  20.815
14884SOL    HW256281   1.920   0.505  20.914
14885SOL     OW56282   2.374   4.634  20.609
14885SOL    HW156283   2.356   4.636  20.515
14885SOL    HW256284   2.418   4.717  20.627
14886SOL     OW56285   1.565   1.635  25.395
14886SOL    HW156286   1.545   1.609  25.305
14886SOL    HW256287   1.486   1.680  25.426
14887SOL     OW56288   3.782   1.135   7.175
14887SOL    HW156289   3.789   1.189   7.096
14887SOL    HW256290   3.863   1.153   7.223
14888SOL     OW56291   3.503   0.733   3.396
14888SOL    HW156292   3.432   0.786   3.432
14888SOL    HW256293   3.459   0.658   3.355
14889SOL     OW56294   3.082   4.069   9.005
14889SOL    HW156295   3.032   4.138   9.048
14889SOL    HW256296   3.167   4.110   8.986
14890SOL     OW56297   3.597   0.953   5.261
14890SOL    HW156298   3.571   0.933   5.171
14890SOL    HW256299   3.635   1.040   5.256
14891SOL     OW56300   3.405   4.438  21.719
14891SOL    HW156301   3.346   4.413  21.648
14891SOL    HW256302   3.480   4.378  21.710
14892SOL     OW56303   3.499   1.372   2.711
14892SOL    HW156304   3.576   1.358   2.766
14892SOL    HW256305   3.444   1.295   2.726
14893SOL     OW56306   1.443   1.241   9.852
14893SOL    HW156307   1.524   1.285   9.878
14893SOL    HW256308   1.377   1.273   9.914
14894SOL     OW56309   2.717   1.042  20.922
14894SOL    HW156310   2.769   1.030  20.843
14894SOL    HW256311   2.775   1.014  20.993
14895SOL     OW56312   3.590   4.391   6.158
14895SOL    HW156313   3.572   4.474   6.203
14895SOL    HW256314   3.685   4.381   6.162
14896SOL     OW56315   3.627   3.416   3.887
14896SOL    HW156316   3.532   3.406   3.891
14896SOL    HW256317   3.641   3.507   3.863
14897SOL     OW56318   3.286   0.571  25.542
14897SOL    HW156319   3.314   0.557  25.632
14897SOL    HW256320   3.356   0.533  25.489
14898SOL     OW56321   1.866   1.620  19.792
14898SOL    HW156322   1.773   1.606  19.772
14898SOL    HW256323   1.867   1.641  19.886
14899SOL     OW56324   3.442   1.887   7.490
14899SOL    HW156325   3.420   1.930   7.572
14899SOL    HW256326   3.528   1.924   7.466
14900SOL     OW56327   3.174   4.317   0.179
14900SOL    HW156328   3.233   4.244   0.197
14900SOL    HW256329   3.232   4.392   0.167
14901SOL     OW56330   1.396   0.946  18.614
14901SOL    HW156331   1.479   0.920  18.573
14901SOL    HW256332   1.418   0.958  18.707
14902SOL     OW56333   3.116   3.721   0.492
14902SOL    HW156334   3.024   3.744   0.506
14902SOL    HW256335   3.114   3.656   0.422
14903SOL     OW56336   1.055   2.917   1.993
14903SOL    HW156337   1.132   2.897   2.046
14903SOL    HW256338   1.010   2.833   1.984
14904SOL     OW56339   2.520   3.515  18.761
14904SOL    HW156340   2.559   3.510  18.674
14904SOL    HW256341   2.514   3.608  18.780
14905SOL     OW56342   3.495   4.626  22.092
14905SOL    HW156343   3.520   4.710  22.131
14905SOL    HW256344   3.519   4.561  22.158
14906SOL     OW56345   1.655   4.468  23.331
14906SOL    HW156346   1.685   4.462  23.241
14906SOL    HW256347   1.725   4.429  23.383
14907SOL     OW56348   2.559   4.055  25.397
14907SOL    HW156349   2.545   3.969  25.357
14907SOL    HW256350   2.471   4.085  25.420
14908SOL     OW56351   2.441   2.466  27.123
14908SOL    HW156352   2.435   2.407  27.198
14908SOL    HW256353   2.355   2.462  27.082
14909SOL     OW56354   3.392   1.786   2.661
14909SOL    HW156355   3.424   1.779   2.751
14909SOL    HW256356   3.341   1.706   2.647
14910SOL     OW56357   2.282   0.385   5.014
14910SOL    HW156358   2.193   0.394   4.981
14910SOL    HW256359   2.300   0.290   5.011
14911SOL     OW56360   1.182   0.368  26.345
14911SOL    HW156361   1.229   0.309  26.405
14911SOL    HW256362   1.234   0.448  26.344
14912SOL     OW56363   1.023   4.638   4.589
14912SOL    HW156364   1.081   4.708   4.619
14912SOL    HW256365   0.972   4.615   4.667
14913SOL     OW56366   1.524   1.174  21.204
14913SOL    HW156367   1.492   1.116  21.273
14913SOL    HW256368   1.566   1.116  21.141
14914SOL     OW56369   0.818   2.352   9.159
14914SOL    HW156370   0.811   2.267   9.203
14914SOL    HW256371   0.802   2.333   9.067
14915SOL     OW56372   4.771   3.067   5.283
14915SOL    HW156373   4.693   3.064   5.339
14915SOL    HW256374   4.735   3.070   5.194
14916SOL     OW56375   0.800   2.724  22.550
14916SOL    HW156376   0.759   2.709  22.464
14916SOL    HW256377   0.783   2.643  22.598
14917SOL     OW56378   3.909   3.347  17.226
14917SOL    HW156379   3.820   3.323  17.252
14917SOL    HW256380   3.919   3.438  17.253
14918SOL     OW56381   1.738   0.058   0.791
14918SOL    HW156382   1.645   0.038   0.789
14918SOL    HW256383   1.756   0.078   0.883
14919SOL     OW56384   4.457   3.581  22.670
14919SOL    HW156385   4.403   3.525  22.727
14919SOL    HW256386   4.507   3.520  22.617
14920SOL     OW56387   1.722   3.241  23.917
14920SOL    HW156388   1.658   3.221  23.848
14920SOL    HW256389   1.765   3.158  23.935
14921SOL     OW56390   0.338   3.035   7.957
14921SOL    HW156391   0.403   3.105   7.946
14921SOL    HW256392   0.298   3.025   7.871
14922SOL     OW56393   4.070   4.704  27.120
14922SOL    HW156394   4.084   4.695  27.026
14922SOL    HW256395   3.979   4.677  27.133
14923SOL     OW56396   0.365   1.016  27.613
14923SOL    HW156397   0.458   1.031  27.629
14923SOL    HW256398   0.359   0.923  27.592
14924SOL     OW56399   3.540   1.089  26.783
14924SOL    HW156400   3.496   1.019  26.736
14924SOL    HW256401   3.624   1.100  26.737
14925SOL     OW56402   3.664   0.566   5.912
14925SOL    HW156403   3.658   0.642   5.854
14925SOL    HW256404   3.581   0.566   5.960
14926SOL     OW56405   1.653   0.679   5.597
14926SOL    HW156406   1.588   0.636   5.652
14926SOL    HW256407   1.735   0.636   5.619
14927SOL     OW56408   4.762   4.129   0.237
14927SOL    HW156409   4.674   4.098   0.256
14927SOL    HW256410   4.750   4.220   0.209
14928SOL     OW56411   0.690   0.862   5.366
14928SOL    HW156412   0.616   0.858   5.426
14928SOL    HW256413   0.766   0.841   5.421
14929SOL     OW56414   1.800   4.718  25.446
14929SOL    HW156415   1.779   4.739  25.537
14929SOL    HW256416   1.836   4.630  25.450
14930SOL     OW56417   3.621   1.053  19.537
14930SOL    HW156418   3.615   1.108  19.459
14930SOL    HW256419   3.705   1.008  19.529
14931SOL     OW56420   4.531   3.166  24.690
14931SOL    HW156421   4.502   3.085  24.731
14931SOL    HW256422   4.613   3.187  24.734
14932SOL     OW56423   2.536   4.638  22.157
14932SOL    HW156424   2.580   4.700  22.216
14932SOL    HW256425   2.455   4.616  22.203
14933SOL     OW56426   2.610   2.172  21.065
14933SOL    HW156427   2.657   2.220  20.997
14933SOL    HW256428   2.560   2.239  21.112
14934SOL     OW56429   4.551   3.342   5.471
14934SOL    HW156430   4.619   3.408   5.458
14934SOL    HW256431   4.541   3.301   5.385
14935SOL     OW56432   2.772   0.869   5.730
14935SOL    HW156433   2.786   0.960   5.702
14935SOL    HW256434   2.709   0.876   5.801
14936SOL     OW56435   2.133   2.816  26.778
14936SOL    HW156436   2.098   2.771  26.701
14936SOL    HW256437   2.221   2.778  26.788
14937SOL     OW56438   1.175   3.068  23.774
14937SOL    HW156439   1.179   3.150  23.724
14937SOL    HW256440   1.238   3.011  23.730
14938SOL     OW56441   4.099   4.075   7.762
14938SOL    HW156442   4.172   4.044   7.707
14938SOL    HW256443   4.046   4.127   7.702
14939SOL     OW56444   0.686   1.041  17.902
14939SOL    HW156445   0.741   1.019  17.977
14939SOL    HW256446   0.701   0.970  17.839
14940SOL     OW56447   3.833   3.530  27.648
14940SOL    HW156448   3.749   3.523  27.602
14940SOL    HW256449   3.899   3.529  27.579
14941SOL     OW56450   3.395   2.326   4.295
14941SOL    HW156451   3.400   2.234   4.268
14941SOL    HW256452   3.430   2.375   4.221
14942SOL     OW56453   2.035   0.650   1.454
14942SOL    HW156454   2.028   0.700   1.535
14942SOL    HW256455   1.950   0.609   1.443
14943SOL     OW56456   2.979   2.821   2.012
14943SOL    HW156457   2.926   2.776   2.077
14943SOL    HW256458   2.916   2.853   1.947
14944SOL     OW56459   1.950   4.409  18.441
14944SOL    HW156460   2.032   4.442  18.404
14944SOL    HW256461   1.886   4.422  18.371
14945SOL     OW56462   3.826   2.003   3.974
14945SOL    HW156463   3.869   1.918   3.985
14945SOL    HW256464   3.756   1.986   3.911
14946SOL     OW56465   2.915   3.387  19.559
14946SOL    HW156466   2.914   3.294  19.535
14946SOL    HW256467   2.840   3.425  19.513
14947SOL     OW56468   1.466   0.799  21.496
14947SOL    HW156469   1.502   0.750  21.422
14947SOL    HW256470   1.533   0.864  21.516
14948SOL     OW56471   1.300   3.159  19.370
14948SOL    HW156472   1.285   3.066  19.349
14948SOL    HW256473   1.238   3.206  19.315
14949SOL     OW56474   0.727   4.746  26.580
14949SOL    HW156475   0.652   0.010  26.619
14949SOL    HW256476   0.774   0.034  26.533
14950SOL     OW56477   3.558   0.072   4.419
14950SOL    HW156478   3.596   0.147   4.464
14950SOL    HW256479   3.620   0.052   4.348
14951SOL     OW56480   0.909   4.227  21.431
14951SOL    HW156481   0.927   4.166  21.359
14951SOL    HW256482   0.839   4.186  21.481
14952SOL     OW56483   2.732   1.427  20.008
14952SOL    HW156484   2.821   1.440  20.041
14952SOL    HW256485   2.676   1.452  20.081
14953SOL     OW56486   3.815   3.915  19.711
14953SOL    HW156487   3.744   3.977  19.730
14953SOL    HW256488   3.803   3.894  19.619
14954SOL     OW56489   1.618   3.455  10.469
14954SOL    HW156490   1.630   3.417  10.381
14954SOL    HW256491   1.651   3.544  10.461
14955SOL     OW56492   4.638   2.319   6.530
14955SOL    HW156493   4.585   2.282   6.459
14955SOL    HW256494   4.611   2.410   6.536
14956SOL     OW56495   0.096   3.516  26.432
14956SOL    HW156496   0.001   3.519  26.439
14956SOL    HW256497   0.127   3.595  26.475
14957SOL     OW56498   0.918   3.212  21.807
14957SOL    HW156499   0.965   3.130  21.789
14957SOL    HW256500   0.956   3.242  21.890
14958SOL     OW56501   1.012   0.528  27.456
14958SOL    HW156502   1.107   0.540  27.453
14958SOL    HW256503   0.994   0.467  27.385
14959SOL     OW56504   0.634   1.722   7.822
14959SOL    HW156505   0.719   1.732   7.864
14959SOL    HW256506   0.641   1.772   7.741
14960SOL     OW56507   1.789   0.420  26.366
14960SOL    HW156508   1.856   0.435  26.432
14960SOL    HW256509   1.765   0.329  26.376
14961SOL     OW56510   1.956   0.782  19.217
14961SOL    HW156511   1.863   0.760  19.224
14961SOL    HW256512   1.970   0.847  19.286
14962SOL     OW56513   2.393   4.715   8.541
14962SOL    HW156514   2.456   0.004   8.523
14962SOL    HW256515   2.316   4.738   8.489
14963SOL     OW56516   0.974   1.305   5.428
14963SOL    HW156517   0.948   1.299   5.520
14963SOL    HW256518   0.893   1.295   5.379
14964SOL     OW56519   2.795   0.258  19.378
14964SOL    HW156520   2.721   0.248  19.317
14964SOL    HW256521   2.851   0.183  19.359
14965SOL     OW56522   1.301   4.290   8.069
14965SOL    HW156523   1.253   4.210   8.089
14965SOL    HW256524   1.393   4.262   8.067
14966SOL     OW56525   1.999   1.362   8.896
14966SOL    HW156526   1.960   1.348   8.982
14966SOL    HW256527   2.047   1.282   8.878
14967SOL     OW56528   0.276   4.264   2.975
14967SOL    HW156529   0.199   4.222   3.013
14967SOL    HW256530   0.246   4.302   2.893
14968SOL     OW56531   0.619   2.348   5.437
14968SOL    HW156532   0.641   2.300   5.516
14968SOL    HW256533   0.537   2.394   5.458
14969SOL     OW56534   1.563   2.102   4.078
14969SOL    HW156535   1.491   2.113   4.016
14969SOL    HW256536   1.642   2.125   4.029
14970SOL     OW56537   3.529   4.425  22.260
14970SOL    HW156538   3.523   4.331  22.244
14970SOL    HW256539   3.601   4.434  22.322
14971SOL     OW56540   0.439   3.052   1.070
14971SOL    HW156541   0.420   3.102   0.991
14971SOL    HW256542   0.530   3.073   1.091
14972SOL     OW56543   4.014   2.001  27.854
14972SOL    HW156544   3.958   1.924  27.843
14972SOL    HW256545   4.009   2.021  27.948
14973SOL     OW56546   0.632   1.149  23.918
14973SOL    HW156547   0.627   1.240  23.889
14973SOL    HW256548   0.650   1.100  23.838
14974SOL     OW56549   4.684   4.749  24.311
14974SOL    HW156550   4.737   0.046  24.326
14974SOL    HW256551   4.608   4.760  24.368
14975SOL     OW56552   3.181   0.242   4.710
14975SOL    HW156553   3.240   0.167   4.706
14975SOL    HW256554   3.114   0.215   4.774
14976SOL     OW56555   3.425   0.778  26.146
14976SOL    HW156556   3.412   0.751  26.056
14976SOL    HW256557   3.351   0.837  26.165
14977SOL     OW56558   2.458   0.468   6.924
14977SOL    HW156559   2.544   0.481   6.884
14977SOL    HW256560   2.447   0.372   6.927
14978SOL     OW56561   3.295   2.947  28.086
14978SOL    HW156562   3.219   2.891  28.076
14978SOL    HW256563   3.263   3.023  28.133
14979SOL     OW56564   0.305   3.416  25.785
14979SOL    HW156565   0.246   3.484  25.818
14979SOL    HW256566   0.358   3.391  25.860
14980SOL     OW56567   1.468   4.589  27.480
14980SOL    HW156568   1.501   4.621  27.396
14980SOL    HW256569   1.413   4.514  27.457
14981SOL     OW56570   1.405   1.931   4.255
14981SOL    HW156571   1.449   1.882   4.325
14981SOL    HW256572   1.464   2.004   4.236
14982SOL     OW56573   3.119   1.473   3.645
14982SOL    HW156574   3.175   1.539   3.603
14982SOL    HW256575   3.037   1.519   3.664
14983SOL     OW56576   0.864   4.407  11.806
14983SOL    HW156577   0.934   4.376  11.864
14983SOL    HW256578   0.797   4.339  11.810
14984SOL     OW56579   4.174   0.575   1.728
14984SOL    HW156580   4.199   0.625   1.806
14984SOL    HW256581   4.078   0.577   1.729
14985SOL     OW56582   3.544   4.013   2.843
14985SOL    HW156583   3.461   3.978   2.875
14985SOL    HW256584   3.580   3.943   2.787
14986SOL     OW56585   3.291   3.826   7.585
14986SOL    HW156586   3.279   3.848   7.492
14986SOL    HW256587   3.204   3.834   7.623
14987SOL     OW56588   1.980   4.092  22.122
14987SOL    HW156589   2.002   4.098  22.215
14987SOL    HW256590   2.027   4.014  22.092
14988SOL     OW56591   3.035   4.717  19.082
14988SOL    HW156592   2.998   4.634  19.051
14988SOL    HW256593   2.968   0.001  19.063
14989SOL     OW56594   0.664   0.557  28.258
14989SOL    HW156595   0.677   0.620  28.328
14989SOL    HW256596   0.619   0.605  28.189
14990SOL     OW56597   3.195   0.361   8.683
14990SOL    HW156598   3.241   0.283   8.652
14990SOL    HW256599   3.129   0.328   8.743
14991SOL     OW56600   3.978   2.597  27.297
14991SOL    HW156601   4.014   2.679  27.330
14991SOL    HW256602   3.929   2.560  27.370
14992SOL     OW56603   3.903   0.407  25.982
14992SOL    HW156604   3.817   0.375  25.952
14992SOL    HW256605   3.937   0.456  25.907
14993SOL     OW56606   1.206   1.106  19.908
14993SOL    HW156607   1.301   1.109  19.920
14993SOL    HW256608   1.183   1.192  19.874
14994SOL     OW56609   2.338   2.533  23.499
14994SOL    HW156610   2.294   2.455  23.466
14994SOL    HW256611   2.268   2.586  23.537
14995SOL     OW56612   4.711   1.015   3.698
14995SOL    HW156613   4.668   0.984   3.778
14995SOL    HW256614   4.738   0.934   3.653
14996SOL     OW56615   0.338   1.313   8.951
14996SOL    HW156616   0.419   1.298   8.902
14996SOL    HW256617   0.270   1.269   8.900
14997SOL     OW56618   2.586   2.904  26.550
14997SOL    HW156619   2.639   2.984  26.543
14997SOL    HW256620   2.595   2.877  26.641
14998SOL     OW56621   3.845   2.611   3.287
14998SOL    HW156622   3.874   2.663   3.362
14998SOL    HW256623   3.915   2.546   3.275
14999SOL     OW56624   3.137   0.435   6.540
14999SOL    HW156625   3.190   0.427   6.619
14999SOL    HW256626   3.047   0.436   6.571
15000SOL     OW56627   2.315   1.458   3.431
15000SOL    HW156628   2.348   1.510   3.504
15000SOL    HW256629   2.226   1.490   3.417
15001SOL     OW56630   1.519   1.381  24.792
15001SOL    HW156631   1.539   1.409  24.702
15001SOL    HW256632   1.460   1.307  24.781
15002SOL     OW56633   2.712   4.514  23.173
15002SOL    HW156634   2.724   4.576  23.244
15002SOL    HW256635   2.677   4.435  23.215
15003SOL     OW56636   0.032   3.503   2.412
15003SOL    HW156637   0.125   3.526   2.404
15003SOL    HW256638   0.024   3.466   2.500
15004SOL     OW56639   0.915   0.344  26.803
15004SOL    HW156640   0.965   0.262  26.810
15004SOL    HW256641   0.865   0.348  26.884
15005SOL     OW56642   2.106   3.889  25.067
15005SOL    HW156643   2.153   3.949  25.009
15005SOL    HW256644   2.048   3.945  25.118
15006SOL     OW56645   3.843   0.026   0.599
15006SOL    HW156646   3.892   0.082   0.659
15006SOL    HW256647   3.786   0.087   0.551
15007SOL     OW56648   3.532   1.626   2.904
15007SOL    HW156649   3.609   1.674   2.934
15007SOL    HW256650   3.567   1.552   2.855
15008SOL     OW56651   1.464   0.914   1.699
15008SOL    HW156652   1.550   0.902   1.659
15008SOL    HW256653   1.471   0.999   1.743
15009SOL     OW56654   1.552   1.936   8.167
15009SOL    HW156655   1.496   1.859   8.160
15009SOL    HW256656   1.639   1.901   8.189
15010SOL     OW56657   3.072   1.123   9.682
15010SOL    HW156658   3.151   1.138   9.733
15010SOL    HW256659   3.009   1.187   9.715
15011SOL     OW56660   4.311   2.853  20.028
15011SOL    HW156661   4.228   2.890  19.997
15011SOL    HW256662   4.321   2.773  19.976
15012SOL     OW56663   4.335   1.293   7.352
15012SOL    HW156664   4.414   1.280   7.300
15012SOL    HW256665   4.286   1.360   7.304
15013SOL     OW56666   4.131   1.885  18.703
15013SOL    HW156667   4.099   1.918  18.787
15013SOL    HW256668   4.130   1.790  18.712
15014SOL     OW56669   1.996   3.046  21.572
15014SOL    HW156670   2.079   3.012  21.604
15014SOL    HW256671   1.979   3.123  21.626
15015SOL     OW56672   0.335   2.526  24.140
15015SOL    HW156673   0.244   2.550  24.151
15015SOL    HW256674   0.358   2.555  24.052
15016SOL     OW56675   2.610   2.326   2.685
15016SOL    HW156676   2.585   2.373   2.764
15016SOL    HW256677   2.676   2.382   2.644
15017SOL     OW56678   4.723   0.394   4.650
15017SOL    HW156679   4.677   0.467   4.610
15017SOL    HW256680   4.740   0.333   4.578
15018SOL     OW56681   0.967   1.140  27.250
15018SOL    HW156682   1.039   1.145  27.187
15018SOL    HW256683   0.892   1.177  27.204
15019SOL     OW56684   2.260   4.734   9.709
15019SOL    HW156685   2.186   4.774   9.662
15019SOL    HW256686   2.285   0.019   9.774
15020SOL     OW56687   0.787   3.733  27.461
15020SOL    HW156688   0.804   3.686  27.543
15020SOL    HW256689   0.724   3.800  27.485
15021SOL     OW56690   1.039   4.128   3.930
15021SOL    HW156691   1.000   4.174   3.855
15021SOL    HW256692   0.967   4.119   3.993
15022SOL     OW56693   1.366   3.726  20.555
15022SOL    HW156694   1.366   3.630  20.564
15022SOL    HW256695   1.407   3.757  20.635
15023SOL     OW56696   0.149   2.807   6.829
15023SOL    HW156697   0.183   2.722   6.855
15023SOL    HW256698   0.071   2.820   6.883
15024SOL     OW56699   2.169   0.288   1.870
15024SOL    HW156700   2.223   0.216   1.838
15024SOL    HW256701   2.211   0.367   1.835
15025SOL     OW56702   1.250   1.854   1.256
15025SOL    HW156703   1.192   1.883   1.326
15025SOL    HW256704   1.229   1.911   1.182
15026SOL     OW56705   0.455   1.965  21.579
15026SOL    HW156706   0.496   1.879  21.591
15026SOL    HW256707   0.368   1.956  21.619
15027SOL     OW56708   4.165   0.933  26.541
15027SOL    HW156709   4.171   0.857  26.599
15027SOL    HW256710   4.184   1.008  26.597
15028SOL     OW56711   4.184   4.313   5.860
15028SOL    HW156712   4.229   4.266   5.790
15028SOL    HW256713   4.254   4.361   5.904
15029SOL     OW56714   0.704   1.887  18.077
15029SOL    HW156715   0.695   1.799  18.116
15029SOL    HW256716   0.626   1.934  18.107
15030SOL     OW56717   1.072   2.871   8.632
15030SOL    HW156718   1.159   2.867   8.592
15030SOL    HW256719   1.084   2.925   8.710
15031SOL     OW56720   1.351   3.660   1.006
15031SOL    HW156721   1.327   3.714   0.930
15031SOL    HW256722   1.380   3.723   1.072
15032SOL     OW56723   2.391   1.658   5.345
15032SOL    HW156724   2.325   1.618   5.288
15032SOL    HW256725   2.340   1.700   5.414
15033SOL     OW56726   4.676   0.043   7.011
15033SOL    HW156727   4.682   0.057   7.106
15033SOL    HW256728   4.721   0.117   6.972
15034SOL     OW56729   0.094   3.883   9.290
15034SOL    HW156730   0.035   3.881   9.366
15034SOL    HW256731   0.059   3.951   9.233
15035SOL     OW56732   2.375   1.383   8.558
15035SOL    HW156733   2.448   1.378   8.496
15035SOL    HW256734   2.360   1.293   8.585
15036SOL     OW56735   1.730   1.570  23.634
15036SOL    HW156736   1.657   1.531  23.681
15036SOL    HW256737   1.696   1.654  23.603
15037SOL     OW56738   1.094   3.576   8.430
15037SOL    HW156739   1.034   3.622   8.370
15037SOL    HW256740   1.141   3.646   8.475
15038SOL     OW56741   0.117   2.621   2.104
15038SOL    HW156742   0.101   2.633   2.011
15038SOL    HW256743   0.212   2.607   2.110
15039SOL     OW56744   0.095   0.017   3.465
15039SOL    HW156745   0.086   0.101   3.421
15039SOL    HW256746   0.183   0.019   3.504
15040SOL     OW56747   1.586   1.839  20.137
15040SOL    HW156748   1.503   1.885  20.149
15040SOL    HW256749   1.593   1.782  20.214
15041SOL     OW56750   0.824   3.851  26.434
15041SOL    HW156751   0.856   3.942  26.438
15041SOL    HW256752   0.772   3.848  26.354
15042SOL     OW56753   1.543   0.745  28.338
15042SOL    HW156754   1.601   0.707  28.404
15042SOL    HW256755   1.472   0.785  28.388
15043SOL     OW56756   2.840   1.818   0.036
15043SOL    HW156757   2.779   1.871  28.508
15043SOL    HW256758   2.795   1.734   0.048
15044SOL     OW56759   3.380   2.543  22.260
15044SOL    HW156760   3.402   2.603  22.332
15044SOL    HW256761   3.458   2.545  22.203
15045SOL     OW56762   1.282   3.024  25.404
15045SOL    HW156763   1.371   3.037  25.435
15045SOL    HW256764   1.292   2.991  25.315
15046SOL     OW56765   4.639   0.775  25.002
15046SOL    HW156766   4.662   0.748  24.913
15046SOL    HW256767   4.707   0.837  25.027
15047SOL     OW56768   3.515   1.671   9.250
15047SOL    HW156769   3.609   1.662   9.240
15047SOL    HW256770   3.484   1.584   9.275
15048SOL     OW56771   1.355   1.676   5.359
15048SOL    HW156772   1.402   1.607   5.313
15048SOL    HW256773   1.420   1.745   5.373
15049SOL     OW56774   2.007   0.103   5.606
15049SOL    HW156775   1.916   0.129   5.621
15049SOL    HW256776   2.002   0.008   5.590
15050SOL     OW56777   2.990   3.458   9.406
15050SOL    HW156778   2.995   3.503   9.321
15050SOL    HW256779   3.077   3.421   9.419
15051SOL     OW56780   1.170   2.841   4.822
15051SOL    HW156781   1.100   2.792   4.865
15051SOL    HW256782   1.165   2.813   4.730
15052SOL     OW56783   3.624   4.139   6.004
15052SOL    HW156784   3.667   4.091   6.075
15052SOL    HW256785   3.575   4.208   6.048
15053SOL     OW56786   2.852   2.182   4.969
15053SOL    HW156787   2.817   2.095   4.985
15053SOL    HW256788   2.852   2.192   4.874
15054SOL     OW56789   3.279   0.455   5.794
15054SOL    HW156790   3.336   0.462   5.870
15054SOL    HW256791   3.337   0.432   5.722
15055SOL     OW56792   3.343   4.133   6.339
15055SOL    HW156793   3.418   4.073   6.341
15055SOL    HW256794   3.270   4.081   6.372
15056SOL     OW56795   1.978   3.435  20.080
15056SOL    HW156796   2.059   3.466  20.039
15056SOL    HW256797   1.942   3.371  20.018
15057SOL     OW56798   0.973   0.580  10.015
15057SOL    HW156799   1.045   0.568   9.953
15057SOL    HW256800   0.924   0.497  10.012
15058SOL     OW56801   4.477   2.708  21.418
15058SOL    HW156802   4.520   2.743  21.496
15058SOL    HW256803   4.434   2.783  21.377
15059SOL     OW56804   2.327   3.476  20.314
15059SOL    HW156805   2.363   3.399  20.272
15059SOL    HW256806   2.260   3.508  20.254
15060SOL     OW56807   4.474   0.164   1.482
15060SOL    HW156808   4.518   0.129   1.405
15060SOL    HW256809   4.424   0.239   1.449
15061SOL     OW56810   2.898   2.550   6.019
15061SOL    HW156811   2.907   2.611   6.092
15061SOL    HW256812   2.967   2.485   6.034
15062SOL     OW56813   1.791   3.758   8.524
15062SOL    HW156814   1.876   3.715   8.533
15062SOL    HW256815   1.810   3.840   8.478
15063SOL     OW56816   4.572   4.052   6.088
15063SOL    HW156817   4.642   3.990   6.065
15063SOL    HW256818   4.494   4.015   6.048
15064SOL     OW56819   0.875   1.484  18.128
15064SOL    HW156820   0.829   1.460  18.048
15064SOL    HW256821   0.809   1.474  18.197
15065SOL     OW56822   2.277   1.819  21.562
15065SOL    HW156823   2.332   1.877  21.509
15065SOL    HW256824   2.240   1.875  21.630
15066SOL     OW56825   4.441   1.278   0.884
15066SOL    HW156826   4.516   1.328   0.918
15066SOL    HW256827   4.422   1.214   0.952
15067SOL     OW56828   1.754   3.791  23.373
15067SOL    HW156829   1.805   3.782  23.454
15067SOL    HW256830   1.722   3.703  23.355
15068SOL     OW56831   4.325   1.696  17.451
15068SOL    HW156832   4.338   1.626  17.515
15068SOL    HW256833   4.392   1.679  17.384
15069SOL     OW56834   3.982   1.946   5.398
15069SOL    HW156835   3.971   1.908   5.311
15069SOL    HW256836   3.976   2.041   5.384
15070SOL     OW56837   3.234   4.272  26.528
15070SOL    HW156838   3.291   4.342  26.496
15070SOL    HW256839   3.175   4.315  26.590
15071SOL     OW56840   1.819   3.032   4.350
15071SOL    HW156841   1.901   3.081   4.354
15071SOL    HW256842   1.760   3.087   4.298
15072SOL     OW56843   4.376   0.956   6.054
15072SOL    HW156844   4.367   1.003   6.136
15072SOL    HW256845   4.297   0.979   6.005
15073SOL     OW56846   0.916   0.943   9.145
15073SOL    HW156847   1.009   0.964   9.144
15073SOL    HW256848   0.877   1.005   9.082
15074SOL     OW56849   0.444   2.376  10.086
15074SOL    HW156850   0.354   2.386  10.119
15074SOL    HW256851   0.465   2.462  10.050
15075SOL     OW56852   4.488   3.432   7.457
15075SOL    HW156853   4.552   3.383   7.509
15075SOL    HW256854   4.425   3.366   7.429
15076SOL     OW56855   4.559   1.446  17.496
15076SOL    HW156856   4.596   1.504  17.563
15076SOL    HW256857   4.561   1.498  17.416
15077SOL     OW56858   1.734   3.058   6.688
15077SOL    HW156859   1.824   3.030   6.701
15077SOL    HW256860   1.727   3.075   6.594
15078SOL     OW56861   1.465   4.175  28.416
15078SOL    HW156862   1.522   4.192  28.342
15078SOL    HW256863   1.524   4.152  28.488
15079SOL     OW56864   4.368   0.419  26.911
15079SOL    HW156865   4.358   0.412  26.816
15079SOL    HW256866   4.310   0.491  26.936
15080SOL     OW56867   1.745   3.004  25.063
15080SOL    HW156868   1.808   2.954  25.010
15080SOL    HW256869   1.800   3.049  25.128
15081SOL     OW56870   0.436   4.470   4.265
15081SOL    HW156871   0.472   4.382   4.254
15081SOL    HW256872   0.341   4.458   4.256
15082SOL     OW56873   1.599   0.500  21.126
15082SOL    HW156874   1.678   0.491  21.073
15082SOL    HW256875   1.534   0.445  21.082
15083SOL     OW56876   2.867   4.296  25.852
15083SOL    HW156877   2.778   4.312  25.883
15083SOL    HW256878   2.917   4.275  25.930
15084SOL     OW56879   0.960   2.094   2.941
15084SOL    HW156880   0.996   2.025   2.885
15084SOL    HW256881   0.868   2.071   2.952
15085SOL     OW56882   2.775   3.756   3.933
15085SOL    HW156883   2.708   3.736   3.867
15085SOL    HW256884   2.745   3.838   3.973
15086SOL     OW56885   3.707   4.361   1.122
15086SOL    HW156886   3.656   4.440   1.143
15086SOL    HW256887   3.786   4.395   1.080
15087SOL     OW56888   1.529   4.310   8.854
15087SOL    HW156889   1.457   4.373   8.851
15087SOL    HW256890   1.547   4.299   8.947
15088SOL     OW56891   0.589   1.349   2.637
15088SOL    HW156892   0.621   1.438   2.649
15088SOL    HW256893   0.494   1.358   2.630
15089SOL     OW56894   4.071   3.307  24.845
15089SOL    HW156895   4.135   3.274  24.782
15089SOL    HW256896   4.120   3.370  24.898
15090SOL     OW56897   3.260   0.463   2.589
15090SOL    HW156898   3.289   0.538   2.641
15090SOL    HW256899   3.265   0.494   2.498
15091SOL     OW56900   1.128   4.010  22.587
15091SOL    HW156901   1.064   3.966  22.643
15091SOL    HW256902   1.134   3.956  22.509
15092SOL     OW56903   2.938   0.923   2.319
15092SOL    HW156904   2.845   0.925   2.299
15092SOL    HW256905   2.948   0.981   2.394
15093SOL     OW56906   3.040   4.663   5.662
15093SOL    HW156907   3.019   4.727   5.730
15093SOL    HW256908   3.016   4.707   5.580
15094SOL     OW56909   0.977   1.024  24.668
15094SOL    HW156910   1.019   1.095  24.619
15094SOL    HW256911   0.923   1.069  24.734
15095SOL     OW56912   1.781   3.210  26.693
15095SOL    HW156913   1.707   3.255  26.651
15095SOL    HW256914   1.853   3.272  26.689
15096SOL     OW56915   4.608   3.172  26.366
15096SOL    HW156916   4.542   3.241  26.374
15096SOL    HW256917   4.564   3.102  26.318
15097SOL     OW56918   0.720   4.470   6.669
15097SOL    HW156919   0.758   4.517   6.594
15097SOL    HW256920   0.718   4.378   6.640
15098SOL     OW56921   2.026   3.475   5.510
15098SOL    HW156922   2.085   3.426   5.453
15098SOL    HW256923   2.085   3.524   5.568
15099SOL     OW56924   4.559   4.760  27.172
15099SOL    HW156925   4.523   4.680  27.135
15099SOL    HW256926   4.488   0.043  27.167
15100SOL     OW56927   4.407   0.318   8.945
15100SOL    HW156928   4.448   0.388   8.995
15100SOL    HW256929   4.448   0.238   8.977
15101SOL     OW56930   0.910   4.757   4.376
15101SOL    HW156931   0.868   4.682   4.335
15101SOL    HW256932   0.951   4.722   4.455
15102SOL     OW56933   1.834   2.132   6.928
15102SOL    HW156934   1.803   2.100   7.013
15102SOL    HW256935   1.843   2.226   6.939
15103SOL     OW56936   1.747   2.193   9.381
15103SOL    HW156937   1.694   2.272   9.394
15103SOL    HW256938   1.822   2.222   9.330
15104SOL     OW56939   3.650   2.967  22.235
15104SOL    HW156940   3.569   2.976  22.285
15104SOL    HW256941   3.691   3.053  22.241
15105SOL     OW56942   0.871   2.712  28.153
15105SOL    HW156943   0.787   2.683  28.117
15105SOL    HW256944   0.869   2.807  28.142
15106SOL     OW56945   2.425   3.226  27.142
15106SOL    HW156946   2.381   3.213  27.057
15106SOL    HW256947   2.353   3.240  27.204
15107SOL     OW56948   4.726   3.369  21.733
15107SOL    HW156949   0.027   3.332  21.701
15107SOL    HW256950   4.715   3.450  21.682
15108SOL     OW56951   2.808   1.311  24.090
15108SOL    HW156952   2.775   1.267  24.011
15108SOL    HW256953   2.783   1.402  24.079
15109SOL     OW56954   2.200   1.560  18.546
15109SOL    HW156955   2.171   1.569  18.637
15109SOL    HW256956   2.122   1.531  18.499
15110SOL     OW56957   0.278   3.052  18.923
15110SOL    HW156958   0.283   3.053  18.827
15110SOL    HW256959   0.199   3.101  18.944
15111SOL     OW56960   4.167   2.498   4.230
15111SOL    HW156961   4.183   2.452   4.312
15111SOL    HW256962   4.127   2.581   4.256
15112SOL     OW56963   0.111   2.315  20.667
15112SOL    HW156964   0.026   2.274  20.650
15112SOL    HW256965   0.132   2.361  20.586
15113SOL     OW56966   0.644   2.709   9.081
15113SOL    HW156967   0.563   2.667   9.111
15113SOL    HW256968   0.672   2.656   9.005
15114SOL     OW56969   1.576   2.578  10.615
15114SOL    HW156970   1.485   2.586  10.643
15114SOL    HW256971   1.580   2.493  10.571
15115SOL     OW56972   2.172   3.525  10.039
15115SOL    HW156973   2.093   3.521  10.093
15115SOL    HW256974   2.145   3.492   9.954
15116SOL     OW56975   3.720   0.693  16.233
15116SOL    HW156976   3.681   0.780  16.222
15116SOL    HW256977   3.808   0.701  16.196
15117SOL     OW56978   2.425   4.105   6.901
15117SOL    HW156979   2.346   4.145   6.864
15117SOL    HW256980   2.437   4.025   6.850
15118SOL     OW56981   3.502   1.066   7.104
15118SOL    HW156982   3.592   1.065   7.137
15118SOL    HW256983   3.493   0.983   7.057
15119SOL     OW56984   1.354   3.414  11.170
15119SOL    HW156985   1.260   3.399  11.179
15119SOL    HW256986   1.384   3.435  11.259
15120SOL     OW56987   2.522   2.189  26.349
15120SOL    HW156988   2.575   2.237  26.413
15120SOL    HW256989   2.437   2.233  26.351
15121SOL     OW56990   1.794   4.690  10.328
15121SOL    HW156991   1.734   4.675  10.401
15121SOL    HW256992   1.880   4.699  10.369
15122SOL     OW56993   1.188   0.216   5.976
15122SOL    HW156994   1.152   0.268   6.047
15122SOL    HW256995   1.271   0.258   5.955
15123SOL     OW56996   3.573   3.964  21.506
15123SOL    HW156997   3.648   3.988  21.560
15123SOL    HW256998   3.497   3.995  21.555
15124SOL     OW56999   0.662   3.623  24.303
15124SOL    HW157000   0.675   3.702  24.354
15124SOL    HW257001   0.621   3.653  24.222
15125SOL     OW57002   0.388   3.593  24.779
15125SOL    HW157003   0.315   3.638  24.736
15125SOL    HW257004   0.428   3.660  24.835
15126SOL     OW57005   0.518   2.337   0.995
15126SOL    HW157006   0.513   2.421   0.950
15126SOL    HW257007   0.441   2.289   0.965
15127SOL     OW57008   1.121   2.090   4.316
15127SOL    HW157009   1.049   2.066   4.257
15127SOL    HW257010   1.195   2.035   4.287
15128SOL     OW57011   0.153   3.897   9.610
15128SOL    HW157012   0.108   3.826   9.564
15128SOL    HW257013   0.225   3.922   9.552
15129SOL     OW57014   4.509   4.595   5.439
15129SOL    HW157015   4.566   4.531   5.396
15129SOL    HW257016   4.451   4.627   5.370
15130SOL     OW57017   2.254   4.703   1.563
15130SOL    HW157018   2.163   4.691   1.589
15130SOL    HW257019   2.262   4.655   1.481
15131SOL     OW57020   1.275   2.296   9.226
15131SOL    HW157021   1.370   2.311   9.227
15131SOL    HW257022   1.237   2.383   9.216
15132SOL     OW57023   0.825   0.302   4.960
15132SOL    HW157024   0.786   0.387   4.978
15132SOL    HW257025   0.904   0.299   5.014
15133SOL     OW57026   0.550   1.841   2.927
15133SOL    HW157027   0.569   1.880   2.842
15133SOL    HW257028   0.614   1.770   2.935
15134SOL     OW57029   4.455   3.204  19.227
15134SOL    HW157030   4.541   3.238  19.203
15134SOL    HW257031   4.405   3.282  19.254
15135SOL     OW57032   0.938   1.228   9.390
15135SOL    HW157033   0.867   1.177   9.429
15135SOL    HW257034   1.017   1.196   9.432
15136SOL     OW57035   2.954   0.879   0.216
15136SOL    HW157036   2.996   0.944   0.160
15136SOL    HW257037   3.023   0.848   0.274
15137SOL     OW57038   4.644   0.975  10.246
15137SOL    HW157039   4.594   0.894  10.261
15137SOL    HW257040   4.590   1.026  10.186
15138SOL     OW57041   2.423   2.819   9.306
15138SOL    HW157042   2.348   2.774   9.267
15138SOL    HW257043   2.479   2.842   9.232
15139SOL     OW57044   2.956   1.184  24.879
15139SOL    HW157045   2.996   1.107  24.918
15139SOL    HW257046   3.009   1.257  24.910
15140SOL     OW57047   2.385   0.782   9.473
15140SOL    HW157048   2.317   0.828   9.424
15140SOL    HW257049   2.398   0.835   9.552
15141SOL     OW57050   4.038   3.059  28.143
15141SOL    HW157051   4.079   3.131  28.192
15141SOL    HW257052   4.071   2.980  28.186
15142SOL     OW57053   0.920   0.115   3.490
15142SOL    HW157054   1.012   0.106   3.516
15142SOL    HW257055   0.912   0.206   3.463
15143SOL     OW57056   2.877   0.204   5.008
15143SOL    HW157057   2.874   0.162   4.923
15143SOL    HW257058   2.881   0.298   4.989
15144SOL     OW57059   4.616   2.014   5.461
15144SOL    HW157060   4.593   2.024   5.368
15144SOL    HW257061   4.703   2.052   5.468
15145SOL     OW57062   1.626   0.071   3.625
15145SOL    HW157063   1.581   0.098   3.544
15145SOL    HW257064   1.693   0.138   3.638
15146SOL     OW57065   3.310   0.889   2.681
15146SOL    HW157066   3.296   0.857   2.591
15146SOL    HW257067   3.302   0.984   2.675
15147SOL     OW57068   4.619   2.701  16.953
15147SOL    HW157069   4.611   2.753  16.873
15147SOL    HW257070   4.641   2.613  16.923
15148SOL     OW57071   1.744   1.454  21.994
15148SOL    HW157072   1.833   1.426  22.017
15148SOL    HW257073   1.755   1.543  21.960
15149SOL     OW57074   3.985   0.892  21.421
15149SOL    HW157075   3.942   0.974  21.446
15149SOL    HW257076   4.077   0.906  21.441
15150SOL     OW57077   2.266   1.953  24.461
15150SOL    HW157078   2.297   1.937  24.372
15150SOL    HW257079   2.225   1.870  24.488
15151SOL     OW57080   0.301   1.790  20.437
15151SOL    HW157081   0.245   1.712  20.434
15151SOL    HW257082   0.301   1.822  20.347
15152SOL     OW57083   2.555   3.774   3.632
15152SOL    HW157084   2.515   3.748   3.715
15152SOL    HW257085   2.499   3.735   3.565
15153SOL     OW57086   0.717   1.043   0.685
15153SOL    HW157087   0.678   1.029   0.771
15153SOL    HW257088   0.679   1.125   0.655
15154SOL     OW57089   2.545   4.244  27.036
15154SOL    HW157090   2.559   4.338  27.051
15154SOL    HW257091   2.450   4.236  27.028
15155SOL     OW57092   3.993   3.318  23.769
15155SOL    HW157093   4.079   3.276  23.775
15155SOL    HW257094   4.011   3.411  23.779
15156SOL     OW57095   0.502   3.199   3.699
15156SOL    HW157096   0.452   3.153   3.631
15156SOL    HW257097   0.556   3.261   3.650
15157SOL     OW57098   1.983   4.259  18.727
15157SOL    HW157099   1.991   4.302  18.641
15157SOL    HW257100   2.039   4.310  18.785
15158SOL     OW57101   0.813   3.882  20.102
15158SOL    HW157102   0.834   3.831  20.023
15158SOL    HW257103   0.848   3.830  20.174
15159SOL     OW57104   3.829   2.828   0.749
15159SOL    HW157105   3.752   2.797   0.701
15159SOL    HW257106   3.891   2.854   0.681
15160SOL     OW57107   2.068   0.101  26.944
15160SOL    HW157108   1.995   0.162  26.950
15160SOL    HW257109   2.029   0.017  26.921
15161SOL     OW57110   3.263   2.861  20.079
15161SOL    HW157111   3.242   2.772  20.051
15161SOL    HW257112   3.178   2.901  20.097
15162SOL     OW57113   3.040   1.113  23.041
15162SOL    HW157114   3.054   1.169  22.964
15162SOL    HW257115   2.987   1.167  23.100
15163SOL     OW57116   3.016   3.252   6.120
15163SOL    HW157117   2.983   3.283   6.035
15163SOL    HW257118   3.050   3.165   6.102
15164SOL     OW57119   2.404   3.253  18.778
15164SOL    HW157120   2.467   3.214  18.839
15164SOL    HW257121   2.430   3.344  18.771
15165SOL     OW57122   4.299   0.354   6.926
15165SOL    HW157123   4.295   0.405   6.845
15165SOL    HW257124   4.227   0.292   6.919
15166SOL     OW57125   2.012   0.914   1.885
15166SOL    HW157126   1.993   0.936   1.977
15166SOL    HW257127   2.078   0.978   1.859
15167SOL     OW57128   4.136   1.339   2.761
15167SOL    HW157129   4.144   1.246   2.781
15167SOL    HW257130   4.184   1.350   2.679
15168SOL     OW57131   2.897   3.227   1.059
15168SOL    HW157132   2.890   3.258   1.149
15168SOL    HW257133   2.816   3.255   1.017
15169SOL     OW57134   1.606   3.755  16.776
15169SOL    HW157135   1.585   3.679  16.722
15169SOL    HW257136   1.540   3.753  16.845
15170SOL     OW57137   4.729   3.566  27.199
15170SOL    HW157138   4.675   3.605  27.268
15170SOL    HW257139   0.024   3.624  27.193
15171SOL     OW57140   1.820   2.130   6.529
15171SOL    HW157141   1.806   2.082   6.447
15171SOL    HW257142   1.829   2.061   6.596
15172SOL     OW57143   2.987   3.583  27.744
15172SOL    HW157144   2.987   3.662  27.799
15172SOL    HW257145   2.950   3.515  27.801
15173SOL     OW57146   2.628   2.102  22.929
15173SOL    HW157147   2.722   2.118  22.924
15173SOL    HW257148   2.595   2.124  22.842
15174SOL     OW57149   0.810   3.961   9.360
15174SOL    HW157150   0.813   3.925   9.272
15174SOL    HW257151   0.727   4.009   9.364
15175SOL     OW57152   2.635   2.180  21.424
15175SOL    HW157153   2.718   2.135  21.441
15175SOL    HW257154   2.650   2.230  21.344
15176SOL     OW57155   1.553   3.679  24.985
15176SOL    HW157156   1.511   3.619  24.924
15176SOL    HW257157   1.491   3.685  25.059
15177SOL     OW57158   4.118   1.185   3.114
15177SOL    HW157159   4.187   1.133   3.073
15177SOL    HW257160   4.150   1.275   3.110
15178SOL     OW57161   2.164   0.904   9.334
15178SOL    HW157162   2.163   0.859   9.249
15178SOL    HW257163   2.083   0.955   9.336
15179SOL     OW57164   1.563   1.138  22.840
15179SOL    HW157165   1.644   1.117  22.793
15179SOL    HW257166   1.590   1.201  22.906
15180SOL     OW57167   1.816   3.477  27.565
15180SOL    HW157168   1.760   3.554  27.580
15180SOL    HW257169   1.780   3.410  27.622
15181SOL     OW57170   1.056   3.287  26.851
15181SOL    HW157171   1.055   3.382  26.866
15181SOL    HW257172   1.071   3.278  26.757
15182SOL     OW57173   3.341   2.372   7.188
15182SOL    HW157174   3.377   2.306   7.248
15182SOL    HW257175   3.274   2.325   7.138
15183SOL     OW57176   1.084   0.323  22.245
15183SOL    HW157177   1.066   0.295  22.335
15183SOL    HW257178   1.140   0.400  22.255
15184SOL     OW57179   0.873   4.265  24.600
15184SOL    HW157180   0.875   4.241  24.692
15184SOL    HW257181   0.845   4.185  24.555
15185SOL     OW57182   2.626   0.723   8.777
15185SOL    HW157183   2.649   0.631   8.783
15185SOL    HW257184   2.707   0.767   8.753
15186SOL     OW57185   2.166   0.884  22.859
15186SOL    HW157186   2.236   0.823  22.836
15186SOL    HW257187   2.089   0.851  22.813
15187SOL     OW57188   0.377   2.473  26.074
15187SOL    HW157189   0.414   2.405  26.018
15187SOL    HW257190   0.282   2.456  26.074
15188SOL     OW57191   4.152   0.142  23.064
15188SOL    HW157192   4.133   0.056  23.100
15188SOL    HW257193   4.089   0.200  23.107
15189SOL     OW57194   1.118   2.211   8.271
15189SOL    HW157195   1.099   2.284   8.331
15189SOL    HW257196   1.100   2.133   8.322
15190SOL     OW57197   3.052   1.407  24.567
15190SOL    HW157198   3.016   1.327  24.529
15190SOL    HW257199   2.986   1.436  24.630
15191SOL     OW57200   3.460   1.127  17.144
15191SOL    HW157201   3.409   1.051  17.171
15191SOL    HW257202   3.439   1.138  17.051
15192SOL     OW57203   2.211   0.636   2.385
15192SOL    HW157204   2.198   0.578   2.461
15192SOL    HW257205   2.188   0.581   2.310
15193SOL     OW57206   4.498   1.402   7.878
15193SOL    HW157207   4.561   1.472   7.894
15193SOL    HW257208   4.467   1.418   7.789
15194SOL     OW57209   4.120   3.499  25.080
15194SOL    HW157210   4.208   3.508  25.043
15194SOL    HW257211   4.135   3.474  25.171
15195SOL     OW57212   0.469   0.870   0.110
15195SOL    HW157213   0.378   0.892   0.091
15195SOL    HW257214   0.468   0.840   0.201
15196SOL     OW57215   4.706   4.413  27.145
15196SOL    HW157216   4.776   4.366  27.099
15196SOL    HW257217   4.642   4.433  27.076
15197SOL     OW57218   4.236   1.370  20.123
15197SOL    HW157219   4.229   1.423  20.044
15197SOL    HW257220   4.302   1.304  20.101
15198SOL     OW57221   4.413   3.461  17.955
15198SOL    HW157222   4.369   3.538  17.919
15198SOL    HW257223   4.503   3.468  17.923
15199SOL     OW57224   0.777   0.400  23.798
15199SOL    HW157225   0.775   0.473  23.860
15199SOL    HW257226   0.686   0.393  23.768
15200SOL     OW57227   1.751   1.150  22.634
15200SOL    HW157228   1.663   1.188  22.628
15200SOL    HW257229   1.777   1.136  22.543
15201SOL     OW57230   3.434   4.244   2.360
15201SOL    HW157231   3.366   4.177   2.370
15201SOL    HW257232   3.475   4.224   2.276
15202SOL     OW57233   1.540   3.402   9.610
15202SOL    HW157234   1.525   3.490   9.646
15202SOL    HW257235   1.506   3.408   9.520
15203SOL     OW57236   3.051   2.980   6.102
15203SOL    HW157237   2.959   2.955   6.100
15203SOL    HW257238   3.090   2.924   6.169
15204SOL     OW57239   3.962   2.694  27.592
15204SOL    HW157240   3.951   2.748  27.670
15204SOL    HW257241   3.980   2.756  27.521
15205SOL     OW57242   0.674   0.055   2.887
15205SOL    HW157243   0.743   0.094   2.942
15205SOL    HW257244   0.609   0.125   2.877
15206SOL     OW57245   4.389   2.536  19.788
15206SOL    HW157246   4.312   2.546  19.843
15206SOL    HW257247   4.361   2.479  19.717
15207SOL     OW57248   1.141   1.920  17.279
15207SOL    HW157249   1.235   1.921  17.299
15207SOL    HW257250   1.099   1.916  17.365
15208SOL     OW57251   3.580   3.889  26.716
15208SOL    HW157252   3.590   3.852  26.628
15208SOL    HW257253   3.509   3.838  26.755
15209SOL     OW57254   1.355   0.949   0.430
15209SOL    HW157255   1.412   0.907   0.367
15209SOL    HW257256   1.315   1.022   0.382
15210SOL     OW57257   3.774   4.592  22.764
15210SOL    HW157258   3.743   4.502  22.776
15210SOL    HW257259   3.823   4.611  22.844
15211SOL     OW57260   4.199   2.676  24.748
15211SOL    HW157261   4.164   2.587  24.740
15211SOL    HW257262   4.228   2.699  24.659
15212SOL     OW57263   4.239   1.493  27.734
15212SOL    HW157264   4.253   1.509  27.827
15212SOL    HW257265   4.318   1.528  27.691
15213SOL     OW57266   1.061   4.354   4.618
15213SOL    HW157267   1.115   4.341   4.697
15213SOL    HW257268   1.076   4.445   4.593
15214SOL     OW57269   2.184   2.080  18.597
15214SOL    HW157270   2.161   1.992  18.566
15214SOL    HW257271   2.141   2.139  18.536
15215SOL     OW57272   2.843   0.879  26.491
15215SOL    HW157273   2.800   0.808  26.539
15215SOL    HW257274   2.834   0.855  26.399
15216SOL     OW57275   2.078   3.542  27.630
15216SOL    HW157276   2.069   3.515  27.722
15216SOL    HW257277   1.989   3.538  27.595
15217SOL     OW57278   0.188   1.954   2.144
15217SOL    HW157279   0.158   1.953   2.235
15217SOL    HW257280   0.275   1.995   2.148
15218SOL     OW57281   0.337   0.654  21.415
15218SOL    HW157282   0.347   0.739  21.371
15218SOL    HW257283   0.340   0.676  21.508
15219SOL     OW57284   0.830   3.398  28.507
15219SOL    HW157285   0.872   3.411   0.070
15219SOL    HW257286   0.889   3.438  28.444
15220SOL     OW57287   3.925   4.310  28.422
15220SOL    HW157288   3.878   4.378  28.373
15220SOL    HW257289   3.882   4.228  28.396
15221SOL     OW57290   3.114   2.058  21.428
15221SOL    HW157291   3.075   1.971  21.432
15221SOL    HW257292   3.178   2.059  21.499
15222SOL     OW57293   3.802   3.411  26.760
15222SOL    HW157294   3.800   3.418  26.664
15222SOL    HW257295   3.722   3.455  26.789
15223SOL     OW57296   1.062   0.563  22.891
15223SOL    HW157297   1.053   0.610  22.974
15223SOL    HW257298   1.058   0.471  22.914
15224SOL     OW57299   3.277   0.296  10.478
15224SOL    HW157300   3.339   0.252  10.536
15224SOL    HW257301   3.196   0.246  10.488
15225SOL     OW57302   4.168   3.939  23.846
15225SOL    HW157303   4.197   3.876  23.779
15225SOL    HW257304   4.194   3.899  23.929
15226SOL     OW57305   2.074   2.387  11.563
15226SOL    HW157306   2.070   2.319  11.496
15226SOL    HW257307   2.046   2.345  11.643
15227SOL     OW57308   0.856   3.372  24.267
15227SOL    HW157309   0.843   3.464  24.241
15227SOL    HW257310   0.948   3.368  24.294
15228SOL     OW57311   0.814   2.242  21.167
15228SOL    HW157312   0.835   2.154  21.198
15228SOL    HW257313   0.761   2.280  21.238
15229SOL     OW57314   4.029   3.324  18.078
15229SOL    HW157315   3.978   3.369  18.145
15229SOL    HW257316   4.082   3.261  18.127
15230SOL     OW57317   4.142   0.337  22.476
15230SOL    HW157318   4.215   0.316  22.418
15230SOL    HW257319   4.179   0.396  22.541
15231SOL     OW57320   4.630   3.322  10.383
15231SOL    HW157321   4.691   3.393  10.402
15231SOL    HW257322   4.543   3.362  10.393
15232SOL     OW57323   0.294   2.475   3.871
15232SOL    HW157324   0.388   2.472   3.854
15232SOL    HW257325   0.286   2.453   3.964
15233SOL     OW57326   3.244   1.173   5.640
15233SOL    HW157327   3.227   1.175   5.734
15233SOL    HW257328   3.336   1.197   5.632
15234SOL     OW57329   3.181   3.037  20.457
15234SOL    HW157330   3.210   3.127  20.474
15234SOL    HW257331   3.095   3.047  20.415
15235SOL     OW57332   3.309   1.208   8.362
15235SOL    HW157333   3.360   1.266   8.420
15235SOL    HW257334   3.362   1.202   8.282
15236SOL     OW57335   1.564   0.488  28.194
15236SOL    HW157336   1.488   0.519  28.145
15236SOL    HW257337   1.572   0.548  28.268
15237SOL     OW57338   2.922   0.130  20.862
15237SOL    HW157339   2.887   0.110  20.949
15237SOL    HW257340   2.891   0.218  20.843
15238SOL     OW57341   2.320   0.433  28.104
15238SOL    HW157342   2.324   0.510  28.048
15238SOL    HW257343   2.408   0.394  28.097
15239SOL     OW57344   2.451   0.744   0.455
15239SOL    HW157345   2.401   0.812   0.501
15239SOL    HW257346   2.404   0.663   0.474
15240SOL     OW57347   0.600   1.358  19.414
15240SOL    HW157348   0.545   1.284  19.439
15240SOL    HW257349   0.657   1.323  19.345
15241SOL     OW57350   3.472   3.536  24.360
15241SOL    HW157351   3.426   3.547  24.443
15241SOL    HW257352   3.529   3.461  24.373
15242SOL     OW57353   3.592   0.301   1.867
15242SOL    HW157354   3.557   0.390   1.878
15242SOL    HW257355   3.628   0.279   1.953
15243SOL     OW57356   1.972   3.502  25.841
15243SOL    HW157357   2.015   3.497  25.926
15243SOL    HW257358   1.879   3.508  25.861
15244SOL     OW57359   4.298   2.687   3.665
15244SOL    HW157360   4.264   2.761   3.717
15244SOL    HW257361   4.228   2.668   3.603
15245SOL     OW57362   3.108   1.658  28.194
15245SOL    HW157363   3.124   1.748  28.165
15245SOL    HW257364   3.017   1.656  28.221
15246SOL     OW57365   1.022   0.661  10.414
15246SOL    HW157366   1.006   0.615  10.496
15246SOL    HW257367   1.103   0.711  10.430
15247SOL     OW57368   0.793   2.007  24.698
15247SOL    HW157369   0.836   2.077  24.748
15247SOL    HW257370   0.747   2.053  24.628
15248SOL     OW57371   4.708   2.479  25.015
15248SOL    HW157372   4.645   2.539  24.974
15248SOL    HW257373   4.724   2.517  25.102
15249SOL     OW57374   3.610   1.663  26.156
15249SOL    HW157375   3.550   1.630  26.223
15249SOL    HW257376   3.556   1.667  26.077
15250SOL     OW57377   1.963   2.347   6.406
15250SOL    HW157378   2.026   2.299   6.351
15250SOL    HW257379   1.926   2.280   6.464
15251SOL     OW57380   4.607   2.545  17.221
15251SOL    HW157381   4.613   2.521  17.313
15251SOL    HW257382   4.652   2.475  17.175
15252SOL     OW57383   0.888   1.607  22.143
15252SOL    HW157384   0.839   1.532  22.176
15252SOL    HW257385   0.958   1.621  22.207
15253SOL     OW57386   3.260   1.876  16.873
15253SOL    HW157387   3.236   1.798  16.822
15253SOL    HW257388   3.340   1.908  16.830
15254SOL     OW57389   4.565   4.744   3.483
15254SOL    HW157390   4.648   0.007   3.502
15254SOL    HW257391   4.590   4.653   3.463
15255SOL     OW57392   1.444   1.164  25.711
15255SOL    HW157393   1.475   1.131  25.627
15255SOL    HW257394   1.405   1.249  25.691
15256SOL     OW57395   4.395   4.253  25.275
15256SOL    HW157396   4.418   4.340  25.243
15256SOL    HW257397   4.470   4.227  25.329
15257SOL     OW57398   3.386   4.319  17.845
15257SOL    HW157399   3.403   4.328  17.751
15257SOL    HW257400   3.465   4.277  17.879
15258SOL     OW57401   3.944   4.653   3.842
15258SOL    HW157402   3.857   4.692   3.855
15258SOL    HW257403   3.970   4.683   3.754
15259SOL     OW57404   1.426   4.658   1.907
15259SOL    HW157405   1.470   4.637   1.824
15259SOL    HW257406   1.497   4.686   1.965
15260SOL     OW57407   2.465   2.830  22.708
15260SOL    HW157408   2.519   2.757  22.678
15260SOL    HW257409   2.396   2.789  22.760
15261SOL     OW57410   3.697   1.338   2.934
15261SOL    HW157411   3.743   1.269   2.885
15261SOL    HW257412   3.745   1.346   3.016
15262SOL     OW57413   4.492   0.854  23.982
15262SOL    HW157414   4.584   0.827  23.994
15262SOL    HW257415   4.458   0.795  23.915
15263SOL     OW57416   4.610   3.644  10.393
15263SOL    HW157417   4.593   3.736  10.415
15263SOL    HW257418   4.523   3.605  10.386
15264SOL     OW57419   0.044   1.509  21.098
15264SOL    HW157420   0.026   1.598  21.129
15264SOL    HW257421   4.738   1.475  21.076
15265SOL     OW57422   3.432   1.285  24.296
15265SOL    HW157423   3.362   1.347  24.315
15265SOL    HW257424   3.498   1.336  24.251
15266SOL     OW57425   3.772   3.739   5.734
15266SOL    HW157426   3.837   3.715   5.801
15266SOL    HW257427   3.692   3.756   5.784
15267SOL     OW57428   1.160   0.616   1.576
15267SOL    HW157429   1.208   0.699   1.565
15267SOL    HW257430   1.098   0.614   1.503
15268SOL     OW57431   3.876   4.709  24.135
15268SOL    HW157432   3.826   4.640  24.091
15268SOL    HW257433   3.816   0.002  24.139
15269SOL     OW57434   0.445   1.830   7.251
15269SOL    HW157435   0.383   1.900   7.270
15269SOL    HW257436   0.415   1.793   7.168
15270SOL     OW57437   1.310   0.740   3.798
15270SOL    HW157438   1.287   0.830   3.775
15270SOL    HW257439   1.301   0.737   3.894
15271SOL     OW57440   4.135   2.245  11.865
15271SOL    HW157441   4.221   2.283  11.879
15271SOL    HW257442   4.147   2.182  11.794
15272SOL     OW57443   2.504   4.413   1.385
15272SOL    HW157444   2.427   4.467   1.406
15272SOL    HW257445   2.487   4.381   1.296
15273SOL     OW57446   4.431   2.765  25.084
15273SOL    HW157447   4.363   2.732  25.143
15273SOL    HW257448   4.416   2.860  25.081
15274SOL     OW57449   0.607   4.182  21.258
15274SOL    HW157450   0.537   4.245  21.273
15274SOL    HW257451   0.646   4.168  21.344
15275SOL     OW57452   1.241   3.087   4.924
15275SOL    HW157453   1.303   3.074   4.996
15275SOL    HW257454   1.235   3.001   4.883
15276SOL     OW57455   1.292   0.801   8.483
15276SOL    HW157456   1.294   0.886   8.439
15276SOL    HW257457   1.345   0.814   8.562
15277SOL     OW57458   2.867   1.513  24.772
15277SOL    HW157459   2.820   1.596  24.770
15277SOL    HW257460   2.813   1.454  24.719
15278SOL     OW57461   2.846   2.502   1.712
15278SOL    HW157462   2.799   2.548   1.643
15278SOL    HW257463   2.778   2.476   1.775
15279SOL     OW57464   2.536   2.650  27.309
15279SOL    HW157465   2.457   2.606  27.279
15279SOL    HW257466   2.599   2.580  27.324
15280SOL     OW57467   3.620   3.186  24.297
15280SOL    HW157468   3.595   3.210  24.208
15280SOL    HW257469   3.707   3.147  24.288
15281SOL     OW57470   2.813   4.607  22.379
15281SOL    HW157471   2.908   4.604  22.369
15281SOL    HW257472   2.780   4.545  22.314
15282SOL     OW57473   0.102   1.903  23.754
15282SOL    HW157474   0.118   1.993  23.782
15282SOL    HW257475   0.047   1.912  23.676
15283SOL     OW57476   2.786   2.183  22.144
15283SOL    HW157477   2.880   2.199  22.136
15283SOL    HW257478   2.771   2.103  22.094
15284SOL     OW57479   0.489   3.950   3.792
15284SOL    HW157480   0.467   3.920   3.704
15284SOL    HW257481   0.481   4.045   3.788
15285SOL     OW57482   4.181   3.212   1.752
15285SOL    HW157483   4.253   3.217   1.815
15285SOL    HW257484   4.102   3.218   1.805
15286SOL     OW57485   2.391   0.793  22.709
15286SOL    HW157486   2.367   0.861  22.646
15286SOL    HW257487   2.479   0.766  22.684
15287SOL     OW57488   4.483   2.343  20.035
15287SOL    HW157489   4.475   2.412  20.101
15287SOL    HW257490   4.540   2.380  19.968
15288SOL     OW57491   4.386   3.603  20.798
15288SOL    HW157492   4.357   3.646  20.717
15288SOL    HW257493   4.365   3.511  20.785
15289SOL     OW57494   3.363   3.771  26.828
15289SOL    HW157495   3.353   3.729  26.914
15289SOL    HW257496   3.294   3.837  26.826
15290SOL     OW57497   1.998   0.487  17.289
15290SOL    HW157498   2.042   0.459  17.208
15290SOL    HW257499   1.997   0.583  17.284
15291SOL     OW57500   0.840   3.081  20.925
15291SOL    HW157501   0.874   2.992  20.910
15291SOL    HW257502   0.748   3.077  20.899
15292SOL     OW57503   0.282   4.052   7.687
15292SOL    HW157504   0.226   3.979   7.661
15292SOL    HW257505   0.232   4.098   7.754
15293SOL     OW57506   3.384   3.788  27.399
15293SOL    HW157507   3.468   3.805  27.442
15293SOL    HW257508   3.320   3.789  27.471
15294SOL     OW57509   1.041   1.919   1.436
15294SOL    HW157510   0.958   1.881   1.406
15294SOL    HW257511   1.062   1.869   1.515
15295SOL     OW57512   0.490   3.352   0.985
15295SOL    HW157513   0.554   3.419   1.010
15295SOL    HW257514   0.447   3.328   1.067
15296SOL     OW57515   1.367   1.918  25.640
15296SOL    HW157516   1.428   1.910  25.713
15296SOL    HW257517   1.378   2.008  25.609
15297SOL     OW57518   3.259   2.898  10.948
15297SOL    HW157519   3.324   2.940  11.004
15297SOL    HW257520   3.278   2.805  10.954
15298SOL     OW57521   0.224   1.138  24.233
15298SOL    HW157522   0.212   1.047  24.260
15298SOL    HW257523   0.288   1.134  24.162
15299SOL     OW57524   1.054   2.996   1.175
15299SOL    HW157525   1.050   2.958   1.087
15299SOL    HW257526   0.991   2.945   1.226
15300SOL     OW57527   1.959   4.237   2.156
15300SOL    HW157528   1.906   4.316   2.148
15300SOL    HW257529   2.038   4.256   2.106
15301SOL     OW57530   4.015   2.198  27.390
15301SOL    HW157531   3.947   2.151  27.342
15301SOL    HW257532   4.082   2.133  27.407
15302SOL     OW57533   1.136   2.236  23.284
15302SOL    HW157534   1.180   2.256  23.202
15302SOL    HW257535   1.124   2.141  23.283
15303SOL     OW57536   3.698   2.562   6.444
15303SOL    HW157537   3.698   2.519   6.358
15303SOL    HW257538   3.691   2.490   6.507
15304SOL     OW57539   1.542   0.980  23.266
15304SOL    HW157540   1.555   0.943  23.179
15304SOL    HW257541   1.456   1.021  23.263
15305SOL     OW57542   4.257   3.275  24.655
15305SOL    HW157543   4.343   3.240  24.678
15305SOL    HW257544   4.222   3.214  24.590
15306SOL     OW57545   2.656   0.150   1.465
15306SOL    HW157546   2.572   0.196   1.461
15306SOL    HW257547   2.696   0.165   1.380
15307SOL     OW57548   2.036   2.178   5.434
15307SOL    HW157549   2.026   2.130   5.352
15307SOL    HW257550   1.947   2.196   5.463
15308SOL     OW57551   2.578   1.274   4.773
15308SOL    HW157552   2.487   1.244   4.770
15308SOL    HW257553   2.616   1.243   4.691
15309SOL     OW57554   0.459   4.230  25.109
15309SOL    HW157555   0.376   4.277  25.107
15309SOL    HW257556   0.504   4.265  25.186
15310SOL     OW57557   3.298   0.236  22.178
15310SOL    HW157558   3.352   0.174  22.128
15310SOL    HW257559   3.234   0.268  22.114
15311SOL     OW57560   0.173   4.037   4.225
15311SOL    HW157561   0.081   4.039   4.199
15311SOL    HW257562   0.221   4.026   4.142
15312SOL     OW57563   3.941   2.971   3.176
15312SOL    HW157564   3.874   2.928   3.229
15312SOL    HW257565   4.014   2.985   3.235
15313SOL     OW57566   1.718   3.925  26.886
15313SOL    HW157567   1.805   3.924  26.846
15313SOL    HW257568   1.670   3.991  26.835
15314SOL     OW57569   1.444   4.428  26.286
15314SOL    HW157570   1.401   4.419  26.201
15314SOL    HW257571   1.448   4.339  26.321
15315SOL     OW57572   4.458   4.577  28.047
15315SOL    HW157573   4.432   4.500  27.996
15315SOL    HW257574   4.376   4.614  28.078
15316SOL     OW57575   3.425   1.528  24.872
15316SOL    HW157576   3.512   1.536  24.910
15316SOL    HW257577   3.366   1.568  24.936
15317SOL     OW57578   0.907   2.242  21.787
15317SOL    HW157579   0.921   2.180  21.715
15317SOL    HW257580   0.956   2.205  21.860
15318SOL     OW57581   3.628   0.151   4.799
15318SOL    HW157582   3.716   0.115   4.805
15318SOL    HW257583   3.640   0.242   4.774
15319SOL     OW57584   2.921   3.601  21.260
15319SOL    HW157585   2.922   3.675  21.321
15319SOL    HW257586   3.008   3.603  21.219
15320SOL     OW57587   4.388   3.843  26.741
15320SOL    HW157588   4.403   3.888  26.824
15320SOL    HW257589   4.445   3.888  26.679
15321SOL     OW57590   1.429   2.269   3.542
15321SOL    HW157591   1.448   2.301   3.630
15321SOL    HW257592   1.376   2.190   3.556
15322SOL     OW57593   2.558   4.681  23.972
15322SOL    HW157594   2.559   4.717  24.060
15322SOL    HW257595   2.536   4.588  23.984
15323SOL     OW57596   3.937   2.833  23.665
15323SOL    HW157597   3.934   2.739  23.646
15323SOL    HW257598   3.906   2.875  23.585
15324SOL     OW57599   2.725   1.889  22.489
15324SOL    HW157600   2.788   1.915  22.557
15324SOL    HW257601   2.682   1.970  22.464
15325SOL     OW57602   2.082   4.293   7.020
15325SOL    HW157603   2.043   4.379   7.005
15325SOL    HW257604   2.130   4.275   6.939
15326SOL     OW57605   4.411   3.204  22.379
15326SOL    HW157606   4.497   3.188  22.339
15326SOL    HW257607   4.403   3.137  22.447
15327SOL     OW57608   1.558   1.690  25.749
15327SOL    HW157609   1.476   1.662  25.711
15327SOL    HW257610   1.615   1.613  25.745
15328SOL     OW57611   1.167   4.285  11.848
15328SOL    HW157612   1.149   4.335  11.927
15328SOL    HW257613   1.163   4.193  11.876
15329SOL     OW57614   1.861   0.746   2.100
15329SOL    HW157615   1.791   0.680   2.104
15329SOL    HW257616   1.865   0.770   2.008
15330SOL     OW57617   3.805   1.752   5.448
15330SOL    HW157618   3.879   1.813   5.440
15330SOL    HW257619   3.728   1.805   5.425
15331SOL     OW57620   0.677   0.181   0.356
15331SOL    HW157621   0.655   0.145   0.442
15331SOL    HW257622   0.758   0.231   0.371
15332SOL     OW57623   0.504   4.562   8.710
15332SOL    HW157624   0.556   4.510   8.649
15332SOL    HW257625   0.414   4.536   8.694
15333SOL     OW57626   3.884   3.094  26.924
15333SOL    HW157627   3.897   3.009  26.881
15333SOL    HW257628   3.793   3.115  26.907
15334SOL     OW57629   2.827   1.963  18.214
15334SOL    HW157630   2.737   1.993  18.201
15334SOL    HW257631   2.819   1.868  18.227
15335SOL     OW57632   1.827   1.120   6.859
15335SOL    HW157633   1.788   1.061   6.924
15335SOL    HW257634   1.775   1.200   6.865
15336SOL     OW57635   2.137   3.149  26.092
15336SOL    HW157636   2.099   3.106  26.168
15336SOL    HW257637   2.126   3.087  26.020
15337SOL     OW57638   3.473   2.839  22.002
15337SOL    HW157639   3.430   2.921  21.978
15337SOL    HW257640   3.518   2.859  22.084
15338SOL     OW57641   3.008   3.096   7.296
15338SOL    HW157642   3.074   3.155   7.259
15338SOL    HW257643   2.929   3.150   7.304
15339SOL     OW57644   2.532   3.297  25.181
15339SOL    HW157645   2.543   3.357  25.107
15339SOL    HW257646   2.454   3.329  25.226
15340SOL     OW57647   2.190   4.234  22.787
15340SOL    HW157648   2.272   4.275  22.813
15340SOL    HW257649   2.152   4.293  22.722
15341SOL     OW57650   1.189   1.312   7.954
15341SOL    HW157651   1.188   1.265   8.038
15341SOL    HW257652   1.216   1.245   7.891
15342SOL     OW57653   2.230   1.141   7.063
15342SOL    HW157654   2.228   1.237   7.061
15342SOL    HW257655   2.222   1.119   7.156
15343SOL     OW57656   3.265   2.242  23.775
15343SOL    HW157657   3.178   2.257  23.813
15343SOL    HW257658   3.325   2.249  23.849
15344SOL     OW57659   1.569   3.530  18.600
15344SOL    HW157660   1.654   3.537  18.557
15344SOL    HW257661   1.511   3.585  18.548
15345SOL     OW57662   4.131   3.853  11.485
15345SOL    HW157663   4.129   3.841  11.580
15345SOL    HW257664   4.065   3.792  11.452
15346SOL     OW57665   4.220   0.029  23.601
15346SOL    HW157666   4.215   0.092  23.672
15346SOL    HW257667   4.252   4.729  23.642
15347SOL     OW57668   2.386   0.348   8.071
15347SOL    HW157669   2.408   0.257   8.093
15347SOL    HW257670   2.427   0.363   7.986
15348SOL     OW57671   3.826   0.343  27.155
15348SOL    HW157672   3.752   0.316  27.210
15348SOL    HW257673   3.799   0.321  27.066
15349SOL     OW57674   1.960   4.617  25.869
15349SOL    HW157675   1.981   4.528  25.840
15349SOL    HW257676   1.974   4.672  25.792
15350SOL     OW57677   4.749   1.769  11.327
15350SOL    HW157678   4.729   1.681  11.357
15350SOL    HW257679   4.668   1.799  11.285
15351SOL     OW57680   0.588   3.857  22.886
15351SOL    HW157681   0.595   3.765  22.911
15351SOL    HW257682   0.609   3.859  22.793
15352SOL     OW57683   2.933   1.052   7.832
15352SOL    HW157684   2.984   1.130   7.813
15352SOL    HW257685   2.996   0.990   7.868
15353SOL     OW57686   0.233   2.641  11.207
15353SOL    HW157687   0.265   2.678  11.289
15353SOL    HW257688   0.308   2.598  11.168
15354SOL     OW57689   1.085   1.152  24.984
15354SOL    HW157690   0.994   1.135  24.957
15354SOL    HW257691   1.124   1.065  24.990
15355SOL     OW57692   4.086   2.748   1.452
15355SOL    HW157693   4.107   2.803   1.377
15355SOL    HW257694   4.152   2.771   1.518
15356SOL     OW57695   3.512   4.021   5.759
15356SOL    HW157696   3.497   4.059   5.845
15356SOL    HW257697   3.501   4.094   5.698
15357SOL     OW57698   1.826   0.226   2.456
15357SOL    HW157699   1.914   0.196   2.434
15357SOL    HW257700   1.826   0.319   2.434
15358SOL     OW57701   0.105   3.133  10.536
15358SOL    HW157702   0.133   3.211  10.584
15358SOL    HW257703   0.064   3.077  10.602
15359SOL     OW57704   2.704   1.059   4.606
15359SOL    HW157705   2.718   0.966   4.625
15359SOL    HW257706   2.610   1.067   4.591
15360SOL     OW57707   4.189   0.163   4.386
15360SOL    HW157708   4.142   0.240   4.420
15360SOL    HW257709   4.152   0.089   4.434
15361SOL     OW57710   1.294   4.065  27.277
15361SOL    HW157711   1.295   3.970  27.292
15361SOL    HW257712   1.253   4.101  27.355
15362SOL     OW57713   4.098   0.844  18.430
15362SOL    HW157714   4.033   0.804  18.373
15362SOL    HW257715   4.077   0.937  18.430
15363SOL     OW57716   3.759   3.101   0.785
15363SOL    HW157717   3.768   3.006   0.786
15363SOL    HW257718   3.779   3.128   0.875
15364SOL     OW57719   0.576   1.164  23.311
15364SOL    HW157720   0.490   1.121  23.310
15364SOL    HW257721   0.635   1.100  23.351
15365SOL     OW57722   0.519   4.322  27.814
15365SOL    HW157723   0.550   4.257  27.751
15365SOL    HW257724   0.594   4.336  27.872
15366SOL     OW57725   0.932   3.231   7.708
15366SOL    HW157726   0.846   3.272   7.709
15366SOL    HW257727   0.981   3.277   7.639
15367SOL     OW57728   0.135   2.255  21.083
15367SOL    HW157729   0.152   2.206  21.002
15367SOL    HW257730   0.206   2.318  21.088
15368SOL     OW57731   4.410   1.598   6.755
15368SOL    HW157732   4.448   1.512   6.741
15368SOL    HW257733   4.435   1.622   6.844
15369SOL     OW57734   0.868   0.810   9.360
15369SOL    HW157735   0.840   0.885   9.412
15369SOL    HW257736   0.894   0.847   9.276
15370SOL     OW57737   0.861   2.715  24.430
15370SOL    HW157738   0.928   2.683  24.369
15370SOL    HW257739   0.835   2.800  24.395
15371SOL     OW57740   4.377   1.718  19.514
15371SOL    HW157741   4.435   1.726  19.439
15371SOL    HW257742   4.430   1.677  19.582
15372SOL     OW57743   3.652   0.469  22.553
15372SOL    HW157744   3.697   0.487  22.635
15372SOL    HW257745   3.712   0.413  22.504
15373SOL     OW57746   3.959   3.642  23.024
15373SOL    HW157747   3.891   3.671  22.964
15373SOL    HW257748   3.947   3.696  23.102
15374SOL     OW57749   1.954   0.152  27.674
15374SOL    HW157750   2.029   0.096  27.695
15374SOL    HW257751   1.905   0.158  27.756
15375SOL     OW57752   3.755   0.978   6.876
15375SOL    HW157753   3.721   1.060   6.841
15375SOL    HW257754   3.840   1.001   6.915
15376SOL     OW57755   1.612   1.051   9.614
15376SOL    HW157756   1.611   0.958   9.591
15376SOL    HW257757   1.528   1.067   9.656
15377SOL     OW57758   3.616   0.297  26.573
15377SOL    HW157759   3.694   0.308  26.517
15377SOL    HW257760   3.543   0.300  26.511
15378SOL     OW57761   2.785   3.221   1.527
15378SOL    HW157762   2.724   3.294   1.538
15378SOL    HW257763   2.765   3.162   1.600
15379SOL     OW57764   1.435   2.684  22.715
15379SOL    HW157765   1.359   2.698  22.658
15379SOL    HW257766   1.400   2.638  22.791
15380SOL     OW57767   3.912   4.526   9.119
15380SOL    HW157768   4.000   4.564   9.119
15380SOL    HW257769   3.910   4.469   9.043
15381SOL     OW57770   3.670   4.021  26.300
15381SOL    HW157771   3.594   3.973  26.333
15381SOL    HW257772   3.648   4.114  26.314
15382SOL     OW57773   1.639   3.674  27.619
15382SOL    HW157774   1.665   3.758  27.658
15382SOL    HW257775   1.543   3.675  27.622
15383SOL     OW57776   0.464   4.594   5.869
15383SOL    HW157777   0.411   4.515   5.877
15383SOL    HW257778   0.441   4.630   5.783
15384SOL     OW57779   3.808   0.373   2.910
15384SOL    HW157780   3.876   0.377   2.977
15384SOL    HW257781   3.752   0.449   2.927
15385SOL     OW57782   3.955   0.107  25.130
15385SOL    HW157783   3.871   0.065  25.114
15385SOL    HW257784   3.947   0.143  25.219
15386SOL     OW57785   2.033   1.698   7.136
15386SOL    HW157786   2.001   1.615   7.100
15386SOL    HW257787   1.979   1.764   7.093
15387SOL     OW57788   4.080   4.635  24.252
15387SOL    HW157789   4.001   4.666  24.207
15387SOL    HW257790   4.052   4.557  24.298
15388SOL     OW57791   0.301   3.282  22.870
15388SOL    HW157792   0.391   3.311  22.880
15388SOL    HW257793   0.254   3.360  22.841
15389SOL     OW57794   4.135   0.738  22.307
15389SOL    HW157795   4.197   0.803  22.274
15389SOL    HW257796   4.157   0.658  22.260
15390SOL     OW57797   2.598   2.106  20.557
15390SOL    HW157798   2.591   2.052  20.479
15390SOL    HW257799   2.545   2.184  20.538
15391SOL     OW57800   4.135   1.844   9.698
15391SOL    HW157801   4.044   1.865   9.675
15391SOL    HW257802   4.137   1.748   9.702
15392SOL     OW57803   2.041   1.941   8.737
15392SOL    HW157804   2.126   1.919   8.776
15392SOL    HW257805   2.043   2.036   8.729
15393SOL     OW57806   0.312   1.039  20.233
15393SOL    HW157807   0.386   1.004  20.282
15393SOL    HW257808   0.288   1.119  20.280
15394SOL     OW57809   2.521   2.892   6.265
15394SOL    HW157810   2.461   2.839   6.214
15394SOL    HW257811   2.465   2.946   6.321
15395SOL     OW57812   2.664   0.867  20.429
15395SOL    HW157813   2.622   0.853  20.344
15395SOL    HW257814   2.726   0.938  20.414
15396SOL     OW57815   4.065   3.165   8.560
15396SOL    HW157816   4.093   3.219   8.634
15396SOL    HW257817   4.147   3.135   8.520
15397SOL     OW57818   4.307   2.285  10.754
15397SOL    HW157819   4.282   2.343  10.681
15397SOL    HW257820   4.389   2.246  10.727
15398SOL     OW57821   1.868   3.743  18.729
15398SOL    HW157822   1.886   3.817  18.787
15398SOL    HW257823   1.902   3.769  18.644
15399SOL     OW57824   1.909   2.851  27.468
15399SOL    HW157825   1.865   2.924  27.423
15399SOL    HW257826   1.869   2.773  27.429
15400SOL     OW57827   2.846   4.039  21.413
15400SOL    HW157828   2.784   4.059  21.483
15400SOL    HW257829   2.862   3.945  21.420
15401SOL     OW57830   0.615   1.994  21.958
15401SOL    HW157831   0.622   2.089  21.959
15401SOL    HW257832   0.669   1.965  22.032
15402SOL     OW57833   0.451   4.348   6.723
15402SOL    HW157834   0.545   4.361   6.735
15402SOL    HW257835   0.414   4.360   6.810
15403SOL     OW57836   1.998   3.290  26.369
15403SOL    HW157837   1.963   3.280  26.280
15403SOL    HW257838   1.921   3.289  26.425
15404SOL     OW57839   1.352   3.416  21.509
15404SOL    HW157840   1.349   3.490  21.448
15404SOL    HW257841   1.344   3.456  21.596
15405SOL     OW57842   1.555   4.481   3.842
15405SOL    HW157843   1.503   4.420   3.789
15405SOL    HW257844   1.541   4.453   3.932
15406SOL     OW57845   3.583   4.572  24.601
15406SOL    HW157846   3.587   4.593  24.507
15406SOL    HW257847   3.492   4.546  24.616
15407SOL     OW57848   0.212   1.657   7.728
15407SOL    HW157849   0.216   1.713   7.805
15407SOL    HW257850   0.280   1.690   7.670
15408SOL     OW57851   4.122   2.315   0.033
15408SOL    HW157852   4.187   2.339  28.490
15408SOL    HW257853   4.128   2.384   0.099
15409SOL     OW57854   1.870   3.716  20.044
15409SOL    HW157855   1.831   3.656  20.108
15409SOL    HW257856   1.883   3.663  19.966
15410SOL     OW57857   0.826   2.455   0.802
15410SOL    HW157858   0.748   2.494   0.840
15410SOL    HW257859   0.801   2.364   0.783
15411SOL     OW57860   1.414   1.449  28.518
15411SOL    HW157861   1.438   1.518  28.456
15411SOL    HW257862   1.474   1.461   0.069
15412SOL     OW57863   2.399   4.479   3.818
15412SOL    HW157864   2.336   4.518   3.759
15412SOL    HW257865   2.346   4.440   3.888
15413SOL     OW57866   2.916   2.996   5.524
15413SOL    HW157867   2.821   3.003   5.529
15413SOL    HW257868   2.941   3.062   5.459
15414SOL     OW57869   2.443   3.223   1.213
15414SOL    HW157870   2.457   3.144   1.265
15414SOL    HW257871   2.530   3.261   1.202
15415SOL     OW57872   1.591   1.681  18.852
15415SOL    HW157873   1.616   1.747  18.788
15415SOL    HW257874   1.652   1.608  18.838
15416SOL     OW57875   2.631   4.091   0.140
15416SOL    HW157876   2.722   4.064   0.146
15416SOL    HW257877   2.581   4.019   0.179
15417SOL     OW57878   0.543   3.833  20.569
15417SOL    HW157879   0.550   3.921  20.606
15417SOL    HW257880   0.480   3.842  20.497
15418SOL     OW57881   2.514   3.141   8.889
15418SOL    HW157882   2.504   3.082   8.814
15418SOL    HW257883   2.607   3.135   8.912
15419SOL     OW57884   0.842   0.323   0.594
15419SOL    HW157885   0.804   0.343   0.680
15419SOL    HW257886   0.934   0.302   0.612
15420SOL     OW57887   4.326   3.736   8.874
15420SOL    HW157888   4.232   3.747   8.866
15420SOL    HW257889   4.362   3.785   8.800
15421SOL     OW57890   0.414   3.715  25.739
15421SOL    HW157891   0.380   3.796  25.703
15421SOL    HW257892   0.469   3.742  25.813
15422SOL     OW57893   3.170   1.570  23.881
15422SOL    HW157894   3.237   1.626  23.842
15422SOL    HW257895   3.219   1.498  23.922
15423SOL     OW57896   3.279   3.815   7.294
15423SOL    HW157897   3.365   3.816   7.252
15423SOL    HW257898   3.224   3.869   7.238
15424SOL     OW57899   0.148   0.749   8.545
15424SOL    HW157900   0.118   0.838   8.530
15424SOL    HW257901   0.117   0.699   8.470
15425SOL     OW57902   0.110   0.178  26.425
15425SOL    HW157903   0.134   0.235  26.352
15425SOL    HW257904   0.014   0.176  26.424
15426SOL     OW57905   1.124   3.927   1.233
15426SOL    HW157906   1.091   4.000   1.181
15426SOL    HW257907   1.117   3.851   1.175
15427SOL     OW57908   1.268   2.471   0.008
15427SOL    HW157909   1.328   2.505  28.464
15427SOL    HW257910   1.222   2.399  28.486
15428SOL     OW57911   4.717   2.528   0.958
15428SOL    HW157912   4.642   2.523   0.898
15428SOL    HW257913   4.680   2.562   1.039
15429SOL     OW57914   0.849   1.919  20.157
15429SOL    HW157915   0.811   1.978  20.092
15429SOL    HW257916   0.777   1.899  20.216
15430SOL     OW57917   1.439   0.334   3.533
15430SOL    HW157918   1.401   0.399   3.474
15430SOL    HW257919   1.464   0.262   3.476
15431SOL     OW57920   4.403   2.559  27.324
15431SOL    HW157921   4.439   2.548  27.236
15431SOL    HW257922   4.325   2.503  27.326
15432SOL     OW57923   4.430   1.142  26.878
15432SOL    HW157924   4.422   1.087  26.956
15432SOL    HW257925   4.443   1.231  26.911
15433SOL     OW57926   3.387   0.387   7.378
15433SOL    HW157927   3.479   0.415   7.374
15433SOL    HW257928   3.338   0.469   7.375
15434SOL     OW57929   3.064   4.540   7.371
15434SOL    HW157930   3.088   4.540   7.279
15434SOL    HW257931   2.968   4.530   7.371
15435SOL     OW57932   3.965   1.074   1.832
15435SOL    HW157933   3.922   1.074   1.746
15435SOL    HW257934   3.931   1.152   1.876
15436SOL     OW57935   1.163   0.886  10.156
15436SOL    HW157936   1.129   0.804  10.120
15436SOL    HW257937   1.088   0.945  10.158
15437SOL     OW57938   0.719   4.109  20.256
15437SOL    HW157939   0.681   4.173  20.195
15437SOL    HW257940   0.764   4.046  20.200
15438SOL     OW57941   3.833   4.719  18.424
15438SOL    HW157942   3.912   4.690  18.378
15438SOL    HW257943   3.762   4.698  18.364
15439SOL     OW57944   0.608   4.036  25.844
15439SOL    HW157945   0.682   3.989  25.882
15439SOL    HW257946   0.630   4.041  25.751
15440SOL     OW57947   1.384   0.698  27.836
15440SOL    HW157948   1.291   0.680  27.819
15440SOL    HW257949   1.395   0.676  27.928
15441SOL     OW57950   2.730   2.933  23.396
15441SOL    HW157951   2.657   2.921  23.456
15441SOL    HW257952   2.806   2.901  23.445
15442SOL     OW57953   0.847   0.787   4.248
15442SOL    HW157954   0.822   0.805   4.339
15442SOL    HW257955   0.801   0.853   4.196
15443SOL     OW57956   4.481   3.101   3.024
15443SOL    HW157957   4.524   3.037   3.081
15443SOL    HW257958   4.389   3.072   3.020
15444SOL     OW57959   3.100   1.280   0.642
15444SOL    HW157960   3.152   1.229   0.704
15444SOL    HW257961   3.162   1.341   0.602
15445SOL     OW57962   3.006   2.512   1.960
15445SOL    HW157963   2.963   2.512   1.875
15445SOL    HW257964   2.934   2.507   2.023
15446SOL     OW57965   3.438   1.401   1.570
15446SOL    HW157966   3.533   1.413   1.565
15446SOL    HW257967   3.410   1.396   1.479
15447SOL     OW57968   0.356   3.369   5.844
15447SOL    HW157969   0.261   3.362   5.844
15447SOL    HW257970   0.382   3.345   5.755
15448SOL     OW57971   3.163   2.424  24.982
15448SOL    HW157972   3.241   2.405  24.930
15448SOL    HW257973   3.110   2.479  24.925
15449SOL     OW57974   4.342   4.650   8.130
15449SOL    HW157975   4.374   4.709   8.062
15449SOL    HW257976   4.249   4.673   8.140
15450SOL     OW57977   0.643   2.986   1.399
15450SOL    HW157978   0.643   2.957   1.490
15450SOL    HW257979   0.695   3.067   1.399
15451SOL     OW57980   1.030   2.444  27.698
15451SOL    HW157981   0.967   2.438  27.626
15451SOL    HW257982   1.082   2.364  27.691
15452SOL     OW57983   2.014   1.154  28.354
15452SOL    HW157984   2.005   1.129  28.446
15452SOL    HW257985   2.075   1.090  28.317
15453SOL     OW57986   1.392   4.398  18.705
15453SOL    HW157987   1.440   4.416  18.625
15453SOL    HW257988   1.458   4.366  18.766
15454SOL     OW57989   0.604   3.338   8.238
15454SOL    HW157990   0.516   3.324   8.275
15454SOL    HW257991   0.657   3.269   8.278
15455SOL     OW57992   1.229   2.875  19.315
15455SOL    HW157993   1.145   2.836  19.292
15455SOL    HW257994   1.239   2.857  19.409
15456SOL     OW57995   2.041   2.604  19.787
15456SOL    HW157996   2.014   2.519  19.755
15456SOL    HW257997   2.014   2.666  19.719
15457SOL     OW57998   0.359   4.160   9.611
15457SOL    HW157999   0.323   4.199   9.531
15457SOL    HW258000   0.284   4.156   9.671
15458SOL     OW58001   3.037   2.239   9.127
15458SOL    HW158002   3.040   2.253   9.033
15458SOL    HW258003   3.029   2.144   9.137
15459SOL     OW58004   2.436   2.701   8.982
15459SOL    HW158005   2.370   2.637   9.006
15459SOL    HW258006   2.505   2.650   8.940
15460SOL     OW58007   2.255   0.136  23.354
15460SOL    HW158008   2.195   0.146  23.281
15460SOL    HW258009   2.214   0.070  23.410
15461SOL     OW58010   3.106   2.292   3.973
15461SOL    HW158011   3.062   2.311   3.890
15461SOL    HW258012   3.154   2.211   3.956
15462SOL     OW58013   1.579   2.676   2.604
15462SOL    HW158014   1.613   2.618   2.672
15462SOL    HW258015   1.654   2.726   2.575
15463SOL     OW58016   2.557   3.751  23.074
15463SOL    HW158017   2.632   3.746  23.134
15463SOL    HW258018   2.588   3.805  23.001
15464SOL     OW58019   2.655   1.751  25.498
15464SOL    HW158020   2.585   1.757  25.563
15464SOL    HW258021   2.654   1.837  25.455
15465SOL     OW58022   4.299   1.069   4.326
15465SOL    HW158023   4.321   1.067   4.419
15465SOL    HW258024   4.209   1.038   4.323
15466SOL     OW58025   1.965   0.342  10.598
15466SOL    HW158026   2.027   0.275  10.627
15466SOL    HW258027   1.960   0.403  10.672
15467SOL     OW58028   3.343   1.364  23.946
15467SOL    HW158029   3.275   1.301  23.969
15467SOL    HW258030   3.388   1.382  24.028
15468SOL     OW58031   1.761   1.833   6.955
15468SOL    HW158032   1.690   1.883   6.913
15468SOL    HW258033   1.798   1.894   7.019
15469SOL     OW58034   0.732   2.973   9.159
15469SOL    HW158035   0.802   3.001   9.099
15469SOL    HW258036   0.719   2.880   9.139
15470SOL     OW58037   4.059   2.209   6.007
15470SOL    HW158038   4.021   2.133   6.053
15470SOL    HW258039   4.110   2.171   5.936
15471SOL     OW58040   3.795   4.026  22.803
15471SOL    HW158041   3.801   4.012  22.897
15471SOL    HW258042   3.832   3.946  22.765
15472SOL     OW58043   4.588   2.097   6.713
15472SOL    HW158044   4.594   2.180   6.758
15472SOL    HW258045   4.678   2.064   6.710
15473SOL     OW58046   2.896   0.820  21.035
15473SOL    HW158047   2.970   0.858  21.084
15473SOL    HW258048   2.936   0.784  20.956
15474SOL     OW58049   3.274   2.095  20.742
15474SOL    HW158050   3.187   2.125  20.715
15474SOL    HW258051   3.310   2.052  20.664
15475SOL     OW58052   4.734   0.417  27.875
15475SOL    HW158053   4.674   0.344  27.880
15475SOL    HW258054   0.012   0.395  27.803
15476SOL     OW58055   4.470   3.750   1.656
15476SOL    HW158056   4.494   3.673   1.708
15476SOL    HW258057   4.518   3.822   1.698
15477SOL     OW58058   0.952   0.535   5.587
15477SOL    HW158059   0.977   0.496   5.671
15477SOL    HW258060   1.031   0.529   5.534
15478SOL     OW58061   0.503   2.976   6.883
15478SOL    HW158062   0.419   3.019   6.866
15478SOL    HW258063   0.527   2.936   6.800
15479SOL     OW58064   4.629   2.937   8.022
15479SOL    HW158065   4.704   2.899   8.067
15479SOL    HW258066   4.663   3.018   7.984
15480SOL     OW58067   4.632   4.055   2.942
15480SOL    HW158068   4.647   4.081   2.851
15480SOL    HW258069   4.594   3.967   2.935
15481SOL     OW58070   3.888   3.247  10.808
15481SOL    HW158071   3.827   3.208  10.870
15481SOL    HW258072   3.962   3.186  10.804
15482SOL     OW58073   4.613   1.599   3.758
15482SOL    HW158074   4.637   1.687   3.729
15482SOL    HW258075   4.672   1.582   3.831
15483SOL     OW58076   3.205   3.665   0.811
15483SOL    HW158077   3.205   3.655   0.716
15483SOL    HW258078   3.132   3.611   0.841
15484SOL     OW58079   2.080   1.788   2.102
15484SOL    HW158080   2.121   1.820   2.021
15484SOL    HW258081   2.134   1.713   2.127
15485SOL     OW58082   3.634   0.757  27.684
15485SOL    HW158083   3.709   0.807  27.717
15485SOL    HW258084   3.591   0.724  27.763
15486SOL     OW58085   3.103   4.778   3.643
15486SOL    HW158086   3.176   4.765   3.704
15486SOL    HW258087   3.048   0.063   3.684
15487SOL     OW58088   2.131   3.250   6.386
15487SOL    HW158089   2.071   3.315   6.351
15487SOL    HW258090   2.088   3.220   6.467
15488SOL     OW58091   4.591   4.554   5.982
15488SOL    HW158092   4.559   4.632   6.026
15488SOL    HW258093   4.531   4.485   6.009
15489SOL     OW58094   2.924   1.305   4.078
15489SOL    HW158095   2.889   1.361   4.009
15489SOL    HW258096   2.922   1.217   4.040
15490SOL     OW58097   1.697   2.147   2.180
15490SOL    HW158098   1.652   2.222   2.218
15490SOL    HW258099   1.743   2.107   2.253
15491SOL     OW58100   2.498   1.235   1.628
15491SOL    HW158101   2.473   1.193   1.546
15491SOL    HW258102   2.594   1.239   1.624
15492SOL     OW58103   2.982   0.512  18.003
15492SOL    HW158104   3.052   0.462  17.960
15492SOL    HW258105   3.028   0.564  18.069
15493SOL     OW58106   3.631   4.715  18.970
15493SOL    HW158107   3.597   0.018  18.999
15493SOL    HW258108   3.688   4.686  19.041
15494SOL     OW58109   3.426   4.436   3.917
15494SOL    HW158110   3.451   4.384   3.994
15494SOL    HW258111   3.330   4.431   3.915
15495SOL     OW58112   1.450   0.471  27.544
15495SOL    HW158113   1.503   0.490  27.466
15495SOL    HW258114   1.415   0.556  27.571
15496SOL     OW58115   3.614   1.675   3.277
15496SOL    HW158116   3.585   1.760   3.311
15496SOL    HW258117   3.534   1.631   3.250
15497SOL     OW58118   2.841   3.301   8.637
15497SOL    HW158119   2.912   3.351   8.596
15497SOL    HW258120   2.819   3.350   8.715
15498SOL     OW58121   4.710   2.386   7.812
15498SOL    HW158122   0.021   2.398   7.835
15498SOL    HW258123   4.707   2.303   7.765
15499SOL     OW58124   3.043   4.634   2.623
15499SOL    HW158125   3.005   4.682   2.549
15499SOL    HW258126   3.137   4.652   2.617
15500SOL     OW58127   1.328   1.455   6.553
15500SOL    HW158128   1.398   1.415   6.605
15500SOL    HW258129   1.256   1.467   6.615
15501SOL     OW58130   3.136   3.179   8.912
15501SOL    HW158131   3.154   3.131   8.994
15501SOL    HW258132   3.159   3.270   8.933
15502SOL     OW58133   0.251   3.473   8.768
15502SOL    HW158134   0.255   3.563   8.735
15502SOL    HW258135   0.330   3.464   8.822
15503SOL     OW58136   3.463   0.950   2.029
15503SOL    HW158137   3.388   1.004   2.052
15503SOL    HW258138   3.426   0.872   1.987
15504SOL     OW58139   1.899   2.924   7.003
15504SOL    HW158140   1.836   2.995   7.016
15504SOL    HW258141   1.984   2.967   7.010
15505SOL     OW58142   0.026   1.615  19.686
15505SOL    HW158143   4.714   1.595  19.702
15505SOL    HW258144   0.033   1.709  19.699
15506SOL     OW58145   1.112   1.503   9.689
15506SOL    HW158146   1.204   1.515   9.711
15506SOL    HW258147   1.064   1.540   9.763
15507SOL     OW58148   2.555   0.544   5.003
15507SOL    HW158149   2.484   0.480   5.011
15507SOL    HW258150   2.533   0.594   4.925
15508SOL     OW58151   0.620   0.092  20.006
15508SOL    HW158152   0.668   0.016  20.039
15508SOL    HW258153   0.621   0.081  19.911
15509SOL     OW58154   0.915   0.247  25.724
15509SOL    HW158155   0.998   0.257  25.771
15509SOL    HW258156   0.848   0.264  25.789
15510SOL     OW58157   4.420   0.951  27.964
15510SOL    HW158158   4.473   0.969  27.887
15510SOL    HW258159   4.390   0.861  27.952
15511SOL     OW58160   4.408   4.771   2.758
15511SOL    HW158161   4.404   0.083   2.734
15511SOL    HW258162   4.482   4.737   2.708
15512SOL     OW58163   1.807   1.035  27.108
15512SOL    HW158164   1.853   1.046  27.191
15512SOL    HW258165   1.856   0.966  27.063
15513SOL     OW58166   1.274   4.736   6.211
15513SOL    HW158167   1.339   4.672   6.242
15513SOL    HW258168   1.264   4.718   6.118
15514SOL     OW58169   0.272   2.529  18.040
15514SOL    HW158170   0.191   2.514  17.991
15514SOL    HW258171   0.263   2.618  18.074
15515SOL     OW58172   3.366   4.020   3.202
15515SOL    HW158173   3.288   3.964   3.193
15515SOL    HW258174   3.397   4.033   3.113
15516SOL     OW58175   1.462   0.208  20.763
15516SOL    HW158176   1.393   0.228  20.700
15516SOL    HW258177   1.524   0.281  20.755
15517SOL     OW58178   3.217   1.641  25.022
15517SOL    HW158179   3.197   1.675  25.109
15517SOL    HW258180   3.174   1.703  24.962
15518SOL     OW58181   3.785   3.952  24.690
15518SOL    HW158182   3.829   3.981  24.770
15518SOL    HW258183   3.768   3.859  24.706
15519SOL     OW58184   1.503   3.322  26.951
15519SOL    HW158185   1.504   3.410  26.913
15519SOL    HW258186   1.433   3.326  27.017
15520SOL     OW58187   0.926   1.019  18.050
15520SOL    HW158188   1.011   1.012  18.093
15520SOL    HW258189   0.933   1.098  17.996
15521SOL     OW58190   3.461   3.022   1.511
15521SOL    HW158191   3.474   3.074   1.590
15521SOL    HW258192   3.397   2.956   1.535
15522SOL     OW58193   1.512   0.140  22.785
15522SOL    HW158194   1.504   0.189  22.867
15522SOL    HW258195   1.604   0.148  22.760
15523SOL     OW58196   1.575   4.108   6.491
15523SOL    HW158197   1.577   4.150   6.577
15523SOL    HW258198   1.515   4.161   6.439
15524SOL     OW58199   4.374   0.201  24.088
15524SOL    HW158200   4.317   0.219  24.163
15524SOL    HW258201   4.399   0.110  24.098
15525SOL     OW58202   0.188   2.544  27.809
15525SOL    HW158203   0.186   2.493  27.728
15525SOL    HW258204   0.100   2.536  27.844
15526SOL     OW58205   0.218   4.434  22.886
15526SOL    HW158206   0.241   4.473  22.802
15526SOL    HW258207   0.251   4.344  22.879
15527SOL     OW58208   3.561   0.580  18.793
15527SOL    HW158209   3.472   0.567  18.824
15527SOL    HW258210   3.587   0.495  18.758
15528SOL     OW58211   4.016   1.592   7.591
15528SOL    HW158212   4.088   1.615   7.650
15528SOL    HW258213   3.963   1.672   7.586
15529SOL     OW58214   4.357   3.849   0.411
15529SOL    HW158215   4.366   3.849   0.507
15529SOL    HW258216   4.275   3.895   0.395
15530SOL     OW58217   3.306   0.651  21.789
15530SOL    HW158218   3.305   0.555  21.791
15530SOL    HW258219   3.276   0.673  21.701
15531SOL     OW58220   0.889   0.851   6.927
15531SOL    HW158221   0.799   0.860   6.958
15531SOL    HW258222   0.905   0.757   6.924
15532SOL     OW58223   1.448   1.462  19.640
15532SOL    HW158224   1.433   1.548  19.680
15532SOL    HW258225   1.483   1.408  19.712
15533SOL     OW58226   1.704   1.204   3.291
15533SOL    HW158227   1.698   1.176   3.383
15533SOL    HW258228   1.736   1.126   3.245
15534SOL     OW58229   1.492   0.058  10.578
15534SOL    HW158230   1.558   4.770  10.567
15534SOL    HW258231   1.498   0.082  10.671
15535SOL     OW58232   1.698   4.247  18.042
15535SOL    HW158233   1.615   4.230  17.999
15535SOL    HW258234   1.759   4.186  18.001
15536SOL     OW58235   4.075   2.018  24.407
15536SOL    HW158236   4.032   1.970  24.336
15536SOL    HW258237   4.004   2.070  24.446
15537SOL     OW58238   4.353   1.453  18.930
15537SOL    HW158239   4.409   1.494  18.995
15537SOL    HW258240   4.391   1.481  18.846
15538SOL     OW58241   0.987   3.560   7.823
15538SOL    HW158242   1.028   3.610   7.753
15538SOL    HW258243   0.894   3.559   7.800
15539SOL     OW58244   3.852   2.639   5.468
15539SOL    HW158245   3.767   2.682   5.470
15539SOL    HW258246   3.895   2.666   5.549
15540SOL     OW58247   3.371   4.167  27.828
15540SOL    HW158248   3.303   4.201  27.771
15540SOL    HW258249   3.328   4.099  27.880
15541SOL     OW58250   3.601   4.512  28.139
15541SOL    HW158251   3.599   4.444  28.206
15541SOL    HW258252   3.632   4.468  28.061
15542SOL     OW58253   0.390   0.693   0.453
15542SOL    HW158254   0.377   0.760   0.520
15542SOL    HW258255   0.348   0.728   0.375
15543SOL     OW58256   1.155   0.012  27.415
15543SOL    HW158257   1.064   0.005  27.388
15543SOL    HW258258   1.169   4.717  27.472
15544SOL     OW58259   3.685   4.480  10.359
15544SOL    HW158260   3.667   4.573  10.373
15544SOL    HW258261   3.777   4.470  10.384
15545SOL     OW58262   2.850   2.488   6.714
15545SOL    HW158263   2.760   2.460   6.726
15545SOL    HW258264   2.843   2.576   6.677
15546SOL     OW58265   1.434   2.294   8.351
15546SOL    HW158266   1.381   2.350   8.408
15546SOL    HW258267   1.394   2.208   8.358
15547SOL     OW58268   1.036   3.024   1.721
15547SOL    HW158269   1.079   3.006   1.805
15547SOL    HW258270   1.057   3.116   1.702
15548SOL     OW58271   1.025   3.497  19.670
15548SOL    HW158272   1.083   3.554  19.720
15548SOL    HW258273   1.084   3.444  19.616
15549SOL     OW58274   1.079   3.447  10.811
15549SOL    HW158275   1.098   3.539  10.828
15549SOL    HW258276   0.987   3.446  10.782
15550SOL     OW58277   1.420   0.152  22.437
15550SOL    HW158278   1.381   0.072  22.471
15550SOL    HW258279   1.440   0.132  22.345
15551SOL     OW58280   2.930   4.425  24.840
15551SOL    HW158281   3.018   4.426  24.802
15551SOL    HW258282   2.876   4.382  24.775
15552SOL     OW58283   2.011   3.800   1.084
15552SOL    HW158284   1.989   3.779   1.175
15552SOL    HW258285   2.106   3.806   1.083
15553SOL     OW58286   0.742   3.539  18.744
15553SOL    HW158287   0.728   3.608  18.808
15553SOL    HW258288   0.738   3.458  18.795
15554SOL     OW58289   1.167   4.564   3.638
15554SOL    HW158290   1.168   4.493   3.702
15554SOL    HW258291   1.237   4.623   3.668
15555SOL     OW58292   2.247   4.561   7.060
15555SOL    HW158293   2.262   4.621   7.133
15555SOL    HW258294   2.310   4.586   6.994
15556SOL     OW58295   3.602   1.824  24.505
15556SOL    HW158296   3.567   1.816  24.416
15556SOL    HW258297   3.566   1.749  24.552
15557SOL     OW58298   3.794   3.718  16.944
15557SOL    HW158299   3.809   3.707  17.038
15557SOL    HW258300   3.858   3.660  16.902
15558SOL     OW58301   1.462   4.679   7.931
15558SOL    HW158302   1.425   4.763   7.901
15558SOL    HW258303   1.516   4.649   7.858
15559SOL     OW58304   3.266   0.672  27.254
15559SOL    HW158305   3.242   0.738  27.319
15559SOL    HW258306   3.362   0.675  27.251
15560SOL     OW58307   0.170   0.887   9.244
15560SOL    HW158308   0.078   0.881   9.218
15560SOL    HW258309   0.180   0.821   9.313
15561SOL     OW58310   4.663   3.305  19.898
15561SOL    HW158311   4.622   3.220  19.919
15561SOL    HW258312   4.746   3.282  19.856
15562SOL     OW58313   0.289   4.706  22.314
15562SOL    HW158314   0.356   4.641  22.331
15562SOL    HW258315   0.263   4.738  22.400
15563SOL     OW58316   1.333   3.511  17.085
15563SOL    HW158317   1.385   3.455  17.143
15563SOL    HW258318   1.281   3.449  17.034
15564SOL     OW58319   1.040   3.853  28.261
15564SOL    HW158320   1.040   3.881  28.169
15564SOL    HW258321   1.099   3.913  28.305
15565SOL     OW58322   1.654   0.142   8.948
15565SOL    HW158323   1.564   0.174   8.958
15565SOL    HW258324   1.707   0.221   8.941
15566SOL     OW58325   0.155   3.401   0.897
15566SOL    HW158326   0.138   3.317   0.939
15566SOL    HW258327   0.240   3.390   0.855
15567SOL     OW58328   1.250   3.493  21.762
15567SOL    HW158329   1.216   3.455  21.843
15567SOL    HW258330   1.323   3.548  21.790
15568SOL     OW58331   0.211   3.055  18.009
15568SOL    HW158332   0.290   3.076  17.959
15568SOL    HW258333   0.140   3.102  17.963
15569SOL     OW58334   3.002   4.490  27.203
15569SOL    HW158335   3.070   4.498  27.136
15569SOL    HW258336   3.006   4.398  27.229
15570SOL     OW58337   0.462   4.274   0.126
15570SOL    HW158338   0.405   4.211   0.082
15570SOL    HW258339   0.435   4.359   0.090
15571SOL     OW58340   4.042   0.797   1.848
15571SOL    HW158341   4.020   0.789   1.941
15571SOL    HW258342   4.030   0.890   1.829
15572SOL     OW58343   1.916   0.345  23.731
15572SOL    HW158344   2.003   0.310  23.747
15572SOL    HW258345   1.880   0.290  23.662
15573SOL     OW58346   4.589   1.690   7.850
15573SOL    HW158347   4.676   1.705   7.888
15573SOL    HW258348   4.606   1.677   7.757
15574SOL     OW58349   2.268   2.969   3.613
15574SOL    HW158350   2.271   2.923   3.529
15574SOL    HW258351   2.345   3.025   3.613
15575SOL     OW58352   1.325   2.356   7.477
15575SOL    HW158353   1.356   2.273   7.513
15575SOL    HW258354   1.290   2.403   7.552
15576SOL     OW58355   4.505   1.871   3.681
15576SOL    HW158356   4.521   1.863   3.587
15576SOL    HW258357   4.443   1.943   3.690
15577SOL     OW58358   2.642   1.327  26.743
15577SOL    HW158359   2.570   1.355  26.687
15577SOL    HW258360   2.622   1.236  26.764
15578SOL     OW58361   4.724   0.564   1.829
15578SOL    HW158362   0.009   0.632   1.848
15578SOL    HW258363   4.662   0.571   1.902
15579SOL     OW58364   1.746   2.666   8.786
15579SOL    HW158365   1.674   2.662   8.723
15579SOL    HW258366   1.825   2.669   8.732
15580SOL     OW58367   0.671   4.323  24.218
15580SOL    HW158368   0.684   4.395  24.157
15580SOL    HW258369   0.760   4.297  24.243
15581SOL     OW58370   0.180   1.799   0.996
15581SOL    HW158371   0.114   1.778   0.929
15581SOL    HW258372   0.196   1.716   1.040
15582SOL     OW58373   0.451   0.206  27.475
15582SOL    HW158374   0.356   0.199  27.462
15582SOL    HW258375   0.469   0.151  27.551
15583SOL     OW58376   4.593   3.107   4.527
15583SOL    HW158377   4.533   3.050   4.574
15583SOL    HW258378   4.664   3.124   4.589
15584SOL     OW58379   1.067   1.681  22.330
15584SOL    HW158380   1.065   1.775  22.349
15584SOL    HW258381   1.065   1.639  22.416
15585SOL     OW58382   3.114   2.623   8.522
15585SOL    HW158383   3.076   2.535   8.521
15585SOL    HW258384   3.039   2.682   8.516
15586SOL     OW58385   2.068   3.060   7.154
15586SOL    HW158386   2.142   3.060   7.215
15586SOL    HW258387   2.091   3.125   7.088
15587SOL     OW58388   0.143   2.528  26.795
15587SOL    HW158389   0.210   2.590  26.823
15587SOL    HW258390   0.073   2.583  26.759
15588SOL     OW58391   0.479   3.255  27.978
15588SOL    HW158392   0.407   3.301  28.020
15588SOL    HW258393   0.491   3.176  28.030
15589SOL     OW58394   2.588   1.631  28.203
15589SOL    HW158395   2.496   1.658  28.211
15589SOL    HW258396   2.583   1.537  28.182
15590SOL     OW58397   3.853   1.322   6.999
15590SOL    HW158398   3.942   1.315   6.965
15590SOL    HW258399   3.821   1.406   6.966
15591SOL     OW58400   2.015   3.836   1.600
15591SOL    HW158401   2.047   3.751   1.630
15591SOL    HW258402   2.005   3.825   1.505
15592SOL     OW58403   2.359   0.413  13.460
15592SOL    HW158404   2.312   0.473  13.518
15592SOL    HW258405   2.451   0.440  13.468
15593SOL     OW58406   0.149   2.995  21.260
15593SOL    HW158407   0.114   3.009  21.172
15593SOL    HW258408   0.223   3.054  21.266
15594SOL     OW58409   1.685   2.592   6.843
15594SOL    HW158410   1.633   2.549   6.911
15594SOL    HW258411   1.774   2.557   6.856
15595SOL     OW58412   3.611   2.094  11.131
15595SOL    HW158413   3.568   2.174  11.161
15595SOL    HW258414   3.546   2.025  11.144
15596SOL     OW58415   2.184   0.026  18.026
15596SOL    HW158416   2.163   4.716  18.004
15596SOL    HW258417   2.233   0.058  17.950
15597SOL     OW58418   3.243   4.748  23.537
15597SOL    HW158419   3.225   4.675  23.478
15597SOL    HW258420   3.198   4.725  23.618
15598SOL     OW58421   3.540   0.928  10.691
15598SOL    HW158422   3.591   0.872  10.750
15598SOL    HW258423   3.605   0.986  10.651
15599SOL     OW58424   0.896   2.114  23.125
15599SOL    HW158425   0.987   2.083  23.125
15599SOL    HW258426   0.904   2.208  23.145
15600SOL     OW58427   3.466   1.263  21.419
15600SOL    HW158428   3.416   1.314  21.355
15600SOL    HW258429   3.547   1.314  21.431
15601SOL     OW58430   0.678   1.019   5.139
15601SOL    HW158431   0.621   1.088   5.172
15601SOL    HW258432   0.693   0.961   5.214
15602SOL     OW58433   0.101   3.037  28.296
15602SOL    HW158434   0.036   2.975  28.330
15602SOL    HW258435   0.145   2.990  28.225
15603SOL     OW58436   4.527   4.018   0.280
15603SOL    HW158437   4.461   4.063   0.227
15603SOL    HW258438   4.476   3.958   0.335
15604SOL     OW58439   2.316   0.624  24.510
15604SOL    HW158440   2.275   0.570  24.443
15604SOL    HW258441   2.410   0.614  24.495
15605SOL     OW58442   0.205   0.871   8.153
15605SOL    HW158443   0.206   0.966   8.146
15605SOL    HW258444   0.211   0.839   8.063
15606SOL     OW58445   2.197   3.530  22.511
15606SOL    HW158446   2.154   3.614  22.497
15606SOL    HW258447   2.129   3.473  22.547
15607SOL     OW58448   3.678   4.171   1.363
15607SOL    HW158449   3.694   4.241   1.300
15607SOL    HW258450   3.759   4.165   1.414
15608SOL     OW58451   3.179   1.169   5.374
15608SOL    HW158452   3.086   1.159   5.352
15608SOL    HW258453   3.185   1.142   5.466
15609SOL     OW58454   0.431   1.939   1.192
15609SOL    HW158455   0.413   1.911   1.102
15609SOL    HW258456   0.526   1.947   1.196
15610SOL     OW58457   2.043   0.653   0.844
15610SOL    HW158458   2.001   0.676   0.761
15610SOL    HW258459   1.989   0.582   0.879
15611SOL     OW58460   2.407   0.592   8.172
15611SOL    HW158461   2.417   0.497   8.163
15611SOL    HW258462   2.490   0.621   8.210
15612SOL     OW58463   0.014   3.502   2.158
15612SOL    HW158464   0.015   3.514   2.253
15612SOL    HW258465   4.753   3.417   2.144
15613SOL     OW58466   1.509   0.098   3.400
15613SOL    HW158467   1.553   0.132   3.322
15613SOL    HW258468   1.424   0.066   3.367
15614SOL     OW58469   4.240   2.971   0.170
15614SOL    HW158470   4.285   3.042   0.125
15614SOL    HW258471   4.280   2.891   0.135
15615SOL     OW58472   2.362   3.323  22.085
15615SOL    HW158473   2.384   3.353  22.173
15615SOL    HW258474   2.396   3.391  22.027
15616SOL     OW58475   3.186   2.209   4.667
15616SOL    HW158476   3.229   2.287   4.634
15616SOL    HW258477   3.236   2.185   4.745
15617SOL     OW58478   3.872   0.413   7.072
15617SOL    HW158479   3.812   0.385   7.003
15617SOL    HW258480   3.898   0.332   7.116
15618SOL     OW58481   3.971   3.204  27.328
15618SOL    HW158482   3.950   3.287  27.372
15618SOL    HW258483   4.062   3.187  27.353
15619SOL     OW58484   1.293   0.719   7.460
15619SOL    HW158485   1.245   0.780   7.404
15619SOL    HW258486   1.258   0.633   7.437
15620SOL     OW58487   3.978   1.144  17.864
15620SOL    HW158488   3.901   1.093  17.890
15620SOL    HW258489   3.944   1.231  17.845
15621SOL     OW58490   4.222   4.393  24.689
15621SOL    HW158491   4.150   4.356  24.637
15621SOL    HW258492   4.179   4.432  24.765
15622SOL     OW58493   1.012   3.343  17.395
15622SOL    HW158494   1.037   3.341  17.303
15622SOL    HW258495   1.002   3.436  17.415
15623SOL     OW58496   2.786   3.639  20.185
15623SOL    HW158497   2.786   3.559  20.132
15623SOL    HW258498   2.725   3.619  20.256
15624SOL     OW58499   0.199   3.626  21.518
15624SOL    HW158500   0.171   3.712  21.487
15624SOL    HW258501   0.117   3.579  21.534
15625SOL     OW58502   2.122   4.745  20.996
15625SOL    HW158503   2.131   0.057  20.975
15625SOL    HW258504   2.034   4.738  21.034
15626SOL     OW58505   0.387   4.194   8.443
15626SOL    HW158506   0.413   4.133   8.512
15626SOL    HW258507   0.465   4.246   8.426
15627SOL     OW58508   0.654   2.035  25.048
15627SOL    HW158509   0.742   2.065  25.072
15627SOL    HW258510   0.622   2.101  24.986
15628SOL     OW58511   3.310   0.125  25.621
15628SOL    HW158512   3.345   0.160  25.538
15628SOL    HW258513   3.217   0.144  25.617
15629SOL     OW58514   0.832   2.959  27.181
15629SOL    HW158515   0.920   2.936  27.152
15629SOL    HW258516   0.775   2.891  27.144
15630SOL     OW58517   0.828   0.916  21.303
15630SOL    HW158518   0.910   0.897  21.349
15630SOL    HW258519   0.853   0.919  21.211
15631SOL     OW58520   2.154   0.246  20.935
15631SOL    HW158521   2.187   0.313  20.876
15631SOL    HW258522   2.120   0.294  21.010
15632SOL     OW58523   3.927   4.222   0.934
15632SOL    HW158524   3.994   4.153   0.936
15632SOL    HW258525   3.915   4.241   0.841
15633SOL     OW58526   1.435   1.012   3.221
15633SOL    HW158527   1.452   1.048   3.134
15633SOL    HW258528   1.514   0.962   3.242
15634SOL     OW58529   4.393   0.186  18.597
15634SOL    HW158530   4.409   0.201  18.504
15634SOL    HW258531   4.455   0.242  18.642
15635SOL     OW58532   1.809   1.456  20.135
15635SOL    HW158533   1.794   1.446  20.229
15635SOL    HW258534   1.862   1.535  20.127
15636SOL     OW58535   1.932   1.530   5.714
15636SOL    HW158536   1.880   1.574   5.648
15636SOL    HW258537   1.872   1.515   5.787
15637SOL     OW58538   0.987   3.743  24.979
15637SOL    HW158539   1.026   3.822  25.017
15637SOL    HW258540   0.996   3.677  25.047
15638SOL     OW58541   0.552   1.893   1.865
15638SOL    HW158542   0.567   1.897   1.771
15638SOL    HW258543   0.632   1.930   1.904
15639SOL     OW58544   2.919   2.255   6.178
15639SOL    HW158545   2.895   2.334   6.227
15639SOL    HW258546   3.009   2.269   6.151
15640SOL     OW58547   2.226   4.295  27.476
15640SOL    HW158548   2.202   4.362  27.411
15640SOL    HW258549   2.295   4.336  27.528
15641SOL     OW58550   0.910   0.056  24.277
15641SOL    HW158551   0.997   0.054  24.236
15641SOL    HW258552   0.883   4.745  24.278
15642SOL     OW58553   1.786   2.946  23.641
15642SOL    HW158554   1.784   3.042  23.635
15642SOL    HW258555   1.863   2.927  23.693
15643SOL     OW58556   3.295   2.439  11.492
15643SOL    HW158557   3.380   2.399  11.510
15643SOL    HW258558   3.274   2.413  11.403
15644SOL     OW58559   1.105   3.204  19.777
15644SOL    HW158560   1.011   3.223  19.773
15644SOL    HW258561   1.143   3.257  19.707
15645SOL     OW58562   2.765   2.554  11.650
15645SOL    HW158563   2.796   2.598  11.570
15645SOL    HW258564   2.686   2.508  11.623
15646SOL     OW58565   0.858   2.833  10.093
15646SOL    HW158566   0.927   2.882  10.138
15646SOL    HW258567   0.790   2.821  10.160
15647SOL     OW58568   3.313   3.752  25.315
15647SOL    HW158569   3.287   3.691  25.246
15647SOL    HW258570   3.374   3.812  25.272
15648SOL     OW58571   4.764   0.635  26.860
15648SOL    HW158572   4.683   0.677  26.833
15648SOL    HW258573   4.780   0.568  26.795
15649SOL     OW58574   1.869   3.034  23.969
15649SOL    HW158575   1.837   2.945  23.952
15649SOL    HW258576   1.905   3.029  24.058
15650SOL     OW58577   2.794   0.553  25.103
15650SOL    HW158578   2.716   0.501  25.126
15650SOL    HW258579   2.844   0.558  25.185
15651SOL     OW58580   4.128   0.834  18.947
15651SOL    HW158581   4.163   0.745  18.942
15651SOL    HW258582   4.205   0.891  18.949
15652SOL     OW58583   2.583   4.636  28.333
15652SOL    HW158584   2.604   4.608  28.243
15652SOL    HW258585   2.494   4.606  28.347
15653SOL     OW58586   1.491   0.986  25.940
15653SOL    HW158587   1.478   1.049  25.869
15653SOL    HW258588   1.529   0.909  25.898
15654SOL     OW58589   0.056   0.982  15.345
15654SOL    HW158590   4.756   0.937  15.369
15654SOL    HW258591   0.038   1.020  15.259
15655SOL     OW58592   4.472   1.741   7.284
15655SOL    HW158593   4.505   1.659   7.320
15655SOL    HW258594   4.551   1.794   7.271
15656SOL     OW58595   1.526   0.453  23.917
15656SOL    HW158596   1.465   0.499  23.975
15656SOL    HW258597   1.560   0.381  23.970
15657SOL     OW58598   3.640   4.172  24.479
15657SOL    HW158599   3.722   4.141  24.519
15657SOL    HW258600   3.571   4.123  24.524
15658SOL     OW58601   2.252   0.149   9.258
15658SOL    HW158602   2.323   0.213   9.262
15658SOL    HW258603   2.186   0.182   9.320
15659SOL     OW58604   4.271   2.628  27.666
15659SOL    HW158605   4.286   2.639  27.760
15659SOL    HW258606   4.175   2.632  27.656
15660SOL     OW58607   3.206   3.358   5.325
15660SOL    HW158608   3.154   3.336   5.402
15660SOL    HW258609   3.180   3.448   5.304
15661SOL     OW58610   3.430   2.033  26.393
15661SOL    HW158611   3.480   2.051  26.472
15661SOL    HW258612   3.389   1.948  26.409
15662SOL     OW58613   4.221   3.389   9.861
15662SOL    HW158614   4.303   3.436   9.843
15662SOL    HW258615   4.175   3.388   9.777
15663SOL     OW58616   0.794   0.954   6.584
15663SOL    HW158617   0.839   1.000   6.655
15663SOL    HW258618   0.837   0.868   6.581
15664SOL     OW58619   4.315   0.480   5.447
15664SOL    HW158620   4.279   0.539   5.514
15664SOL    HW258621   4.294   0.392   5.478
15665SOL     OW58622   2.895   0.385  26.896
15665SOL    HW158623   2.911   0.330  26.973
15665SOL    HW258624   2.862   0.324  26.830
15666SOL     OW58625   0.657   0.423  21.523
15666SOL    HW158626   0.712   0.457  21.594
15666SOL    HW258627   0.618   0.344  21.559
15667SOL     OW58628   0.007   4.564   7.651
15667SOL    HW158629   4.721   4.529   7.710
15667SOL    HW258630   0.073   4.601   7.710
15668SOL     OW58631   4.137   4.166  25.381
15668SOL    HW158632   4.097   4.249  25.405
15668SOL    HW258633   4.216   4.191  25.332
15669SOL     OW58634   4.355   3.288  19.764
15669SOL    HW158635   4.280   3.329  19.808
15669SOL    HW258636   4.385   3.222  19.826
15670SOL     OW58637   2.803   2.218   2.306
15670SOL    HW158638   2.854   2.174   2.239
15670SOL    HW258639   2.849   2.199   2.388
15671SOL     OW58640   0.114   3.247   8.719
15671SOL    HW158641   0.141   3.333   8.749
15671SOL    HW258642   0.195   3.203   8.695
15672SOL     OW58643   2.059   0.761  25.442
15672SOL    HW158644   2.147   0.776  25.408
15672SOL    HW258645   2.051   0.666  25.448
15673SOL     OW58646   1.545   1.957   6.869
15673SOL    HW158647   1.475   1.898   6.841
15673SOL    HW258648   1.562   2.011   6.792
15674SOL     OW58649   4.752   0.618   0.120
15674SOL    HW158650   4.768   0.525   0.138
15674SOL    HW258651   4.765   0.627   0.025
15675SOL     OW58652   4.452   3.109  19.967
15675SOL    HW158653   4.408   3.024  19.977
15675SOL    HW258654   4.421   3.161  20.041
15676SOL     OW58655   3.583   1.535  17.330
15676SOL    HW158656   3.542   1.575  17.253
15676SOL    HW258657   3.591   1.442  17.308
15677SOL     OW58658   2.728   2.287  20.263
15677SOL    HW158659   2.656   2.228  20.283
15677SOL    HW258660   2.801   2.230  20.241
15678SOL     OW58661   0.971   4.520   7.497
15678SOL    HW158662   0.907   4.472   7.550
15678SOL    HW258663   0.969   4.609   7.532
15679SOL     OW58664   3.878   1.544  20.425
15679SOL    HW158665   3.945   1.478  20.406
15679SOL    HW258666   3.924   1.627  20.415
15680SOL     OW58667   4.206   0.674  26.688
15680SOL    HW158668   4.212   0.580  26.670
15680SOL    HW258669   4.222   0.681  26.782
15681SOL     OW58670   1.820   1.744  23.153
15681SOL    HW158671   1.730   1.761  23.125
15681SOL    HW258672   1.864   1.709  23.075
15682SOL     OW58673   0.633   2.731  27.303
15682SOL    HW158674   0.611   2.753  27.212
15682SOL    HW258675   0.548   2.721  27.346
15683SOL     OW58676   1.935   2.849   6.751
15683SOL    HW158677   1.903   2.850   6.842
15683SOL    HW258678   1.958   2.757   6.736
15684SOL     OW58679   4.242   0.589   9.403
15684SOL    HW158680   4.213   0.673   9.367
15684SOL    HW258681   4.193   0.580   9.485
15685SOL     OW58682   3.764   1.488  22.104
15685SOL    HW158683   3.820   1.566  22.109
15685SOL    HW258684   3.682   1.520  22.068
15686SOL     OW58685   2.054   1.896  26.235
15686SOL    HW158686   2.131   1.949  26.258
15686SOL    HW258687   2.084   1.841  26.162
15687SOL     OW58688   4.393   1.725  20.489
15687SOL    HW158689   4.324   1.708  20.425
15687SOL    HW258690   4.465   1.668  20.462
15688SOL     OW58691   1.171   4.099  11.165
15688SOL    HW158692   1.091   4.096  11.218
15688SOL    HW258693   1.232   4.042  11.210
15689SOL     OW58694   3.686   1.063  18.187
15689SOL    HW158695   3.606   1.010  18.188
15689SOL    HW258696   3.725   1.045  18.102
15690SOL     OW58697   3.750   3.375  27.091
15690SOL    HW158698   3.835   3.353  27.052
15690SOL    HW258699   3.748   3.471  27.091
15691SOL     OW58700   1.691   1.706  25.128
15691SOL    HW158701   1.724   1.795  25.120
15691SOL    HW258702   1.762   1.658  25.172
15692SOL     OW58703   4.265   1.686   1.172
15692SOL    HW158704   4.273   1.779   1.194
15692SOL    HW258705   4.176   1.662   1.199
15693SOL     OW58706   1.874   1.957  10.913
15693SOL    HW158707   1.943   1.959  10.847
15693SOL    HW258708   1.896   2.027  10.974
15694SOL     OW58709   2.577   0.982   1.814
15694SOL    HW158710   2.595   0.899   1.771
15694SOL    HW258711   2.628   0.979   1.895
15695SOL     OW58712   3.765   0.605   5.561
15695SOL    HW158713   3.791   0.526   5.608
15695SOL    HW258714   3.778   0.584   5.469
15696SOL     OW58715   3.306   4.503  10.153
15696SOL    HW158716   3.259   4.421  10.169
15696SOL    HW258717   3.296   4.553  10.233
15697SOL     OW58718   2.511   3.238   5.306
15697SOL    HW158719   2.554   3.251   5.221
15697SOL    HW258720   2.583   3.217   5.366
15698SOL     OW58721   3.617   1.676   6.648
15698SOL    HW158722   3.710   1.671   6.624
15698SOL    HW258723   3.605   1.768   6.674
15699SOL     OW58724   3.175   1.639  24.549
15699SOL    HW158725   3.157   1.556  24.592
15699SOL    HW258726   3.162   1.705  24.617
15700SOL     OW58727   3.688   0.193  20.408
15700SOL    HW158728   3.753   0.257  20.438
15700SOL    HW258729   3.620   0.246  20.366
15701SOL     OW58730   1.238   4.347  22.221
15701SOL    HW158731   1.208   4.388  22.140
15701SOL    HW258732   1.333   4.357  22.220
15702SOL     OW58733   3.195   2.098  18.924
15702SOL    HW158734   3.171   2.153  18.998
15702SOL    HW258735   3.173   2.150  18.847
15703SOL     OW58736   2.165   0.551   5.736
15703SOL    HW158737   2.151   0.543   5.642
15703SOL    HW258738   2.198   0.466   5.764
15704SOL     OW58739   0.449   4.135   6.994
15704SOL    HW158740   0.529   4.178   7.024
15704SOL    HW258741   0.479   4.066   6.935
15705SOL     OW58742   4.276   1.377   3.297
15705SOL    HW158743   4.189   1.402   3.327
15705SOL    HW258744   4.335   1.437   3.343
15706SOL     OW58745   3.639   4.377   8.884
15706SOL    HW158746   3.622   4.327   8.964
15706SOL    HW258747   3.587   4.457   8.894
15707SOL     OW58748   1.579   0.404   2.844
15707SOL    HW158749   1.505   0.372   2.793
15707SOL    HW258750   1.540   0.441   2.923
15708SOL     OW58751   3.362   0.982   6.575
15708SOL    HW158752   3.337   1.055   6.519
15708SOL    HW258753   3.306   0.989   6.652
15709SOL     OW58754   4.269   3.545  25.968
15709SOL    HW158755   4.337   3.612  25.967
15709SOL    HW258756   4.310   3.467  25.932
15710SOL     OW58757   0.388   1.321  21.579
15710SOL    HW158758   0.295   1.298  21.585
15710SOL    HW258759   0.432   1.258  21.635
15711SOL     OW58760   4.093   4.141   9.651
15711SOL    HW158761   4.154   4.073   9.620
15711SOL    HW258762   4.097   4.134   9.747
15712SOL     OW58763   2.687   3.377  20.361
15712SOL    HW158764   2.651   3.355  20.447
15712SOL    HW258765   2.626   3.336  20.299
15713SOL     OW58766   2.576   0.329  24.865
15713SOL    HW158767   2.519   0.401  24.840
15713SOL    HW258768   2.517   0.260  24.895
15714SOL     OW58769   1.387   3.284   1.371
15714SOL    HW158770   1.370   3.190   1.382
15714SOL    HW258771   1.418   3.313   1.457
15715SOL     OW58772   0.913   1.725   7.920
15715SOL    HW158773   0.971   1.661   7.963
15715SOL    HW258774   0.891   1.787   7.989
15716SOL     OW58775   1.852   2.633  20.008
15716SOL    HW158776   1.756   2.630  20.005
15716SOL    HW258777   1.878   2.659  19.920
15717SOL     OW58778   3.673   3.152  19.882
15717SOL    HW158779   3.595   3.099  19.899
15717SOL    HW258780   3.675   3.161  19.787
15718SOL     OW58781   2.556   3.645   4.152
15718SOL    HW158782   2.519   3.569   4.196
15718SOL    HW258783   2.647   3.648   4.180
15719SOL     OW58784   1.253   0.738  25.840
15719SOL    HW158785   1.198   0.719  25.764
15719SOL    HW258786   1.215   0.816  25.879
15720SOL     OW58787   4.602   2.140   2.877
15720SOL    HW158788   4.552   2.098   2.947
15720SOL    HW258789   4.549   2.128   2.798
15721SOL     OW58790   4.370   0.261  22.312
15721SOL    HW158791   4.375   0.321  22.238
15721SOL    HW258792   4.430   0.190  22.290
15722SOL     OW58793   2.631   1.789  24.934
15722SOL    HW158794   2.675   1.785  24.849
15722SOL    HW258795   2.701   1.809  24.997
15723SOL     OW58796   1.012   1.705  26.016
15723SOL    HW158797   1.101   1.703  26.049
15723SOL    HW258798   1.019   1.748  25.930
15724SOL     OW58799   4.670   0.031  25.354
15724SOL    HW158800   4.712   4.743  25.406
15724SOL    HW258801   4.736   0.100  25.350
15725SOL     OW58802   4.707   2.647  25.601
15725SOL    HW158803   4.670   2.733  25.621
15725SOL    HW258804   4.743   2.656  25.513
15726SOL     OW58805   1.561   4.728  24.193
15726SOL    HW158806   1.571   4.652  24.136
15726SOL    HW258807   1.565   4.692  24.282
15727SOL     OW58808   3.010   4.556   4.474
15727SOL    HW158809   2.940   4.539   4.538
15727SOL    HW258810   3.024   4.650   4.478
15728SOL     OW58811   3.209   2.849  20.926
15728SOL    HW158812   3.280   2.838  20.990
15728SOL    HW258813   3.190   2.761  20.896
15729SOL     OW58814   0.773   1.832   9.253
15729SOL    HW158815   0.678   1.821   9.243
15729SOL    HW258816   0.791   1.812   9.344
15730SOL     OW58817   4.160   0.648   7.415
15730SOL    HW158818   4.188   0.643   7.506
15730SOL    HW258819   4.218   0.715   7.376
15731SOL     OW58820   0.541   1.742  27.874
15731SOL    HW158821   0.513   1.820  27.920
15731SOL    HW258822   0.617   1.770  27.823
15732SOL     OW58823   3.880   3.426  26.493
15732SOL    HW158824   3.936   3.351  26.472
15732SOL    HW258825   3.826   3.439  26.416
15733SOL     OW58826   0.986   0.970   5.398
15733SOL    HW158827   0.939   1.029   5.457
15733SOL    HW258828   1.073   1.009   5.387
15734SOL     OW58829   0.390   0.862  24.333
15734SOL    HW158830   0.300   0.873  24.301
15734SOL    HW258831   0.443   0.862  24.254
15735SOL     OW58832   2.518   1.790   4.257
15735SOL    HW158833   2.543   1.850   4.327
15735SOL    HW258834   2.601   1.765   4.216
15736SOL     OW58835   0.047   3.850  10.156
15736SOL    HW158836   0.099   3.788  10.207
15736SOL    HW258837   0.079   3.839  10.066
15737SOL     OW58838   3.943   2.003   2.643
15737SOL    HW158839   4.029   2.045   2.646
15737SOL    HW258840   3.944   1.941   2.717
15738SOL     OW58841   2.118   4.189  28.194
15738SOL    HW158842   2.027   4.175  28.169
15738SOL    HW258843   2.125   4.153  28.283
15739SOL     OW58844   4.256   0.519  21.380
15739SOL    HW158845   4.238   0.549  21.469
15739SOL    HW258846   4.351   0.517  21.374
15740SOL     OW58847   4.376   0.792   2.146
15740SOL    HW158848   4.291   0.765   2.110
15740SOL    HW258849   4.399   0.870   2.097
15741SOL     OW58850   2.193   4.427   3.281
15741SOL    HW158851   2.176   4.521   3.274
15741SOL    HW258852   2.206   4.411   3.375
15742SOL     OW58853   0.263   4.743  21.736
15742SOL    HW158854   0.215   0.039  21.767
15742SOL    HW258855   0.217   4.669  21.776
15743SOL     OW58856   0.463   1.096   3.188
15743SOL    HW158857   0.394   1.146   3.232
15743SOL    HW258858   0.519   1.164   3.148
15744SOL     OW58859   2.977   1.545   9.444
15744SOL    HW158860   3.037   1.611   9.479
15744SOL    HW258861   2.907   1.540   9.508
15745SOL     OW58862   1.803   0.121  22.639
15745SOL    HW158863   1.830   0.057  22.573
15745SOL    HW258864   1.755   0.188  22.589
15746SOL     OW58865   1.227   1.225   0.291
15746SOL    HW158866   1.176   1.292   0.244
15746SOL    HW258867   1.164   1.186   0.352
15747SOL     OW58868   4.105   2.655  21.314
15747SOL    HW158869   4.140   2.584  21.367
15747SOL    HW258870   4.021   2.676  21.355
15748SOL     OW58871   2.898   2.312   7.712
15748SOL    HW158872   2.913   2.218   7.718
15748SOL    HW258873   2.908   2.344   7.802
15749SOL     OW58874   2.339   0.133  21.504
15749SOL    HW158875   2.283   0.057  21.486
15749SOL    HW258876   2.410   0.126  21.440
15750SOL     OW58877   1.534   0.070  25.417
15750SOL    HW158878   1.558   0.160  25.440
15750SOL    HW258879   1.617   0.022  25.416
15751SOL     OW58880   2.499   4.632   1.708
15751SOL    HW158881   2.428   4.671   1.657
15751SOL    HW258882   2.478   4.538   1.709
15752SOL     OW58883   2.459   0.574   8.541
15752SOL    HW158884   2.503   0.619   8.613
15752SOL    HW258885   2.488   0.620   8.462
15753SOL     OW58886   1.095   3.717   0.253
15753SOL    HW158887   1.056   3.731   0.167
15753SOL    HW258888   1.027   3.745   0.315
15754SOL     OW58889   2.445   4.215  22.608
15754SOL    HW158890   2.491   4.141  22.648
15754SOL    HW258891   2.390   4.250  22.678
15755SOL     OW58892   2.148   2.529  26.673
15755SOL    HW158893   2.240   2.503  26.667
15755SOL    HW258894   2.121   2.504  26.762
15756SOL     OW58895   2.039   3.964   4.941
15756SOL    HW158896   2.129   3.937   4.923
15756SOL    HW258897   2.026   4.040   4.883
15757SOL     OW58898   1.519   1.144   7.076
15757SOL    HW158899   1.448   1.108   7.023
15757SOL    HW258900   1.595   1.091   7.054
15758SOL     OW58901   4.606   4.504   7.848
15758SOL    HW158902   4.611   4.600   7.849
15758SOL    HW258903   4.675   4.475   7.908
15759SOL     OW58904   4.703   3.177   4.159
15759SOL    HW158905   4.612   3.169   4.188
15759SOL    HW258906   4.722   3.094   4.116
15760SOL     OW58907   2.242   0.927   4.510
15760SOL    HW158908   2.233   0.843   4.465
15760SOL    HW258909   2.236   0.992   4.440
15761SOL     OW58910   1.755   1.413   6.824
15761SOL    HW158911   1.670   1.444   6.857
15761SOL    HW258912   1.755   1.438   6.732
15762SOL     OW58913   4.480   2.380   4.231
15762SOL    HW158914   4.534   2.355   4.156
15762SOL    HW258915   4.391   2.383   4.197
15763SOL     OW58916   1.391   4.719   4.208
15763SOL    HW158917   1.447   4.648   4.176
15763SOL    HW258918   1.453   0.004   4.241
15764SOL     OW58919   2.354   3.086   6.406
15764SOL    HW158920   2.284   3.145   6.380
15764SOL    HW258921   2.389   3.123   6.487
15765SOL     OW58922   0.844   4.460  22.097
15765SOL    HW158923   0.792   4.478  22.019
15765SOL    HW258924   0.907   4.393  22.070
15766SOL     OW58925   1.569   1.852   4.487
15766SOL    HW158926   1.557   1.832   4.580
15766SOL    HW258927   1.567   1.767   4.444
15767SOL     OW58928   0.230   3.622   9.228
15767SOL    HW158929   0.181   3.551   9.270
15767SOL    HW258930   0.196   3.702   9.268
15768SOL     OW58931   1.942   3.824  26.253
15768SOL    HW158932   1.993   3.876  26.314
15768SOL    HW258933   1.917   3.887  26.184
15769SOL     OW58934   2.644   0.176  26.209
15769SOL    HW158935   2.599   0.113  26.266
15769SOL    HW258936   2.585   0.189  26.135
15770SOL     OW58937   0.977   0.613   6.258
15770SOL    HW158938   0.943   0.629   6.346
15770SOL    HW258939   0.899   0.604   6.204
15771SOL     OW58940   4.040   2.378  24.649
15771SOL    HW158941   4.061   2.335  24.732
15771SOL    HW258942   4.098   2.335  24.585
15772SOL     OW58943   2.412   2.629   3.083
15772SOL    HW158944   2.337   2.665   3.035
15772SOL    HW258945   2.373   2.564   3.141
15773SOL     OW58946   2.871   2.654  27.542
15773SOL    HW158947   2.936   2.704  27.492
15773SOL    HW258948   2.813   2.721  27.579
15774SOL     OW58949   3.698   2.767  18.945
15774SOL    HW158950   3.629   2.718  18.990
15774SOL    HW258951   3.665   2.778  18.856
15775SOL     OW58952   1.071   0.191   9.809
15775SOL    HW158953   1.061   0.166   9.717
15775SOL    HW258954   1.165   0.198   9.822
15776SOL     OW58955   2.119   0.837   3.253
15776SOL    HW158956   2.201   0.799   3.221
15776SOL    HW258957   2.093   0.781   3.326
15777SOL     OW58958   1.803   2.282  18.386
15777SOL    HW158959   1.771   2.273  18.476
15777SOL    HW258960   1.889   2.323  18.396
15778SOL     OW58961   3.926   4.364  10.410
15778SOL    HW158962   3.883   4.279  10.420
15778SOL    HW258963   3.949   4.390  10.499
15779SOL     OW58964   1.994   2.607  25.002
15779SOL    HW158965   1.966   2.516  24.992
15779SOL    HW258966   1.915   2.653  25.030
15780SOL     OW58967   2.789   0.506  24.571
15780SOL    HW158968   2.867   0.451  24.569
15780SOL    HW258969   2.816   0.584  24.619
15781SOL     OW58970   2.501   3.291  27.516
15781SOL    HW158971   2.416   3.253  27.537
15781SOL    HW258972   2.562   3.217  27.518
15782SOL     OW58973   4.625   1.494  10.909
15782SOL    HW158974   4.563   1.528  10.974
15782SOL    HW258975   4.629   1.400  10.927
15783SOL     OW58976   2.381   3.625   6.144
15783SOL    HW158977   2.396   3.701   6.200
15783SOL    HW258978   2.287   3.612   6.147
15784SOL     OW58979   3.324   1.771   4.014
15784SOL    HW158980   3.377   1.767   3.935
15784SOL    HW258981   3.329   1.683   4.051
15785SOL     OW58982   3.192   4.521  27.001
15785SOL    HW158983   3.220   4.606  26.968
15785SOL    HW258984   3.273   4.469  27.004
15786SOL     OW58985   0.377   4.089  27.937
15786SOL    HW158986   0.428   4.008  27.944
15786SOL    HW258987   0.442   4.157  27.922
15787SOL     OW58988   0.151   1.001   6.520
15787SOL    HW158989   0.185   0.971   6.436
15787SOL    HW258990   0.128   0.921   6.567
15788SOL     OW58991   0.106   1.128   8.943
15788SOL    HW158992   0.146   1.051   8.983
15788SOL    HW258993   0.043   1.093   8.880
15789SOL     OW58994   2.585   3.329  19.866
15789SOL    HW158995   2.554   3.271  19.796
15789SOL    HW258996   2.609   3.410  19.821
15790SOL     OW58997   4.422   1.574  24.693
15790SOL    HW158998   4.425   1.531  24.608
15790SOL    HW258999   4.341   1.542  24.733
15791SOL     OW59000   2.877   3.593  18.157
15791SOL    HW159001   2.876   3.571  18.064
15791SOL    HW259002   2.803   3.652  18.168
15792SOL     OW59003   1.225   2.088   0.272
15792SOL    HW159004   1.198   1.996   0.274
15792SOL    HW259005   1.231   2.110   0.179
15793SOL     OW59006   0.824   3.954  24.186
15793SOL    HW159007   0.743   3.958  24.136
15793SOL    HW259008   0.891   3.990  24.127
15794SOL     OW59009   0.036   2.336   8.237
15794SOL    HW159010   0.008   2.413   8.188
15794SOL    HW259011   0.100   2.293   8.181
15795SOL     OW59012   3.239   0.048  23.151
15795SOL    HW159013   3.221   0.141  23.134
15795SOL    HW259014   3.167   0.019  23.206
15796SOL     OW59015   4.701   1.322  25.844
15796SOL    HW159016   4.728   1.325  25.752
15796SOL    HW259017   4.649   1.401  25.856
15797SOL     OW59018   4.275   0.559  26.122
15797SOL    HW159019   4.218   0.634  26.142
15797SOL    HW259020   4.316   0.581  26.039
15798SOL     OW59021   1.427   4.037  21.184
15798SOL    HW159022   1.473   3.954  21.187
15798SOL    HW259023   1.467   4.085  21.112
15799SOL     OW59024   0.173   3.230  21.657
15799SOL    HW159025   0.221   3.152  21.684
15799SOL    HW259026   0.239   3.287  21.618
15800SOL     OW59027   3.995   4.630  25.614
15800SOL    HW159028   4.004   4.707  25.558
15800SOL    HW259029   3.903   4.603  25.603
15801SOL     OW59030   0.883   0.636   4.632
15801SOL    HW159031   0.940   0.675   4.565
15801SOL    HW259032   0.942   0.586   4.688
15802SOL     OW59033   0.005   3.434  25.899
15802SOL    HW159034   0.033   3.389  25.978
15802SOL    HW259035   0.066   3.506  25.887
15803SOL     OW59036   1.992   2.779   7.800
15803SOL    HW159037   1.999   2.685   7.781
15803SOL    HW259038   1.898   2.797   7.795
15804SOL     OW59039   2.958   1.332   9.847
15804SOL    HW159040   3.016   1.405   9.868
15804SOL    HW259041   2.939   1.292   9.932
15805SOL     OW59042   0.096   3.996  21.530
15805SOL    HW159043   0.191   3.993  21.545
15805SOL    HW259044   0.068   4.077  21.572
15806SOL     OW59045   0.845   1.211  10.019
15806SOL    HW159046   0.872   1.190  10.108
15806SOL    HW259047   0.852   1.306  10.014
15807SOL     OW59048   4.778   3.895   4.491
15807SOL    HW159049   0.070   3.937   4.445
15807SOL    HW259050   4.766   3.948   4.570
15808SOL     OW59051   1.315   3.321  19.983
15808SOL    HW159052   1.268   3.302  19.902
15808SOL    HW259053   1.359   3.239  20.006
15809SOL     OW59054   2.197   0.132   7.446
15809SOL    HW159055   2.246   0.124   7.528
15809SOL    HW259056   2.133   0.201   7.464
15810SOL     OW59057   2.305   1.931   9.291
15810SOL    HW159058   2.226   1.879   9.300
15810SOL    HW259059   2.277   2.011   9.245
15811SOL     OW59060   3.708   0.081  10.895
15811SOL    HW159061   3.662   0.162  10.876
15811SOL    HW259062   3.692   0.065  10.988
15812SOL     OW59063   1.320   4.404  11.346
15812SOL    HW159064   1.347   4.493  11.368
15812SOL    HW259065   1.305   4.362  11.431
15813SOL     OW59066   4.578   2.694  24.792
15813SOL    HW159067   4.626   2.615  24.768
15813SOL    HW259068   4.645   2.763  24.791
15814SOL     OW59069   1.740   1.081  19.460
15814SOL    HW159070   1.819   1.029  19.447
15814SOL    HW259071   1.764   1.145  19.527
15815SOL     OW59072   1.363   2.496  25.133
15815SOL    HW159073   1.329   2.562  25.073
15815SOL    HW259074   1.373   2.541  25.216
15816SOL     OW59075   2.298   4.268   5.593
15816SOL    HW159076   2.389   4.274   5.622
15816SOL    HW259077   2.275   4.176   5.605
15817SOL     OW59078   2.203   2.612  11.579
15817SOL    HW159079   2.140   2.540  11.576
15817SOL    HW259080   2.164   2.676  11.639
15818SOL     OW59081   0.571   3.406   2.378
15818SOL    HW159082   0.578   3.364   2.464
15818SOL    HW259083   0.656   3.449   2.366
15819SOL     OW59084   4.733   1.505   4.920
15819SOL    HW159085   4.752   1.475   4.832
15819SOL    HW259086   4.778   1.589   4.928
15820SOL     OW59087   2.170   3.581  26.590
15820SOL    HW159088   2.185   3.578  26.685
15820SOL    HW259089   2.123   3.664  26.576
15821SOL     OW59090   4.478   1.983   6.142
15821SOL    HW159091   4.540   1.911   6.135
15821SOL    HW259092   4.392   1.943   6.134
15822SOL     OW59093   4.460   1.615   3.328
15822SOL    HW159094   4.423   1.700   3.353
15822SOL    HW259095   4.496   1.630   3.241
15823SOL     OW59096   4.211   3.533   4.654
15823SOL    HW159097   4.148   3.585   4.603
15823SOL    HW259098   4.289   3.588   4.659
15824SOL     OW59099   4.170   0.289  21.241
15824SOL    HW159100   4.184   0.365  21.299
15824SOL    HW259101   4.246   0.290  21.183
15825SOL     OW59102   1.128   1.621  27.306
15825SOL    HW159103   1.200   1.668  27.348
15825SOL    HW259104   1.160   1.603  27.217
15826SOL     OW59105   0.662   0.046   1.568
15826SOL    HW159106   0.688   0.058   1.659
15826SOL    HW259107   0.632   4.736   1.563
15827SOL     OW59108   1.492   1.610   1.643
15827SOL    HW159109   1.504   1.663   1.722
15827SOL    HW259110   1.477   1.674   1.574
15828SOL     OW59111   2.537   2.885   8.772
15828SOL    HW159112   2.534   2.860   8.865
15828SOL    HW259113   2.548   2.802   8.726
15829SOL     OW59114   4.371   1.077  22.726
15829SOL    HW159115   4.373   1.095  22.632
15829SOL    HW259116   4.396   1.161  22.766
15830SOL     OW59117   2.739   1.546   0.033
15830SOL    HW159118   2.667   1.506   0.082
15830SOL    HW259119   2.817   1.497   0.060
15831SOL     OW59120   3.177   1.935  26.806
15831SOL    HW159121   3.139   1.848  26.790
15831SOL    HW259122   3.135   1.965  26.886
15832SOL     OW59123   1.381   0.713  26.175
15832SOL    HW159124   1.405   0.804  26.194
15832SOL    HW259125   1.458   0.677  26.131
15833SOL     OW59126   2.952   2.099  22.598
15833SOL    HW159127   2.928   2.121  22.688
15833SOL    HW259128   2.925   2.175  22.547
15834SOL     OW59129   1.267   2.952   0.750
15834SOL    HW159130   1.299   3.028   0.799
15834SOL    HW259131   1.295   2.968   0.660
15835SOL     OW59132   2.753   1.238  21.349
15835SOL    HW159133   2.711   1.320  21.376
15835SOL    HW259134   2.825   1.264  21.292
15836SOL     OW59135   0.403   3.493  19.654
15836SOL    HW159136   0.396   3.569  19.597
15836SOL    HW259137   0.313   3.473  19.679
15837SOL     OW59138   2.747   2.339   3.009
15837SOL    HW159139   2.749   2.339   3.105
15837SOL    HW259140   2.669   2.390   2.987
15838SOL     OW59141   1.952   4.675   2.161
15838SOL    HW159142   1.996   4.685   2.076
15838SOL    HW259143   1.905   4.591   2.153
15839SOL     OW59144   4.137   3.366   6.827
15839SOL    HW159145   4.193   3.402   6.896
15839SOL    HW259146   4.049   3.393   6.851
15840SOL     OW59147   2.899   2.472  17.318
15840SOL    HW159148   2.840   2.510  17.252
15840SOL    HW259149   2.979   2.525  17.311
15841SOL     OW59150   2.814   3.479  28.324
15841SOL    HW159151   2.879   3.488  28.254
15841SOL    HW259152   2.761   3.404  28.298
15842SOL     OW59153   0.760   3.202  21.171
15842SOL    HW159154   0.800   3.158  21.096
15842SOL    HW259155   0.755   3.294  21.144
15843SOL     OW59156   0.120   3.228  19.767
15843SOL    HW159157   0.147   3.320  19.761
15843SOL    HW259158   0.197   3.182  19.799
15844SOL     OW59159   0.165   3.940  23.742
15844SOL    HW159160   0.150   3.981  23.657
15844SOL    HW259161   0.161   3.846  23.723
15845SOL     OW59162   2.918   0.380   2.712
15845SOL    HW159163   2.941   0.310   2.651
15845SOL    HW259164   2.995   0.389   2.768
15846SOL     OW59165   0.023   4.123  22.316
15846SOL    HW159166   0.037   4.094  22.226
15846SOL    HW259167   0.072   4.205  22.323
15847SOL     OW59168   3.395   2.804   0.786
15847SOL    HW159169   3.346   2.746   0.845
15847SOL    HW259170   3.436   2.868   0.844
15848SOL     OW59171   2.480   1.437   7.245
15848SOL    HW159172   2.498   1.521   7.203
15848SOL    HW259173   2.401   1.405   7.201
15849SOL     OW59174   0.492   0.742   3.533
15849SOL    HW159175   0.483   0.688   3.612
15849SOL    HW259176   0.433   0.701   3.470
15850SOL     OW59177   3.538   3.482   7.058
15850SOL    HW159178   3.447   3.485   7.087
15850SOL    HW259179   3.547   3.398   7.013
15851SOL     OW59180   2.328   1.855   4.737
15851SOL    HW159181   2.295   1.848   4.827
15851SOL    HW259182   2.279   1.928   4.699
15852SOL     OW59183   2.938   2.782  22.950
15852SOL    HW159184   2.968   2.772  23.040
15852SOL    HW259185   2.992   2.852  22.914
15853SOL     OW59186   0.687   0.717   1.314
15853SOL    HW159187   0.687   0.798   1.264
15853SOL    HW259188   0.598   0.683   1.306
15854SOL     OW59189   1.149   4.777  22.862
15854SOL    HW159190   1.076   4.746  22.916
15854SOL    HW259191   1.227   4.747  22.907
15855SOL     OW59192   4.392   3.685   5.714
15855SOL    HW159193   4.433   3.698   5.629
15855SOL    HW259194   4.308   3.731   5.708
15856SOL     OW59195   4.636   1.497  17.892
15856SOL    HW159196   4.610   1.414  17.853
15856SOL    HW259197   4.697   1.473  17.962
15857SOL     OW59198   0.673   1.745   5.488
15857SOL    HW159199   0.671   1.781   5.576
15857SOL    HW259200   0.642   1.816   5.432
15858SOL     OW59201   0.961   2.882  23.249
15858SOL    HW159202   1.041   2.890  23.300
15858SOL    HW259203   0.943   2.788  23.246
15859SOL     OW59204   2.556   3.567   9.757
15859SOL    HW159205   2.636   3.616   9.776
15859SOL    HW259206   2.486   3.623   9.791
15860SOL     OW59207   0.022   4.607   5.217
15860SOL    HW159208   0.088   4.552   5.258
15860SOL    HW259209   4.725   4.551   5.212
15861SOL     OW59210   4.482   0.548   5.065
15861SOL    HW159211   4.537   0.615   5.024
15861SOL    HW259212   4.481   0.476   5.002
15862SOL     OW59213   1.941   2.357   9.653
15862SOL    HW159214   1.996   2.318   9.585
15862SOL    HW259215   1.940   2.450   9.631
15863SOL     OW59216   1.875   1.415  24.441
15863SOL    HW159217   1.828   1.386  24.519
15863SOL    HW259218   1.967   1.415  24.467
15864SOL     OW59219   2.031   0.377  27.952
15864SOL    HW159220   1.996   0.398  28.038
15864SOL    HW259221   2.102   0.315  27.969
15865SOL     OW59222   1.962   1.873   6.147
15865SOL    HW159223   1.965   1.783   6.113
15865SOL    HW259224   2.030   1.919   6.098
15866SOL     OW59225   0.219   3.739   3.475
15866SOL    HW159226   0.194   3.817   3.424
15866SOL    HW259227   0.156   3.736   3.547
15867SOL     OW59228   1.877   2.671   9.850
15867SOL    HW159229   1.825   2.704   9.777
15867SOL    HW259230   1.967   2.694   9.827
15868SOL     OW59231   4.305   2.329  27.598
15868SOL    HW159232   4.311   2.423  27.579
15868SOL    HW259233   4.237   2.322  27.666
15869SOL     OW59234   1.388   2.479  26.321
15869SOL    HW159235   1.417   2.429  26.245
15869SOL    HW259236   1.464   2.532  26.345
15870SOL     OW59237   1.928   1.957  26.713
15870SOL    HW159238   1.895   1.955  26.803
15870SOL    HW259239   1.898   2.042  26.679
15871SOL     OW59240   1.911   0.153   0.579
15871SOL    HW159241   1.879   0.152   0.489
15871SOL    HW259242   1.872   0.076   0.620
15872SOL     OW59243   1.872   2.817   5.713
15872SOL    HW159244   1.892   2.742   5.657
15872SOL    HW259245   1.799   2.787   5.768
15873SOL     OW59246   0.841   1.848  19.841
15873SOL    HW159247   0.872   1.760  19.862
15873SOL    HW259248   0.798   1.839  19.756
15874SOL     OW59249   2.295   4.236   9.652
15874SOL    HW159250   2.390   4.226   9.664
15874SOL    HW259251   2.256   4.195   9.729
15875SOL     OW59252   4.405   1.769   9.668
15875SOL    HW159253   4.320   1.805   9.693
15875SOL    HW259254   4.414   1.790   9.575
15876SOL     OW59255   4.103   0.223   3.517
15876SOL    HW159256   4.146   0.138   3.521
15876SOL    HW259257   4.148   0.270   3.448
15877SOL     OW59258   2.741   4.213  25.522
15877SOL    HW159259   2.726   4.226  25.616
15877SOL    HW259260   2.679   4.146  25.496
15878SOL     OW59261   3.233   0.823   5.155
15878SOL    HW159262   3.151   0.833   5.203
15878SOL    HW259263   3.273   0.909   5.156
15879SOL     OW59264   2.961   2.284  24.196
15879SOL    HW159265   2.947   2.333  24.277
15879SOL    HW259266   3.024   2.216  24.219
15880SOL     OW59267   3.124   3.176   7.577
15880SOL    HW159268   3.094   3.265   7.595
15880SOL    HW259269   3.094   3.159   7.488
15881SOL     OW59270   4.060   2.535  25.979
15881SOL    HW159271   4.156   2.535  25.981
15881SOL    HW259272   4.034   2.580  26.060
15882SOL     OW59273   2.940   1.301  19.306
15882SOL    HW159274   2.975   1.224  19.351
15882SOL    HW259275   2.960   1.375  19.364
15883SOL     OW59276   3.049   3.371  27.224
15883SOL    HW159277   3.007   3.439  27.172
15883SOL    HW259278   3.011   3.381  27.312
15884SOL     OW59279   4.673   2.391  27.570
15884SOL    HW159280   4.688   2.479  27.535
15884SOL    HW259281   4.644   2.407  27.660
15885SOL     OW59282   0.578   0.983  22.626
15885SOL    HW159283   0.544   0.969  22.714
15885SOL    HW259284   0.517   0.935  22.569
15886SOL     OW59285   2.754   2.632   4.378
15886SOL    HW159286   2.756   2.545   4.337
15886SOL    HW259287   2.719   2.617   4.466
15887SOL     OW59288   1.482   0.280  10.389
15887SOL    HW159289   1.504   0.226  10.465
15887SOL    HW259290   1.451   0.362  10.426
15888SOL     OW59291   1.811   4.724  21.060
15888SOL    HW159292   1.734   4.673  21.035
15888SOL    HW259293   1.793   4.753  21.149
15889SOL     OW59294   2.249   1.229   6.611
15889SOL    HW159295   2.188   1.247   6.682
15889SOL    HW259296   2.253   1.133   6.607
15890SOL     OW59297   4.607   0.162   8.243
15890SOL    HW159298   4.562   0.194   8.321
15890SOL    HW259299   4.638   0.075   8.267
15891SOL     OW59300   1.065   3.410   2.323
15891SOL    HW159301   0.997   3.468   2.358
15891SOL    HW259302   1.145   3.439   2.366
15892SOL     OW59303   1.278   1.522  27.108
15892SOL    HW159304   1.285   1.430  27.131
15892SOL    HW259305   1.355   1.539  27.053
15893SOL     OW59306   0.843   0.096   4.793
15893SOL    HW159307   0.790   0.116   4.717
15893SOL    HW259308   0.852   0.179   4.839
15894SOL     OW59309   0.497   4.266   7.944
15894SOL    HW159310   0.508   4.263   7.849
15894SOL    HW259311   0.575   4.224   7.979
15895SOL     OW59312   3.086   1.891   3.269
15895SOL    HW159313   3.129   1.942   3.337
15895SOL    HW259314   3.108   1.936   3.187
15896SOL     OW59315   0.915   2.866   4.553
15896SOL    HW159316   0.958   2.938   4.600
15896SOL    HW259317   0.974   2.791   4.564
15897SOL     OW59318   1.254   3.974  22.955
15897SOL    HW159319   1.349   3.974  22.962
15897SOL    HW259320   1.233   4.045  22.894
15898SOL     OW59321   0.399   4.061  22.824
15898SOL    HW159322   0.463   3.991  22.839
15898SOL    HW259323   0.435   4.137  22.869
15899SOL     OW59324   0.091   0.456  21.916
15899SOL    HW159325   0.022   0.509  21.876
15899SOL    HW259326   0.159   0.518  21.940
15900SOL     OW59327   1.084   3.256  19.223
15900SOL    HW159328   1.115   3.344  19.203
15900SOL    HW259329   1.033   3.231  19.146
15901SOL     OW59330   2.863   3.337   9.764
15901SOL    HW159331   2.929   3.311   9.699
15901SOL    HW259332   2.834   3.255   9.803
15902SOL     OW59333   2.198   0.380  22.172
15902SOL    HW159334   2.292   0.365  22.187
15902SOL    HW259335   2.163   0.294  22.149
15903SOL     OW59336   0.102   0.209   2.331
15903SOL    HW159337   0.089   0.246   2.243
15903SOL    HW259338   0.072   0.278   2.390
15904SOL     OW59339   4.097   1.446   6.243
15904SOL    HW159340   4.094   1.418   6.335
15904SOL    HW259341   4.092   1.542   6.248
15905SOL     OW59342   4.760   1.007  24.567
15905SOL    HW159343   4.677   1.053  24.581
15905SOL    HW259344   4.758   0.982  24.474
15906SOL     OW59345   2.731   1.319   5.240
15906SOL    HW159346   2.820   1.331   5.272
15906SOL    HW259347   2.680   1.296   5.318
15907SOL     OW59348   2.637   1.523   0.635
15907SOL    HW159349   2.612   1.436   0.668
15907SOL    HW259350   2.732   1.526   0.650
15908SOL     OW59351   2.212   1.918  19.730
15908SOL    HW159352   2.166   1.997  19.759
15908SOL    HW259353   2.179   1.903  19.641
15909SOL     OW59354   1.024   2.492  24.536
15909SOL    HW159355   1.042   2.462  24.626
15909SOL    HW259356   1.012   2.411  24.486
15910SOL     OW59357   2.598   4.371   6.755
15910SOL    HW159358   2.686   4.363   6.718
15910SOL    HW259359   2.604   4.325   6.839
15911SOL     OW59360   1.239   4.177  22.775
15911SOL    HW159361   1.215   4.121  22.701
15911SOL    HW259362   1.169   4.241  22.780
15912SOL     OW59363   1.994   3.399  26.697
15912SOL    HW159364   2.059   3.446  26.644
15912SOL    HW259365   2.002   3.437  26.784
15913SOL     OW59366   0.126   1.171   7.532
15913SOL    HW159367   0.117   1.088   7.578
15913SOL    HW259368   0.219   1.177   7.511
15914SOL     OW59369   4.124   0.754  25.110
15914SOL    HW159370   4.080   0.774  25.027
15914SOL    HW259371   4.196   0.817  25.113
15915SOL     OW59372   1.088   2.320   1.974
15915SOL    HW159373   1.135   2.237   1.983
15915SOL    HW259374   1.155   2.382   1.946
15916SOL     OW59375   0.130   4.032  20.748
15916SOL    HW159376   0.147   4.021  20.655
15916SOL    HW259377   0.045   3.990  20.761
15917SOL     OW59378   0.066   1.089  27.476
15917SOL    HW159379   0.133   1.143  27.517
15917SOL    HW259380   0.114   1.033  27.415
15918SOL     OW59381   2.526   4.183  28.163
15918SOL    HW159382   2.605   4.234  28.183
15918SOL    HW259383   2.485   4.168  28.248
15919SOL     OW59384   0.139   2.871   2.990
15919SOL    HW159385   0.197   2.930   3.038
15919SOL    HW259386   0.145   2.901   2.899
15920SOL     OW59387   0.923   3.060  23.022
15920SOL    HW159388   0.936   3.003  23.098
15920SOL    HW259389   0.984   3.026  22.956
15921SOL     OW59390   3.100   0.111   7.079
15921SOL    HW159391   3.041   0.144   7.147
15921SOL    HW259392   3.182   0.157   7.094
15922SOL     OW59393   1.482   2.341   6.405
15922SOL    HW159394   1.538   2.417   6.390
15922SOL    HW259395   1.462   2.308   6.318
15923SOL     OW59396   3.644   3.639   9.686
15923SOL    HW159397   3.675   3.727   9.708
15923SOL    HW259398   3.597   3.610   9.764
15924SOL     OW59399   1.672   0.160  26.753
15924SOL    HW159400   1.632   0.242  26.782
15924SOL    HW259401   1.762   0.164  26.787
15925SOL     OW59402   0.470   2.540   6.595
15925SOL    HW159403   0.448   2.543   6.502
15925SOL    HW259404   0.559   2.505   6.597
15926SOL     OW59405   0.339   2.461  21.121
15926SOL    HW159406   0.433   2.470  21.108
15926SOL    HW259407   0.327   2.470  21.215
15927SOL     OW59408   1.520   4.152  23.471
15927SOL    HW159409   1.549   4.177  23.559
15927SOL    HW259410   1.577   4.079  23.447
15928SOL     OW59411   4.454   1.674   8.073
15928SOL    HW159412   4.490   1.684   7.985
15928SOL    HW259413   4.444   1.764   8.105
15929SOL     OW59414   0.802   0.704  11.119
15929SOL    HW159415   0.824   0.795  11.138
15929SOL    HW259416   0.765   0.670  11.200
15930SOL     OW59417   4.716   2.133  10.961
15930SOL    HW159418   0.024   2.124  10.994
15930SOL    HW259419   4.676   2.047  10.976
15931SOL     OW59420   3.722   1.180  18.871
15931SOL    HW159421   3.640   1.228  18.857
15931SOL    HW259422   3.718   1.108  18.807
15932SOL     OW59423   4.258   3.474  23.447
15932SOL    HW159424   4.247   3.545  23.383
15932SOL    HW259425   4.247   3.516  23.532
15933SOL     OW59426   2.396   0.603  22.445
15933SOL    HW159427   2.349   0.680  22.414
15933SOL    HW259428   2.428   0.561  22.365
15934SOL     OW59429   0.935   4.555  23.756
15934SOL    HW159430   1.025   4.579  23.778
15934SOL    HW259431   0.884   4.635  23.771
15935SOL     OW59432   1.233   2.793   4.553
15935SOL    HW159433   1.247   2.876   4.507
15935SOL    HW259434   1.249   2.726   4.487
15936SOL     OW59435   1.297   1.002  25.291
15936SOL    HW159436   1.365   0.945  25.254
15936SOL    HW259437   1.326   1.091  25.270
15937SOL     OW59438   4.158   4.282   1.844
15937SOL    HW159439   4.186   4.216   1.780
15937SOL    HW259440   4.170   4.239   1.929
15938SOL     OW59441   2.377   1.768  26.184
15938SOL    HW159442   2.432   1.845  26.166
15938SOL    HW259443   2.382   1.716  26.104
15939SOL     OW59444   2.295   3.714   9.453
15939SOL    HW159445   2.211   3.681   9.421
15939SOL    HW259446   2.325   3.775   9.385
15940SOL     OW59447   2.413   2.553  20.120
15940SOL    HW159448   2.331   2.569  20.165
15940SOL    HW259449   2.392   2.560  20.027
15941SOL     OW59450   3.224   2.166  11.401
15941SOL    HW159451   3.201   2.184  11.492
15941SOL    HW259452   3.304   2.114  11.406
15942SOL     OW59453   4.751   2.634   7.616
15942SOL    HW159454   4.773   2.628   7.709
15942SOL    HW259455   0.045   2.680   7.577
15943SOL     OW59456   4.234   1.839   5.521
15943SOL    HW159457   4.309   1.896   5.505
15943SOL    HW259458   4.158   1.891   5.495
15944SOL     OW59459   2.908   0.298   7.261
15944SOL    HW159460   2.951   0.383   7.260
15944SOL    HW259461   2.910   0.271   7.353
15945SOL     OW59462   0.675   3.285  27.556
15945SOL    HW159463   0.659   3.206  27.608
15945SOL    HW259464   0.673   3.255  27.465
15946SOL     OW59465   0.796   0.764   7.274
15946SOL    HW159466   0.718   0.723   7.234
15946SOL    HW259467   0.794   0.854   7.243
15947SOL     OW59468   4.145   2.507  10.372
15947SOL    HW159469   4.184   2.588  10.337
15947SOL    HW259470   4.066   2.536  10.417
15948SOL     OW59471   2.332   3.649   8.880
15948SOL    HW159472   2.378   3.674   8.960
15948SOL    HW259473   2.273   3.722   8.862
15949SOL     OW59474   0.707   0.340   7.811
15949SOL    HW159475   0.673   0.358   7.723
15949SOL    HW259476   0.708   0.425   7.855
15950SOL     OW59477   0.469   0.823   3.195
15950SOL    HW159478   0.479   0.916   3.171
15950SOL    HW259479   0.558   0.788   3.191
15951SOL     OW59480   1.632   1.290  10.828
15951SOL    HW159481   1.686   1.332  10.896
15951SOL    HW259482   1.542   1.295  10.862
15952SOL     OW59483   0.485   3.755   8.622
15952SOL    HW159484   0.492   3.680   8.563
15952SOL    HW259485   0.392   3.776   8.624
15953SOL     OW59486   2.205   2.527  12.505
15953SOL    HW159487   2.123   2.558  12.544
15953SOL    HW259488   2.216   2.439  12.539
15954SOL     OW59489   2.299   1.392   7.935
15954SOL    HW159490   2.338   1.338   7.867
15954SOL    HW259491   2.347   1.370   8.014
15955SOL     OW59492   4.015   0.423   4.111
15955SOL    HW159493   3.972   0.338   4.113
15955SOL    HW259494   3.943   0.486   4.120
15956SOL     OW59495   3.714   1.191  22.878
15956SOL    HW159496   3.667   1.174  22.796
15956SOL    HW259497   3.726   1.286  22.880
15957SOL     OW59498   4.149   1.243  28.380
15957SOL    HW159499   4.115   1.153  28.380
15957SOL    HW259500   4.106   1.285  28.305
15958SOL     OW59501   4.508   3.356   8.692
15958SOL    HW159502   4.468   3.279   8.733
15958SOL    HW259503   4.568   3.320   8.627
15959SOL     OW59504   3.744   3.358   1.398
15959SOL    HW159505   3.712   3.350   1.488
15959SOL    HW259506   3.832   3.321   1.400
15960SOL     OW59507   1.042   1.390   6.353
15960SOL    HW159508   1.022   1.428   6.268
15960SOL    HW259509   1.112   1.445   6.388
15961SOL     OW59510   0.030   4.231  27.591
15961SOL    HW159511   0.068   4.197  27.671
15961SOL    HW259512   0.035   4.326  27.600
15962SOL     OW59513   1.802   2.511   6.046
15962SOL    HW159514   1.771   2.545   6.131
15962SOL    HW259515   1.792   2.584   5.986
15963SOL     OW59516   0.045   0.291   2.028
15963SOL    HW159517   4.762   0.319   1.962
15963SOL    HW259518   0.102   0.230   1.982
15964SOL     OW59519   3.810   4.432   5.123
15964SOL    HW159520   3.880   4.372   5.145
15964SOL    HW259521   3.741   4.414   5.186
15965SOL     OW59522   2.991   0.565   5.173
15965SOL    HW159523   3.066   0.512   5.200
15965SOL    HW259524   2.955   0.599   5.254
15966SOL     OW59525   3.624   0.254   0.870
15966SOL    HW159526   3.577   0.270   0.952
15966SOL    HW259527   3.570   0.297   0.803
15967SOL     OW59528   3.469   0.170  24.070
15967SOL    HW159529   3.451   0.200  23.981
15967SOL    HW259530   3.397   0.205  24.122
15968SOL     OW59531   1.138   1.318  12.602
15968SOL    HW159532   1.154   1.344  12.693
15968SOL    HW259533   1.138   1.399  12.552
15969SOL     OW59534   0.163   3.071  26.395
15969SOL    HW159535   0.214   3.119  26.461
15969SOL    HW259536   0.100   3.136  26.361
15970SOL     OW59537   1.230   4.604  11.670
15970SOL    HW159538   1.308   4.612  11.615
15970SOL    HW259539   1.237   4.677  11.733
15971SOL     OW59540   4.180   2.139  17.158
15971SOL    HW159541   4.213   2.051  17.178
15971SOL    HW259542   4.195   2.150  17.064
15972SOL     OW59543   2.110   4.331  18.222
15972SOL    HW159544   2.105   4.315  18.127
15972SOL    HW259545   2.122   4.426  18.229
15973SOL     OW59546   4.326   1.727   9.396
15973SOL    HW159547   4.366   1.737   9.309
15973SOL    HW259548   4.237   1.761   9.385
15974SOL     OW59549   0.053   0.301  22.945
15974SOL    HW159550   0.081   0.373  22.888
15974SOL    HW259551   4.765   0.340  22.999
15975SOL     OW59552   1.188   1.273   7.080
15975SOL    HW159553   1.235   1.289   7.162
15975SOL    HW259554   1.215   1.186   7.053
15976SOL     OW59555   3.290   4.572  27.711
15976SOL    HW159556   3.230   4.516  27.758
15976SOL    HW259557   3.302   4.530  27.626
15977SOL     OW59558   0.200   2.153   1.696
15977SOL    HW159559   0.236   2.068   1.721
15977SOL    HW259560   0.138   2.134   1.625
15978SOL     OW59561   2.647   4.061   8.329
15978SOL    HW159562   2.653   4.151   8.362
15978SOL    HW259563   2.645   4.006   8.407
15979SOL     OW59564   4.385   2.780   8.014
15979SOL    HW159565   4.457   2.836   8.044
15979SOL    HW259566   4.308   2.837   8.016
15980SOL     OW59567   1.476   1.228   9.129
15980SOL    HW159568   1.416   1.298   9.107
15980SOL    HW259569   1.457   1.207   9.221
15981SOL     OW59570   1.509   3.001  25.534
15981SOL    HW159571   1.568   3.074  25.555
15981SOL    HW259572   1.567   2.926  25.524
15982SOL     OW59573   0.721   0.732   1.939
15982SOL    HW159574   0.635   0.774   1.944
15982SOL    HW259575   0.708   0.656   1.883
15983SOL     OW59576   1.767   3.904   0.166
15983SOL    HW159577   1.831   3.976   0.161
15983SOL    HW259578   1.763   3.882   0.259
15984SOL     OW59579   1.765   1.370  11.325
15984SOL    HW159580   1.682   1.378  11.371
15984SOL    HW259581   1.814   1.305  11.376
15985SOL     OW59582   1.355   2.407  23.419
15985SOL    HW159583   1.413   2.334  23.401
15985SOL    HW259584   1.279   2.392  23.362
15986SOL     OW59585   4.158   4.236   0.531
15986SOL    HW159586   4.186   4.164   0.587
15986SOL    HW259587   4.099   4.288   0.585
15987SOL     OW59588   3.060   1.137  22.333
15987SOL    HW159589   3.120   1.079  22.379
15987SOL    HW259590   2.995   1.078  22.295
15988SOL     OW59591   1.311   0.557  12.169
15988SOL    HW159592   1.253   0.503  12.115
15988SOL    HW259593   1.252   0.604  12.228
15989SOL     OW59594   4.225   3.411   2.822
15989SOL    HW159595   4.285   3.357   2.771
15989SOL    HW259596   4.149   3.355   2.838
15990SOL     OW59597   1.127   3.005  13.908
15990SOL    HW159598   1.064   2.949  13.955
15990SOL    HW259599   1.091   3.094  13.918
15991SOL     OW59600   1.226   4.251  19.679
15991SOL    HW159601   1.301   4.283  19.629
15991SOL    HW259602   1.167   4.214  19.613
15992SOL     OW59603   4.267   2.657   2.642
15992SOL    HW159604   4.300   2.672   2.731
15992SOL    HW259605   4.270   2.743   2.601
15993SOL     OW59606   0.131   0.426  22.704
15993SOL    HW159607   0.223   0.398  22.707
15993SOL    HW259608   0.133   0.509  22.657
15994SOL     OW59609   3.437   3.563  10.796
15994SOL    HW159610   3.504   3.584  10.731
15994SOL    HW259611   3.467   3.608  10.876
15995SOL     OW59612   4.016   4.087   4.922
15995SOL    HW159613   4.053   4.005   4.954
15995SOL    HW259614   4.086   4.127   4.870
15996SOL     OW59615   2.073   3.977   9.376
15996SOL    HW159616   2.034   3.909   9.431
15996SOL    HW259617   2.088   3.934   9.292
15997SOL     OW59618   3.585   0.834  11.515
15997SOL    HW159619   3.662   0.885  11.489
15997SOL    HW259620   3.609   0.743  11.498
15998SOL     OW59621   4.695   1.077  22.151
15998SOL    HW159622   4.754   1.045  22.219
15998SOL    HW259623   4.748   1.079  22.072
15999SOL     OW59624   1.286   4.745   3.310
15999SOL    HW159625   1.215   4.751   3.373
15999SOL    HW259626   1.320   4.656   3.320
16000SOL     OW59627   1.962   1.527   4.848
16000SOL    HW159628   1.925   1.439   4.853
16000SOL    HW259629   1.977   1.542   4.755
16001SOL     OW59630   3.874   3.964   7.531
16001SOL    HW159631   3.939   3.937   7.595
16001SOL    HW259632   3.879   4.060   7.531
16002SOL     OW59633   3.866   2.808   7.508
16002SOL    HW159634   3.869   2.767   7.421
16002SOL    HW259635   3.869   2.902   7.491
16003SOL     OW59636   1.823   1.529  10.451
16003SOL    HW159637   1.775   1.516  10.533
16003SOL    HW259638   1.761   1.504  10.382
16004SOL     OW59639   3.469   2.061  23.750
16004SOL    HW159640   3.463   2.070  23.845
16004SOL    HW259641   3.379   2.057  23.720
16005SOL     OW59642   4.478   2.071  26.108
16005SOL    HW159643   4.408   2.029  26.157
16005SOL    HW259644   4.467   2.164  26.125
16006SOL     OW59645   3.057   2.223  19.155
16006SOL    HW159646   2.991   2.171  19.200
16006SOL    HW259647   3.007   2.287  19.105
16007SOL     OW59648   2.803   1.659   6.059
16007SOL    HW159649   2.797   1.568   6.030
16007SOL    HW259650   2.752   1.661   6.141
16008SOL     OW59651   1.202   3.916  26.443
16008SOL    HW159652   1.161   3.840  26.402
16008SOL    HW259653   1.132   3.981  26.451
16009SOL     OW59654   1.141   4.554   2.629
16009SOL    HW159655   1.233   4.534   2.615
16009SOL    HW259656   1.094   4.492   2.573
16010SOL     OW59657   2.852   0.329  24.332
16010SOL    HW159658   2.866   0.237  24.310
16010SOL    HW259659   2.766   0.350  24.295
16011SOL     OW59660   1.308   1.858   9.220
16011SOL    HW159661   1.327   1.765   9.231
16011SOL    HW259662   1.385   1.903   9.255
16012SOL     OW59663   3.425   0.945  18.954
16012SOL    HW159664   3.380   0.869  18.915
16012SOL    HW259665   3.355   1.008  18.970
16013SOL     OW59666   3.412   0.626  23.549
16013SOL    HW159667   3.426   0.531  23.546
16013SOL    HW259668   3.352   0.643  23.476
16014SOL     OW59669   1.930   4.723  20.387
16014SOL    HW159670   2.012   4.701  20.342
16014SOL    HW259671   1.925   4.661  20.459
16015SOL     OW59672   2.599   2.413   5.291
16015SOL    HW159673   2.655   2.409   5.369
16015SOL    HW259674   2.630   2.489   5.243
16016SOL     OW59675   2.837   3.632   0.062
16016SOL    HW159676   2.746   3.646   0.038
16016SOL    HW259677   2.879   3.599  28.505
16017SOL     OW59678   0.964   3.789  11.149
16017SOL    HW159679   1.023   3.722  11.184
16017SOL    HW259680   0.923   3.828  11.226
16018SOL     OW59681   2.422   0.997  25.420
16018SOL    HW159682   2.360   1.069  25.409
16018SOL    HW259683   2.508   1.038  25.411
16019SOL     OW59684   4.311   2.076  21.005
16019SOL    HW159685   4.268   2.114  20.928
16019SOL    HW259686   4.404   2.082  20.985
16020SOL     OW59687   0.508   1.151  21.808
16020SOL    HW159688   0.507   1.061  21.775
16020SOL    HW259689   0.595   1.163  21.844
16021SOL     OW59690   0.929   1.249  12.847
16021SOL    HW159691   0.961   1.167  12.810
16021SOL    HW259692   0.922   1.232  12.941
16022SOL     OW59693   0.338   1.203  12.169
16022SOL    HW159694   0.344   1.114  12.136
16022SOL    HW259695   0.277   1.198  12.243
16023SOL     OW59696   1.557   1.686  11.454
16023SOL    HW159697   1.515   1.772  11.460
16023SOL    HW259698   1.643   1.704  11.416
16024SOL     OW59699   1.090   0.977  12.213
16024SOL    HW159700   1.094   1.043  12.282
16024SOL    HW259701   1.179   0.942  12.208
16025SOL     OW59702   4.504   0.331  12.936
16025SOL    HW159703   4.572   0.313  13.001
16025SOL    HW259704   4.476   0.245  12.907
16026SOL     OW59705   0.067   0.484  12.552
16026SOL    HW159706   0.015   0.430  12.611
16026SOL    HW259707   0.075   0.568  12.597
16027SOL     OW59708   1.094   3.376  13.337
16027SOL    HW159709   1.054   3.412  13.258
16027SOL    HW259710   1.046   3.416  13.409
16028SOL     OW59711   2.013   1.804  13.045
16028SOL    HW159712   2.006   1.899  13.051
16028SOL    HW259713   2.102   1.784  13.074
16029SOL     OW59714   4.211   0.470  12.675
16029SOL    HW159715   4.133   0.419  12.657
16029SOL    HW259716   4.220   0.468  12.770
16030SOL     OW59717   1.332   3.075  11.897
16030SOL    HW159718   1.342   2.992  11.851
16030SOL    HW259719   1.331   3.051  11.990
16031SOL     OW59720   4.772   0.158  13.007
16031SOL    HW159721   0.015   0.104  13.082
16031SOL    HW259722   4.778   0.248  13.040
16032SOL     OW59723   2.184   0.889  11.351
16032SOL    HW159724   2.232   0.807  11.350
16032SOL    HW259725   2.147   0.894  11.439
16033SOL     OW59726   3.195   4.242  14.372
16033SOL    HW159727   3.225   4.314  14.428
16033SOL    HW259728   3.106   4.225  14.401
16034SOL     OW59729   3.904   0.221   2.440
16034SOL    HW159730   3.897   0.151   2.375
16034SOL    HW259731   3.908   0.175   2.524
16035SOL     OW59732   3.044   4.318  13.040
16035SOL    HW159733   3.103   4.367  12.983
16035SOL    HW259734   3.047   4.364  13.124
16036SOL     OW59735   1.053   2.046  13.790
16036SOL    HW159736   1.013   1.971  13.835
16036SOL    HW259737   1.030   2.122  13.844
16037SOL     OW59738   2.644   2.182  11.252
16037SOL    HW159739   2.708   2.211  11.317
16037SOL    HW259740   2.596   2.111  11.295
16038SOL     OW59741   1.053   0.666  12.238
16038SOL    HW159742   1.063   0.663  12.143
16038SOL    HW259743   0.969   0.709  12.252
16039SOL     OW59744   1.489   0.220  12.629
16039SOL    HW159745   1.445   0.142  12.663
16039SOL    HW259746   1.440   0.294  12.667
16040SOL     OW59747   0.855   2.429  12.258
16040SOL    HW159748   0.857   2.518  12.293
16040SOL    HW259749   0.813   2.439  12.172
16041SOL     OW59750   1.163   1.260  11.797
16041SOL    HW159751   1.110   1.325  11.842
16041SOL    HW259752   1.160   1.182  11.853
16042SOL     OW59753   1.188   2.477  13.945
16042SOL    HW159754   1.170   2.385  13.964
16042SOL    HW259755   1.183   2.484  13.850
16043SOL     OW59756   2.675   0.764  12.282
16043SOL    HW159757   2.589   0.793  12.252
16043SOL    HW259758   2.661   0.738  12.373
16044SOL     OW59759   2.607   0.765  10.926
16044SOL    HW159760   2.661   0.835  10.962
16044SOL    HW259761   2.523   0.775  10.970
16045SOL     OW59762   1.089   1.741  13.390
16045SOL    HW159763   1.126   1.760  13.477
16045SOL    HW259764   1.124   1.810  13.334
16046SOL     OW59765   1.637   2.474  12.115
16046SOL    HW159766   1.638   2.527  12.194
16046SOL    HW259767   1.572   2.405  12.133
16047SOL     OW59768   1.257   1.780  12.651
16047SOL    HW159769   1.169   1.783  12.614
16047SOL    HW259770   1.258   1.849  12.718
16048SOL     OW59771   0.255   3.013  13.131
16048SOL    HW159772   0.351   3.016  13.132
16048SOL    HW259773   0.230   2.994  13.221
16049SOL     OW59774   1.998   1.489  12.327
16049SOL    HW159775   1.926   1.436  12.362
16049SOL    HW259776   2.050   1.513  12.405
16050SOL     OW59777   2.738   1.899  10.517
16050SOL    HW159778   2.675   1.947  10.570
16050SOL    HW259779   2.717   1.807  10.533
16051SOL     OW59780   0.382   1.746  12.961
16051SOL    HW159781   0.422   1.666  12.926
16051SOL    HW259782   0.330   1.716  13.036
16052SOL     OW59783   2.897   2.099  11.681
16052SOL    HW159784   2.984   2.062  11.695
16052SOL    HW259785   2.837   2.025  11.693
16053SOL     OW59786   0.158   0.124  13.252
16053SOL    HW159787   0.075   0.092  13.286
16053SOL    HW259788   0.224   0.068  13.293
16054SOL     OW59789   0.768   1.241  12.334
16054SOL    HW159790   0.798   1.226  12.424
16054SOL    HW259791   0.786   1.158  12.289
16055SOL     OW59792   1.030   2.210   5.826
16055SOL    HW159793   0.997   2.221   5.915
16055SOL    HW259794   1.109   2.157   5.835
16056SOL     OW59795   1.239   2.576  12.645
16056SOL    HW159796   1.331   2.568  12.622
16056SOL    HW259797   1.239   2.609  12.735
16057SOL     OW59798   3.273   0.426   9.788
16057SOL    HW159799   3.335   0.452   9.857
16057SOL    HW259800   3.202   0.490   9.795
16058SOL     OW59801   1.326   3.000  12.157
16058SOL    HW159802   1.382   2.930  12.190
16058SOL    HW259803   1.239   2.981  12.193
16059SOL     OW59804   1.978   0.565  11.103
16059SOL    HW159805   1.983   0.652  11.063
16059SOL    HW259806   2.001   0.505  11.032
16060SOL     OW59807   0.957   0.742  13.417
16060SOL    HW159808   0.938   0.737  13.510
16060SOL    HW259809   1.052   0.752  13.412
16061SOL     OW59810   0.756   2.160  14.294
16061SOL    HW159811   0.764   2.091  14.228
16061SOL    HW259812   0.808   2.233  14.259
16062SOL     OW59813   1.022   1.358  13.277
16062SOL    HW159814   0.980   1.388  13.358
16062SOL    HW259815   1.088   1.296  13.307
16063SOL     OW59816   1.010   0.416  14.603
16063SOL    HW159817   1.054   0.340  14.643
16063SOL    HW259818   0.998   0.477  14.676
16064SOL     OW59819   0.916   0.682  14.115
16064SOL    HW159820   0.939   0.659  14.205
16064SOL    HW259821   0.995   0.724  14.080
16065SOL     OW59822   0.859   1.624  13.905
16065SOL    HW159823   0.903   1.693  13.955
16065SOL    HW259824   0.903   1.624  13.820
16066SOL     OW59825   2.226   2.998  11.847
16066SOL    HW159826   2.167   2.933  11.808
16066SOL    HW259827   2.205   2.995  11.941
16067SOL     OW59828   1.041   0.628  14.357
16067SOL    HW159829   1.132   0.653  14.347
16067SOL    HW259830   1.041   0.564  14.428
16068SOL     OW59831   0.416   0.950  12.107
16068SOL    HW159832   0.394   0.930  12.198
16068SOL    HW259833   0.350   0.904  12.056
16069SOL     OW59834   1.765   0.709  13.290
16069SOL    HW159835   1.735   0.793  13.325
16069SOL    HW259836   1.691   0.649  13.303
16070SOL     OW59837   1.539   0.821  13.628
16070SOL    HW159838   1.477   0.749  13.639
16070SOL    HW259839   1.563   0.845  13.718
16071SOL     OW59840   1.894   0.133  12.260
16071SOL    HW159841   1.837   0.089  12.323
16071SOL    HW259842   1.975   0.151  12.309
16072SOL     OW59843   2.200   1.747  12.577
16072SOL    HW159844   2.105   1.745  12.577
16072SOL    HW259845   2.223   1.795  12.657
16073SOL     OW59846   4.498   1.797  13.482
16073SOL    HW159847   4.523   1.713  13.521
16073SOL    HW259848   4.443   1.839  13.548
16074SOL     OW59849   0.945   1.343  14.164
16074SOL    HW159850   0.915   1.374  14.249
16074SOL    HW259851   0.974   1.422  14.118
16075SOL     OW59852   4.520   1.936  13.250
16075SOL    HW159853   4.494   1.892  13.331
16075SOL    HW259854   4.566   2.014  13.279
16076SOL     OW59855   1.167   0.311  14.801
16076SOL    HW159856   1.239   0.250  14.816
16076SOL    HW259857   1.197   0.393  14.840
16077SOL     OW59858   3.601   0.999  15.039
16077SOL    HW159859   3.631   1.084  15.007
16077SOL    HW259860   3.555   1.020  15.121
16078SOL     OW59861   1.239   4.560  13.329
16078SOL    HW159862   1.300   4.522  13.266
16078SOL    HW259863   1.264   4.521  13.413
16079SOL     OW59864   2.624   0.419  14.376
16079SOL    HW159865   2.701   0.476  14.375
16079SOL    HW259866   2.641   0.355  14.307
16080SOL     OW59867   0.675   0.764  14.014
16080SOL    HW159868   0.711   0.841  13.969
16080SOL    HW259869   0.752   0.717  14.046
16081SOL     OW59870   4.526   2.094  13.616
16081SOL    HW159871   4.490   2.025  13.671
16081SOL    HW259872   4.456   2.116  13.554
16082SOL     OW59873   1.055   1.599  13.711
16082SOL    HW159874   1.100   1.552  13.781
16082SOL    HW259875   1.106   1.678  13.698
16083SOL     OW59876   3.155   1.402  12.831
16083SOL    HW159877   3.198   1.325  12.867
16083SOL    HW259878   3.062   1.379  12.827
16084SOL     OW59879   0.139   1.454  15.109
16084SOL    HW159880   0.065   1.405  15.073
16084SOL    HW259881   0.194   1.474  15.033
16085SOL     OW59882   3.309   0.218  14.131
16085SOL    HW159883   3.327   0.307  14.159
16085SOL    HW259884   3.252   0.228  14.054
16086SOL     OW59885   2.274   1.638  12.956
16086SOL    HW159886   2.238   1.651  13.044
16086SOL    HW259887   2.362   1.602  12.972
16087SOL     OW59888   3.474   4.533  12.278
16087SOL    HW159889   3.511   4.613  12.316
16087SOL    HW259890   3.503   4.463  12.336
16088SOL     OW59891   1.034   2.266  13.629
16088SOL    HW159892   1.055   2.194  13.688
16088SOL    HW259893   1.115   2.283  13.581
16089SOL     OW59894   0.939   0.478  13.661
16089SOL    HW159895   0.998   0.496  13.588
16089SOL    HW259896   0.902   0.564  13.683
16090SOL     OW59897   0.959   0.557  14.830
16090SOL    HW159898   0.869   0.549  14.860
16090SOL    HW259899   0.965   0.645  14.793
16091SOL     OW59900   1.410   1.609  13.734
16091SOL    HW159901   1.404   1.595  13.639
16091SOL    HW259902   1.418   1.704  13.744
16092SOL     OW59903   2.887   0.247  13.212
16092SOL    HW159904   2.879   0.275  13.304
16092SOL    HW259905   2.881   0.152  13.215
16093SOL     OW59906   1.377   1.783  14.673
16093SOL    HW159907   1.455   1.832  14.700
16093SOL    HW259908   1.306   1.822  14.723
16094SOL     OW59909   0.919   0.237  16.171
16094SOL    HW159910   0.949   0.250  16.081
16094SOL    HW259911   0.901   0.144  16.177
16095SOL     OW59912   1.980   1.904  16.637
16095SOL    HW159913   1.952   1.813  16.627
16095SOL    HW259914   2.062   1.898  16.686
16096SOL     OW59915   2.244   2.239  16.634
16096SOL    HW159916   2.270   2.196  16.553
16096SOL    HW259917   2.149   2.229  16.638
16097SOL     OW59918   1.265   2.236  14.860
16097SOL    HW159919   1.183   2.284  14.856
16097SOL    HW259920   1.332   2.304  14.851
16098SOL     OW59921   1.345   1.258  16.579
16098SOL    HW159922   1.365   1.338  16.627
16098SOL    HW259923   1.250   1.261  16.566
16099SOL     OW59924   0.986   0.816  14.727
16099SOL    HW159925   1.028   0.873  14.663
16099SOL    HW259926   0.910   0.865  14.757
16100SOL     OW59927   2.420   2.226  16.141
16100SOL    HW159928   2.473   2.168  16.086
16100SOL    HW259929   2.334   2.227  16.099
16101SOL     OW59930   1.092   0.993  14.968
16101SOL    HW159931   1.142   0.912  14.967
16101SOL    HW259932   1.006   0.970  14.932
16102SOL     OW59933   1.741   2.321  16.828
16102SOL    HW159934   1.818   2.271  16.853
16102SOL    HW259935   1.761   2.352  16.739
16103SOL     OW59936   1.226   1.484  15.125
16103SOL    HW159937   1.192   1.526  15.204
16103SOL    HW259938   1.178   1.401  15.119
16104SOL     OW59939   1.147   1.214  15.126
16104SOL    HW159940   1.144   1.149  15.056
16104SOL    HW259941   1.117   1.168  15.204
16105SOL     OW59942   2.453   1.606  15.546
16105SOL    HW159943   2.487   1.660  15.476
16105SOL    HW259944   2.420   1.528  15.503
16106SOL     OW59945   1.294   1.545  15.591
16106SOL    HW159946   1.271   1.453  15.578
16106SOL    HW259947   1.230   1.593  15.538
16107SOL     OW59948   1.099   1.332  18.731
16107SOL    HW159949   1.084   1.288  18.647
16107SOL    HW259950   1.193   1.328  18.744
16108SOL     OW59951   3.878   0.885  15.572
16108SOL    HW159952   3.894   0.979  15.565
16108SOL    HW259953   3.961   0.845  15.546
16109SOL     OW59954   2.369   1.654  15.915
16109SOL    HW159955   2.450   1.638  15.867
16109SOL    HW259956   2.359   1.578  15.972
16110SOL     OW59957   3.752   4.755  21.455
16110SOL    HW159958   3.786   0.006  21.539
16110SOL    HW259959   3.727   4.664  21.473
16111SOL     OW59960   1.952   0.206  17.258
16111SOL    HW159961   1.970   0.291  17.297
16111SOL    HW259962   1.886   0.223  17.191
16112SOL     OW59963   1.159   0.720  15.796
16112SOL    HW159964   1.208   0.738  15.715
16112SOL    HW259965   1.215   0.755  15.866
16113SOL     OW59966   1.104   2.320  17.503
16113SOL    HW159967   1.138   2.395  17.454
16113SOL    HW259968   1.163   2.248  17.480
16114SOL     OW59969   1.299   0.564  14.901
16114SOL    HW159970   1.272   0.635  14.958
16114SOL    HW259971   1.315   0.606  14.816
16115SOL     OW59972   1.388   0.585  17.004
16115SOL    HW159973   1.308   0.631  17.028
16115SOL    HW259974   1.382   0.501  17.051
16116SOL     OW59975   4.102   3.363  17.609
16116SOL    HW159976   4.149   3.327  17.684
16116SOL    HW259977   4.148   3.443  17.587
16117SOL     OW59978   2.663   0.045  15.841
16117SOL    HW159979   2.616   4.752  15.880
16117SOL    HW259980   2.642   0.041  15.748
16118SOL     OW59981   1.916   1.451  14.229
16118SOL    HW159982   1.972   1.386  14.273
16118SOL    HW259983   1.856   1.398  14.176
16119SOL     OW59984   1.252   1.041  13.193
16119SOL    HW159985   1.343   1.017  13.173
16119SOL    HW259986   1.258   1.093  13.272
16120SOL     OW59987   2.342   1.070  15.525
16120SOL    HW159988   2.347   0.989  15.474
16120SOL    HW259989   2.258   1.064  15.571
16121SOL     OW59990   1.384   2.338  15.945
16121SOL    HW159991   1.401   2.339  15.851
16121SOL    HW259992   1.351   2.426  15.964
16122SOL     OW59993   3.006   0.935  15.584
16122SOL    HW159994   3.045   0.852  15.612
16122SOL    HW259995   3.072   0.975  15.528
16123SOL     OW59996   0.931   2.598  14.768
16123SOL    HW159997   0.943   2.633  14.857
16123SOL    HW259998   0.857   2.647  14.733
16124SOL     OW59999   4.556   0.759  14.758
16124SOL    HW160000   4.580   0.679  14.806
16124SOL    HW260001   4.470   0.783  14.793
16125SOL     OW60002   1.724   0.979  16.055
16125SOL    HW160003   1.813   1.007  16.036
16125SOL    HW260004   1.702   1.021  16.138
16126SOL     OW60005   1.843   1.947  14.434
16126SOL    HW160006   1.764   1.910  14.395
16126SOL    HW260007   1.913   1.887  14.408
16127SOL     OW60008   0.701   0.151  15.448
16127SOL    HW160009   0.640   0.094  15.400
16127SOL    HW260010   0.660   0.237  15.446
16128SOL     OW60011   0.127   1.193  14.747
16128SOL    HW160012   0.126   1.133  14.673
16128SOL    HW260013   0.075   1.148  14.815
16129SOL     OW60014   1.517   1.604  16.306
16129SOL    HW160015   1.501   1.605  16.212
16129SOL    HW260016   1.516   1.511  16.330
16130SOL     OW60017   2.496   0.461  15.097
16130SOL    HW160018   2.435   0.524  15.060
16130SOL    HW260019   2.477   0.379  15.052
16131SOL     OW60020   0.632   1.118  15.207
16131SOL    HW160021   0.573   1.116  15.132
16131SOL    HW260022   0.643   1.026  15.232
16132SOL     OW60023   4.713   0.677  16.414
16132SOL    HW160024   4.629   0.694  16.371
16132SOL    HW260025   4.760   0.621  16.353
16133SOL     OW60026   4.357   4.752  25.215
16133SOL    HW160027   4.371   4.779  25.306
16133SOL    HW260028   4.406   0.036  25.164
16134SOL     OW60029   2.308   1.214  16.631
16134SOL    HW160030   2.385   1.265  16.605
16134SOL    HW260031   2.269   1.185  16.549
16135SOL     OW60032   4.404   2.085   7.174
16135SOL    HW160033   4.409   2.170   7.129
16135SOL    HW260034   4.355   2.029   7.115
16136SOL     OW60035   0.073   0.397  17.076
16136SOL    HW160036   0.068   0.312  17.120
16136SOL    HW260037   0.145   0.442  17.120
16137SOL     OW60038   1.539   1.078  16.558
16137SOL    HW160039   1.481   1.154  16.562
16137SOL    HW260040   1.481   1.005  16.537
16138SOL     OW60041   3.515   1.426  15.972
16138SOL    HW160042   3.469   1.459  16.049
16138SOL    HW260043   3.473   1.471  15.898
16139SOL     OW60044   3.645   1.580  20.665
16139SOL    HW160045   3.669   1.661  20.619
16139SOL    HW260046   3.575   1.606  20.725
16140SOL     OW60047   0.882   4.778  17.450
16140SOL    HW160048   0.830   0.032  17.522
16140SOL    HW260049   0.854   0.049  17.374
16141SOL     OW60050   0.557   3.737  18.598
16141SOL    HW160051   0.580   3.667  18.659
16141SOL    HW260052   0.604   3.813  18.632
16142SOL     OW60053   0.185   4.590  16.688
16142SOL    HW160054   0.194   4.547  16.603
16142SOL    HW260055   0.205   4.682  16.670
16143SOL     OW60056   1.116   2.915  18.256
16143SOL    HW160057   1.082   3.000  18.284
16143SOL    HW260058   1.146   2.929  18.166
16144SOL     OW60059   2.542   0.206  22.185
16144SOL    HW160060   2.591   0.283  22.214
16144SOL    HW260061   2.569   0.136  22.245
16145SOL     OW60062   0.262   3.087  17.038
16145SOL    HW160063   0.288   3.153  16.973
16145SOL    HW260064   0.319   3.104  17.113
16146SOL     OW60065   0.998   3.222  17.740
16146SOL    HW160066   0.962   3.195  17.655
16146SOL    HW260067   1.087   3.251  17.720
16147SOL     OW60068   4.387   1.742  20.193
16147SOL    HW160069   4.321   1.785  20.137
16147SOL    HW260070   4.459   1.804  20.196
16148SOL     OW60071   1.382   2.827  18.045
16148SOL    HW160072   1.431   2.865  17.972
16148SOL    HW260073   1.375   2.734  18.024
16149SOL     OW60074   1.800   2.625  16.227
16149SOL    HW160075   1.798   2.634  16.132
16149SOL    HW260076   1.893   2.618  16.249
16150SOL     OW60077   4.598   1.013  17.899
16150SOL    HW160078   4.637   1.043  17.981
16150SOL    HW260079   4.654   0.941  17.871
16151SOL     OW60080   1.301   0.936  16.466
16151SOL    HW160081   1.244   0.992  16.520
16151SOL    HW260082   1.272   0.952  16.376
16152SOL     OW60083   2.121   1.151  15.670
16152SOL    HW160084   2.122   1.208  15.747
16152SOL    HW260085   2.129   1.210  15.595
16153SOL     OW60086   1.604   0.549  21.664
16153SOL    HW160087   1.515   0.562  21.631
16153SOL    HW260088   1.659   0.600  21.604
16154SOL     OW60089   1.551   1.517  17.207
16154SOL    HW160090   1.547   1.510  17.302
16154SOL    HW260091   1.550   1.612  17.190
16155SOL     OW60092   1.330   2.909  20.847
16155SOL    HW160093   1.360   2.971  20.914
16155SOL    HW260094   1.290   2.838  20.896
16156SOL     OW60095   1.567   0.662  17.826
16156SOL    HW160096   1.547   0.568  17.818
16156SOL    HW260097   1.662   0.664  17.839
16157SOL     OW60098   1.542   2.911  17.843
16157SOL    HW160099   1.614   2.849  17.842
16157SOL    HW260100   1.582   2.996  17.823
16158SOL     OW60101   4.335   2.050   0.175
16158SOL    HW160102   4.271   2.081   0.240
16158SOL    HW260103   4.348   2.126   0.118
16159SOL     OW60104   2.482   1.588  18.492
16159SOL    HW160105   2.387   1.585  18.499
16159SOL    HW260106   2.500   1.557  18.403
16160SOL     OW60107   0.822   4.023  16.629
16160SOL    HW160108   0.775   3.952  16.673
16160SOL    HW260109   0.844   4.085  16.699
16161SOL     OW60110   3.749   2.795   4.318
16161SOL    HW160111   3.798   2.862   4.365
16161SOL    HW260112   3.812   2.725   4.301
16162SOL     OW60113   1.829   0.278  23.289
16162SOL    HW160114   1.862   0.354  23.336
16162SOL    HW260115   1.796   0.313  23.206
16163SOL     OW60116   1.001   0.144  26.356
16163SOL    HW160117   1.012   0.146  26.451
16163SOL    HW260118   1.035   0.228  26.326
16164SOL     OW60119   2.595   0.688  17.226
16164SOL    HW160120   2.645   0.731  17.296
16164SOL    HW260121   2.542   0.758  17.188
16165SOL     OW60122   0.846   3.281  25.904
16165SOL    HW160123   0.860   3.291  25.998
16165SOL    HW260124   0.815   3.191  25.894
16166SOL     OW60125   1.884   0.082  25.094
16166SOL    HW160126   1.826   0.026  25.147
16166SOL    HW260127   1.840   0.167  25.092
16167SOL     OW60128   0.023   1.380  15.573
16167SOL    HW160129   0.087   1.397  15.504
16167SOL    HW260130   0.030   1.286  15.589
16168SOL     OW60131   4.560   4.133   5.522
16168SOL    HW160132   4.487   4.094   5.474
16168SOL    HW260133   4.523   4.211   5.563
16169SOL     OW60134   3.267   3.570  16.484
16169SOL    HW160135   3.267   3.505  16.414
16169SOL    HW260136   3.221   3.645  16.447
16170SOL     OW60137   4.772   2.059  20.427
16170SOL    HW160138   4.748   2.105  20.507
16170SOL    HW260139   0.086   2.047  20.434
16171SOL     OW60140   4.280   3.213   6.335
16171SOL    HW160141   4.325   3.229   6.418
16171SOL    HW260142   4.219   3.142   6.355
16172SOL     OW60143   1.806   1.788  17.389
16172SOL    HW160144   1.790   1.879  17.364
16172SOL    HW260145   1.820   1.742  17.306
16173SOL     OW60146   0.512   0.331   0.635
16173SOL    HW160147   0.508   0.392   0.562
16173SOL    HW260148   0.545   0.383   0.708
16174SOL     OW60149   1.676   3.257  14.981
16174SOL    HW160150   1.732   3.271  14.905
16174SOL    HW260151   1.592   3.295  14.956
16175SOL     OW60152   1.701   1.217  16.273
16175SOL    HW160153   1.611   1.226  16.306
16175SOL    HW260154   1.717   1.298  16.225
16176SOL     OW60155   1.498   1.708   0.705
16176SOL    HW160156   1.405   1.686   0.714
16176SOL    HW260157   1.526   1.729   0.794
16177SOL     OW60158   0.420   0.425  16.341
16177SOL    HW160159   0.479   0.376  16.284
16177SOL    HW260160   0.465   0.508  16.357
16178SOL     OW60161   4.607   2.598  15.901
16178SOL    HW160162   4.582   2.510  15.875
16178SOL    HW260163   4.602   2.650  15.821
16179SOL     OW60164   2.591   1.616  15.296
16179SOL    HW160165   2.521   1.663  15.251
16179SOL    HW260166   2.593   1.530  15.254
16180SOL     OW60167   1.881   1.497  18.020
16180SOL    HW160168   1.975   1.512  18.035
16180SOL    HW260169   1.857   1.432  18.086
16181SOL     OW60170   1.799   3.814  15.776
16181SOL    HW160171   1.847   3.822  15.693
16181SOL    HW260172   1.718   3.862  15.761
16182SOL     OW60173   1.991   2.891   3.653
16182SOL    HW160174   2.072   2.917   3.608
16182SOL    HW260175   1.921   2.921   3.595
16183SOL     OW60176   1.784   1.556  15.705
16183SOL    HW160177   1.841   1.537  15.630
16183SOL    HW260178   1.812   1.493  15.772
16184SOL     OW60179   2.404   0.911  20.522
16184SOL    HW160180   2.409   0.957  20.606
16184SOL    HW260181   2.493   0.913  20.489
16185SOL     OW60182   1.596   4.386   2.775
16185SOL    HW160183   1.571   4.341   2.856
16185SOL    HW260184   1.660   4.328   2.734
16186SOL     OW60185   2.152   1.207   1.330
16186SOL    HW160186   2.060   1.230   1.322
16186SOL    HW260187   2.195   1.288   1.357
16187SOL     OW60188   4.422   4.085   4.980
16187SOL    HW160189   4.372   4.097   4.899
16187SOL    HW260190   4.467   4.168   4.993
16188SOL     OW60191   0.691   3.425   8.522
16188SOL    HW160192   0.779   3.410   8.487
16188SOL    HW260193   0.703   3.431   8.617
16189SOL     OW60194   2.927   3.590   0.795
16189SOL    HW160195   2.909   3.512   0.741
16189SOL    HW260196   2.885   3.662   0.747
16190SOL     OW60197   0.701   2.527  23.816
16190SOL    HW160198   0.727   2.572  23.896
16190SOL    HW260199   0.729   2.437  23.829
16191SOL     OW60200   0.784   2.983   2.017
16191SOL    HW160201   0.865   2.937   1.997
16191SOL    HW260202   0.807   3.044   2.087
16192SOL     OW60203   0.089   4.664  18.895
16192SOL    HW160204   0.170   4.622  18.926
16192SOL    HW260205   0.019   4.617  18.939
16193SOL     OW60206   4.035   3.927  25.110
16193SOL    HW160207   4.076   3.907  25.026
16193SOL    HW260208   4.088   3.999  25.145
16194SOL     OW60209   1.260   2.519  15.726
16194SOL    HW160210   1.176   2.475  15.713
16194SOL    HW260211   1.260   2.546  15.818
16195SOL     OW60212   3.120   3.187  28.185
16195SOL    HW160213   3.033   3.195  28.147
16195SOL    HW260214   3.173   3.252  28.138
16196SOL     OW60215   4.396   3.073   2.441
16196SOL    HW160216   4.423   2.990   2.480
16196SOL    HW260217   4.305   3.083   2.468
16197SOL     OW60218   0.802   4.143  17.111
16197SOL    HW160219   0.870   4.121  17.175
16197SOL    HW260220   0.782   4.235  17.127
16198SOL     OW60221   3.305   0.973  21.813
16198SOL    HW160222   3.276   1.014  21.895
16198SOL    HW260223   3.274   0.883  21.818
16199SOL     OW60224   3.610   4.014  23.305
16199SOL    HW160225   3.640   3.959  23.378
16199SOL    HW260226   3.567   3.953  23.245
16200SOL     OW60227   1.430   2.546  27.914
16200SOL    HW160228   1.477   2.480  27.965
16200SOL    HW260229   1.339   2.516  27.916
16201SOL     OW60230   2.390   0.793   5.183
16201SOL    HW160231   2.453   0.832   5.123
16201SOL    HW260232   2.319   0.762   5.127
16202SOL     OW60233   0.886   4.322  23.038
16202SOL    HW160234   0.948   4.291  23.103
16202SOL    HW260235   0.838   4.244  23.011
16203SOL     OW60236   3.924   4.254  21.788
16203SOL    HW160237   4.014   4.222  21.779
16203SOL    HW260238   3.914   4.319  21.718
16204SOL     OW60239   2.365   4.133  20.250
16204SOL    HW160240   2.275   4.136  20.218
16204SOL    HW260241   2.368   4.198  20.320
16205SOL     OW60242   0.805   0.742  18.962
16205SOL    HW160243   0.833   0.823  18.919
16205SOL    HW260244   0.820   0.674  18.897
16206SOL     OW60245   0.532   1.247  17.818
16206SOL    HW160246   0.594   1.185  17.856
16206SOL    HW260247   0.456   1.193  17.794
16207SOL     OW60248   2.050   4.228  24.140
16207SOL    HW160249   1.995   4.161  24.181
16207SOL    HW260250   2.138   4.191  24.140
16208SOL     OW60251   2.729   1.577  23.577
16208SOL    HW160252   2.687   1.662  23.586
16208SOL    HW260253   2.811   1.585  23.626
16209SOL     OW60254   2.602   3.945  22.643
16209SOL    HW160255   2.680   3.998  22.661
16209SOL    HW260256   2.605   3.930  22.549
16210SOL     OW60257   1.132   0.250  25.157
16210SOL    HW160258   1.098   0.196  25.229
16210SOL    HW260259   1.056   0.261  25.099
16211SOL     OW60260   3.985   4.775   8.374
16211SOL    HW160261   4.025   4.696   8.339
16211SOL    HW260262   4.030   0.010   8.456
16212SOL     OW60263   3.670   3.131  21.305
16212SOL    HW160264   3.647   3.208  21.253
16212SOL    HW260265   3.694   3.166  21.391
16213SOL     OW60266   2.296   1.784   7.111
16213SOL    HW160267   2.204   1.759   7.120
16213SOL    HW260268   2.327   1.795   7.201
16214SOL     OW60269   4.773   2.591   8.133
16214SOL    HW160270   0.020   2.682   8.140
16214SOL    HW260271   4.772   2.573   8.039
16215SOL     OW60272   3.382   1.017  23.354
16215SOL    HW160273   3.402   1.067  23.275
16215SOL    HW260274   3.302   1.056  23.388
16216SOL     OW60275   1.423   0.305  18.626
16216SOL    HW160276   1.410   0.294  18.720
16216SOL    HW260277   1.335   0.310  18.590
16217SOL     OW60278   1.038   0.893  19.878
16217SOL    HW160279   0.966   0.948  19.847
16217SOL    HW260280   1.111   0.952  19.889
16218SOL     OW60281   4.061   0.886  26.824
16218SOL    HW160282   3.992   0.930  26.874
16218SOL    HW260283   4.110   0.958  26.783
16219SOL     OW60284   4.092   2.440  20.133
16219SOL    HW160285   4.141   2.474  20.057
16219SOL    HW260286   4.083   2.346  20.115
16220SOL     OW60287   1.426   3.541   6.366
16220SOL    HW160288   1.391   3.579   6.446
16220SOL    HW260289   1.478   3.611   6.326
16221SOL     OW60290   2.059   1.903  22.028
16221SOL    HW160291   2.107   1.929  21.949
16221SOL    HW260292   1.967   1.910  22.003
16222SOL     OW60293   3.248   4.389  23.880
16222SOL    HW160294   3.161   4.357  23.854
16222SOL    HW260295   3.277   4.329  23.948
16223SOL     OW60296   1.946   1.485  23.470
16223SOL    HW160297   2.013   1.450  23.529
16223SOL    HW260298   1.876   1.515  23.528
16224SOL     OW60299   2.878   1.608   9.152
16224SOL    HW160300   2.907   1.531   9.103
16224SOL    HW260301   2.914   1.596   9.239
16225SOL     OW60302   1.057   1.019  23.368
16225SOL    HW160303   1.011   0.940  23.393
16225SOL    HW260304   0.989   1.079  23.338
16226SOL     OW60305   1.101   1.690   4.544
16226SOL    HW160306   1.058   1.689   4.630
16226SOL    HW260307   1.186   1.730   4.560
16227SOL     OW60308   3.251   2.568   6.663
16227SOL    HW160309   3.177   2.571   6.602
16227SOL    HW260310   3.250   2.653   6.707
16228SOL     OW60311   1.423   3.653   3.972
16228SOL    HW160312   1.373   3.605   3.906
16228SOL    HW260313   1.361   3.716   4.008
16229SOL     OW60314   1.457   2.502  27.063
16229SOL    HW160315   1.486   2.583  27.021
16229SOL    HW260316   1.475   2.433  26.999
16230SOL     OW60317   3.780   3.810  18.243
16230SOL    HW160318   3.861   3.767  18.214
16230SOL    HW260319   3.728   3.821  18.164
16231SOL     OW60320   1.261   0.304  23.399
16231SOL    HW160321   1.194   0.363  23.435
16231SOL    HW260322   1.269   0.235  23.465
16232SOL     OW60323   1.075   1.538   8.086
16232SOL    HW160324   1.138   1.510   8.152
16232SOL    HW260325   1.090   1.479   8.012
16233SOL     OW60326   3.959   3.901   0.081
16233SOL    HW160327   3.924   3.978   0.126
16233SOL    HW260328   3.886   3.839   0.079
16234SOL     OW60329   2.462   0.110   3.018
16234SOL    HW160330   2.490   0.142   3.104
16234SOL    HW260331   2.533   0.054   2.989
16235SOL     OW60332   2.677   4.621   8.222
16235SOL    HW160333   2.631   4.572   8.290
16235SOL    HW260334   2.660   4.571   8.142
16236SOL     OW60335   4.698   1.116  16.963
16236SOL    HW160336   4.727   1.098  16.873
16236SOL    HW260337   4.779   1.117  17.014
16237SOL     OW60338   2.917   0.689  16.625
16237SOL    HW160339   2.838   0.737  16.600
16237SOL    HW260340   2.967   0.681  16.544
16238SOL     OW60341   0.933   3.634  11.435
16238SOL    HW160342   0.961   3.587  11.514
16238SOL    HW260343   0.960   3.724  11.450
16239SOL     OW60344   2.962   0.222   8.449
16239SOL    HW160345   2.943   0.139   8.405
16239SOL    HW260346   2.971   0.198   8.542
16240SOL     OW60347   3.509   0.873  22.232
16240SOL    HW160348   3.525   0.840  22.143
16240SOL    HW260349   3.531   0.800  22.289
16241SOL     OW60350   4.458   0.307  24.628
16241SOL    HW160351   4.402   0.382  24.610
16241SOL    HW260352   4.464   0.304  24.724
16242SOL     OW60353   0.705   0.536  10.405
16242SOL    HW160354   0.785   0.491  10.380
16242SOL    HW260355   0.692   0.512  10.497
16243SOL     OW60356   4.041   1.162  27.519
16243SOL    HW160357   4.056   1.148  27.425
16243SOL    HW260358   4.114   1.118  27.562
16244SOL     OW60359   3.877   3.049   6.286
16244SOL    HW160360   3.961   3.069   6.327
16244SOL    HW260361   3.875   3.104   6.207
16245SOL     OW60362   4.336   0.938  20.882
16245SOL    HW160363   4.390   0.897  20.950
16245SOL    HW260364   4.349   1.032  20.894
16246SOL     OW60365   2.705   2.381  25.515
16246SOL    HW160366   2.684   2.288  25.525
16246SOL    HW260367   2.781   2.395  25.572
16247SOL     OW60368   2.652   1.077   9.458
16247SOL    HW160369   2.561   1.093   9.483
16247SOL    HW260370   2.681   1.160   9.421
16248SOL     OW60371   0.683   1.802  19.114
16248SOL    HW160372   0.688   1.722  19.167
16248SOL    HW260373   0.633   1.863  19.168
16249SOL     OW60374   1.524   3.273  21.804
16249SOL    HW160375   1.575   3.291  21.725
16249SOL    HW260376   1.437   3.248  21.771
16250SOL     OW60377   4.532   2.183  24.249
16250SOL    HW160378   4.446   2.160  24.213
16250SOL    HW260379   4.546   2.120  24.320
16251SOL     OW60380   1.630   1.591  16.573
16251SOL    HW160381   1.566   1.541  16.623
16251SOL    HW260382   1.587   1.610  16.490
16252SOL     OW60383   2.346   0.015   3.908
16252SOL    HW160384   2.263   0.061   3.923
16252SOL    HW260385   2.332   4.745   3.829
16253SOL     OW60386   2.344   3.489   7.799
16253SOL    HW160387   2.295   3.437   7.863
16253SOL    HW260388   2.280   3.553   7.767
16254SOL     OW60389   3.220   1.047   3.852
16254SOL    HW160390   3.252   0.961   3.879
16254SOL    HW260391   3.288   1.081   3.795
16255SOL     OW60392   0.738   0.029   1.198
16255SOL    HW160393   0.665   0.023   1.260
16255SOL    HW260394   0.707   4.764   1.120
16256SOL     OW60395   0.281   1.809  23.392
16256SOL    HW160396   0.370   1.791  23.363
16256SOL    HW260397   0.292   1.872  23.464
16257SOL     OW60398   4.683   3.742   2.382
16257SOL    HW160399   4.756   3.768   2.437
16257SOL    HW260400   4.684   3.646   2.385
16258SOL     OW60401   2.716   3.951  27.508
16258SOL    HW160402   2.636   3.898  27.504
16258SOL    HW260403   2.716   3.987  27.597
16259SOL     OW60404   0.552   2.490  19.811
16259SOL    HW160405   0.481   2.497  19.875
16259SOL    HW260406   0.622   2.547  19.846
16260SOL     OW60407   1.781   0.073  27.147
16260SOL    HW160408   1.779   4.773  27.096
16260SOL    HW260409   1.771   0.044  27.238
16261SOL     OW60410   2.863   3.167  10.059
16261SOL    HW160411   2.899   3.079  10.067
16261SOL    HW260412   2.799   3.160   9.989
16262SOL     OW60413   1.327   4.423  28.351
16262SOL    HW160414   1.377   4.349  28.384
16262SOL    HW260415   1.391   4.492  28.340
16263SOL     OW60416   4.546   3.749  20.100
16263SOL    HW160417   4.582   3.833  20.071
16263SOL    HW260418   4.508   3.711  20.021
16264SOL     OW60419   4.212   0.465   2.081
16264SOL    HW160420   4.170   0.545   2.111
16264SOL    HW260421   4.285   0.452   2.142
16265SOL     OW60422   0.526   3.107  22.328
16265SOL    HW160423   0.512   3.164  22.404
16265SOL    HW260424   0.542   3.167  22.255
16266SOL     OW60425   2.363   2.426   4.057
16266SOL    HW160426   2.314   2.429   4.139
16266SOL    HW260427   2.412   2.508   4.054
16267SOL     OW60428   1.550   0.829  28.057
16267SOL    HW160429   1.569   0.735  28.049
16267SOL    HW260430   1.536   0.842  28.151
16268SOL     OW60431   2.266   4.057   0.371
16268SOL    HW160432   2.354   4.028   0.344
16268SOL    HW260433   2.283   4.115   0.446
16269SOL     OW60434   2.131   1.253  28.026
16269SOL    HW160435   2.218   1.245  27.987
16269SOL    HW260436   2.093   1.166  28.020
16270SOL     OW60437   3.046   0.552  21.482
16270SOL    HW160438   3.053   0.612  21.408
16270SOL    HW260439   3.134   0.551  21.521
16271SOL     OW60440   3.584   4.503   5.262
16271SOL    HW160441   3.517   4.547   5.211
16271SOL    HW260442   3.573   4.536   5.351
16272SOL     OW60443   4.298   1.796  27.342
16272SOL    HW160444   4.378   1.783  27.393
16272SOL    HW260445   4.250   1.714  27.353
16273SOL     OW60446   4.688   1.086  21.361
16273SOL    HW160447   4.639   1.056  21.437
16273SOL    HW260448   4.626   1.081  21.288
16274SOL     OW60449   2.991   4.226   3.774
16274SOL    HW160450   2.969   4.276   3.695
16274SOL    HW260451   2.907   4.212   3.818
16275SOL     OW60452   1.243   4.587   4.369
16275SOL    HW160453   1.244   4.617   4.460
16275SOL    HW260454   1.301   4.647   4.323
16276SOL     OW60455   0.809   2.318  26.043
16276SOL    HW160456   0.764   2.319  26.128
16276SOL    HW260457   0.845   2.230  26.036
16277SOL     OW60458   2.543   1.733  23.914
16277SOL    HW160459   2.516   1.752  23.824
16277SOL    HW260460   2.462   1.714  23.960
16278SOL     OW60461   2.633   0.839   5.414
16278SOL    HW160462   2.604   0.795   5.495
16278SOL    HW260463   2.587   0.792   5.344
16279SOL     OW60464   4.198   2.450   7.128
16279SOL    HW160465   4.115   2.496   7.123
16279SOL    HW260466   4.178   2.360   7.100
16280SOL     OW60467   3.629   2.490  18.564
16280SOL    HW160468   3.574   2.565  18.588
16280SOL    HW260469   3.667   2.462  18.647
16281SOL     OW60470   0.658   2.234   3.546
16281SOL    HW160471   0.728   2.257   3.486
16281SOL    HW260472   0.678   2.144   3.574
16282SOL     OW60473   3.093   1.687   5.286
16282SOL    HW160474   3.016   1.724   5.244
16282SOL    HW260475   3.072   1.686   5.379
16283SOL     OW60476   1.959   2.192  16.925
16283SOL    HW160477   1.997   2.186  16.837
16283SOL    HW260478   2.034   2.179  16.984
16284SOL     OW60479   0.985   3.475   0.199
16284SOL    HW160480   1.023   3.563   0.198
16284SOL    HW260481   1.023   3.433   0.277
16285SOL     OW60482   0.848   4.504  21.071
16285SOL    HW160483   0.913   4.504  21.141
16285SOL    HW260484   0.764   4.510  21.116
16286SOL     OW60485   0.309   4.130  21.243
16286SOL    HW160486   0.279   4.042  21.222
16286SOL    HW260487   0.397   4.135  21.203
16287SOL     OW60488   1.994   4.394   2.797
16287SOL    HW160489   2.002   4.364   2.888
16287SOL    HW260490   1.999   4.489   2.803
16288SOL     OW60491   4.508   4.772  22.227
16288SOL    HW160492   4.577   4.729  22.277
16288SOL    HW260493   4.428   4.724  22.249
16289SOL     OW60494   1.465   4.673  22.735
16289SOL    HW160495   1.402   4.684  22.664
16289SOL    HW260496   1.475   4.761  22.771
16290SOL     OW60497   3.149   3.786  27.586
16290SOL    HW160498   3.221   3.751  27.638
16290SOL    HW260499   3.072   3.738  27.616
16291SOL     OW60500   4.615   3.970  17.546
16291SOL    HW160501   4.540   4.009  17.502
16291SOL    HW260502   4.678   3.954  17.476
16292SOL     OW60503   0.121   1.844  19.263
16292SOL    HW160504   0.089   1.921  19.216
16292SOL    HW260505   0.181   1.879  19.329
16293SOL     OW60506   2.405   2.549   1.206
16293SOL    HW160507   2.392   2.468   1.155
16293SOL    HW260508   2.498   2.549   1.226
16294SOL     OW60509   2.494   0.463   7.310
16294SOL    HW160510   2.531   0.422   7.232
16294SOL    HW260511   2.549   0.434   7.382
16295SOL     OW60512   4.022   4.289  22.556
16295SOL    HW160513   4.100   4.278  22.611
16295SOL    HW260514   4.045   4.361  22.497
16296SOL     OW60515   2.896   3.424  21.450
16296SOL    HW160516   2.876   3.474  21.371
16296SOL    HW260517   2.987   3.447  21.471
16297SOL     OW60518   3.045   3.376  22.651
16297SOL    HW160519   3.035   3.305  22.588
16297SOL    HW260520   2.956   3.409  22.665
16298SOL     OW60521   1.698   3.625   2.836
16298SOL    HW160522   1.771   3.566   2.816
16298SOL    HW260523   1.738   3.694   2.890
16299SOL     OW60524   3.955   4.503   4.906
16299SOL    HW160525   3.934   4.485   4.998
16299SOL    HW260526   3.874   4.484   4.859
16300SOL     OW60527   3.952   3.677   1.961
16300SOL    HW160528   3.955   3.732   2.040
16300SOL    HW260529   4.030   3.701   1.911
16301SOL     OW60530   1.045   1.024  25.708
16301SOL    HW160531   0.997   0.966  25.766
16301SOL    HW260532   1.073   1.097  25.764
16302SOL     OW60533   2.883   4.566  24.145
16302SOL    HW160534   2.801   4.536  24.185
16302SOL    HW260535   2.862   4.572  24.052
16303SOL     OW60536   4.133   0.695  17.441
16303SOL    HW160537   4.210   0.691  17.384
16303SOL    HW260538   4.071   0.633  17.402
16304SOL     OW60539   3.947   2.839   4.561
16304SOL    HW160540   3.992   2.913   4.520
16304SOL    HW260541   3.942   2.863   4.653
16305SOL     OW60542   2.089   0.044   5.150
16305SOL    HW160543   2.022   0.086   5.096
16305SOL    HW260544   2.170   0.055   5.101
16306SOL     OW60545   1.143   2.293  21.060
16306SOL    HW160546   1.136   2.255  21.148
16306SOL    HW260547   1.200   2.369  21.072
16307SOL     OW60548   1.075   4.692  19.920
16307SOL    HW160549   1.116   4.655  19.842
16307SOL    HW260550   0.982   4.672  19.909
16308SOL     OW60551   0.916   1.234   8.281
16308SOL    HW160552   0.881   1.318   8.250
16308SOL    HW260553   0.989   1.215   8.221
16309SOL     OW60554   3.955   0.024  26.425
16309SOL    HW160555   3.883   4.743  26.440
16309SOL    HW260556   3.955   0.039  26.331
16310SOL     OW60557   4.571   0.243  20.040
16310SOL    HW160558   4.577   0.204  19.953
16310SOL    HW260559   4.531   0.328  20.026
16311SOL     OW60560   2.866   1.881  23.867
16311SOL    HW160561   2.876   1.936  23.789
16311SOL    HW260562   2.873   1.791  23.834
16312SOL     OW60563   1.964   0.386  28.212
16312SOL    HW160564   2.010   0.351  28.288
16312SOL    HW260565   1.925   0.468  28.244
16313SOL     OW60566   1.843   2.556   2.218
16313SOL    HW160567   1.842   2.503   2.138
16313SOL    HW260568   1.931   2.546   2.253
16314SOL     OW60569   1.287   2.356  22.495
16314SOL    HW160570   1.206   2.313  22.468
16314SOL    HW260571   1.307   2.320  22.581
16315SOL     OW60572   3.898   3.605   6.507
16315SOL    HW160573   3.911   3.635   6.597
16315SOL    HW260574   3.972   3.546   6.491
16316SOL     OW60575   0.884   1.581  27.396
16316SOL    HW160576   0.977   1.566  27.380
16316SOL    HW260577   0.874   1.571  27.490
16317SOL     OW60578   4.544   4.317  20.509
16317SOL    HW160579   4.480   4.325  20.438
16317SOL    HW260580   4.492   4.296  20.586
16318SOL     OW60581   0.738   3.808  16.792
16318SOL    HW160582   0.813   3.749  16.804
16318SOL    HW260583   0.694   3.775  16.714
16319SOL     OW60584   1.940   4.642  26.818
16319SOL    HW160585   1.878   4.641  26.745
16319SOL    HW260586   1.994   4.564  26.805
16320SOL     OW60587   4.024   1.987   2.035
16320SOL    HW160588   4.070   2.055   2.084
16320SOL    HW260589   3.979   2.035   1.965
16321SOL     OW60590   2.009   1.669  23.716
16321SOL    HW160591   2.048   1.724  23.647
16321SOL    HW260592   1.941   1.724  23.754
16322SOL     OW60593   0.962   0.266  20.512
16322SOL    HW160594   0.949   0.176  20.542
16322SOL    HW260595   0.953   0.319  20.591
16323SOL     OW60596   3.887   2.963  23.383
16323SOL    HW160597   3.877   3.058  23.384
16323SOL    HW260598   3.805   2.930  23.345
16324SOL     OW60599   3.677   2.412  27.095
16324SOL    HW160600   3.675   2.404  27.000
16324SOL    HW260601   3.718   2.497  27.111
16325SOL     OW60602   0.802   0.668  24.377
16325SOL    HW160603   0.819   0.703  24.465
16325SOL    HW260604   0.708   0.648  24.377
16326SOL     OW60605   0.019   2.529   6.136
16326SOL    HW160606   0.108   2.518   6.102
16326SOL    HW260607   4.766   2.606   6.090
16327SOL     OW60608   3.882   1.821   8.438
16327SOL    HW160609   3.869   1.903   8.390
16327SOL    HW260610   3.961   1.837   8.490
16328SOL     OW60611   2.808   4.218  24.633
16328SOL    HW160612   2.794   4.124  24.646
16328SOL    HW260613   2.867   4.223  24.558
16329SOL     OW60614   1.856   3.669  26.758
16329SOL    HW160615   1.893   3.757  26.750
16329SOL    HW260616   1.766   3.678  26.728
16330SOL     OW60617   1.854   3.676  21.403
16330SOL    HW160618   1.774   3.727  21.411
16330SOL    HW260619   1.839   3.619  21.328
16331SOL     OW60620   4.543   1.938   1.284
16331SOL    HW160621   4.468   1.988   1.251
16331SOL    HW260622   4.514   1.904   1.368
16332SOL     OW60623   0.154   1.293  26.782
16332SOL    HW160624   0.134   1.379  26.819
16332SOL    HW260625   0.139   1.232  26.855
16333SOL     OW60626   4.558   4.421   8.163
16333SOL    HW160627   4.521   4.349   8.112
16333SOL    HW260628   4.495   4.492   8.155
16334SOL     OW60629   2.585   0.057  21.644
16334SOL    HW160630   2.506   0.098  21.608
16334SOL    HW260631   2.647   0.058  21.570
16335SOL     OW60632   2.460   1.001  28.207
16335SOL    HW160633   2.444   1.090  28.239
16335SOL    HW260634   2.383   0.951  28.234
16336SOL     OW60635   3.949   0.864  23.459
16336SOL    HW160636   3.928   0.929  23.526
16336SOL    HW260637   3.990   0.914  23.388
16337SOL     OW60638   3.020   1.521  21.352
16337SOL    HW160639   3.002   1.527  21.446
16337SOL    HW260640   2.997   1.608  21.318
16338SOL     OW60641   1.283   3.167  20.958
16338SOL    HW160642   1.282   3.237  21.023
16338SOL    HW260643   1.202   3.180  20.907
16339SOL     OW60644   3.486   0.937   8.684
16339SOL    HW160645   3.543   0.954   8.609
16339SOL    HW260646   3.460   1.024   8.714
16340SOL     OW60647   0.639   0.324   5.236
16340SOL    HW160648   0.572   0.329   5.303
16340SOL    HW260649   0.594   0.346   5.155
16341SOL     OW60650   0.131   0.325  25.813
16341SOL    HW160651   0.070   0.264  25.855
16341SOL    HW260652   0.161   0.382  25.883
16342SOL     OW60653   1.427   3.984   6.725
16342SOL    HW160654   1.520   3.967   6.706
16342SOL    HW260655   1.426   4.013   6.816
16343SOL     OW60656   3.125   3.804  18.873
16343SOL    HW160657   3.185   3.853  18.817
16343SOL    HW260658   3.081   3.744  18.814
16344SOL     OW60659   4.055   2.699  20.220
16344SOL    HW160660   4.145   2.686  20.250
16344SOL    HW260661   4.033   2.618  20.174
16345SOL     OW60662   3.992   0.356  23.178
16345SOL    HW160663   3.955   0.287  23.233
16345SOL    HW260664   3.933   0.430  23.189
16346SOL     OW60665   4.079   4.747  21.095
16346SOL    HW160666   3.985   4.734  21.110
16346SOL    HW260667   4.086   0.057  21.065
16347SOL     OW60668   1.928   3.927   3.374
16347SOL    HW160669   1.879   3.924   3.456
16347SOL    HW260670   1.982   4.005   3.381
16348SOL     OW60671   0.713   3.550   7.782
16348SOL    HW160672   0.694   3.478   7.722
16348SOL    HW260673   0.627   3.575   7.817
16349SOL     OW60674   3.562   2.504   7.328
16349SOL    HW160675   3.487   2.470   7.377
16349SOL    HW260676   3.591   2.580   7.379
16350SOL     OW60677   2.936   1.772  20.718
16350SOL    HW160678   2.953   1.699  20.659
16350SOL    HW260679   2.959   1.737  20.805
16351SOL     OW60680   1.782   1.173   5.546
16351SOL    HW160681   1.704   1.227   5.551
16351SOL    HW260682   1.751   1.087   5.519
16352SOL     OW60683   0.592   1.489  21.500
16352SOL    HW160684   0.662   1.426  21.485
16352SOL    HW260685   0.518   1.435  21.529
16353SOL     OW60686   1.775   4.286   2.429
16353SOL    HW160687   1.685   4.252   2.434
16353SOL    HW260688   1.812   4.268   2.515
16354SOL     OW60689   1.630   1.714  22.607
16354SOL    HW160690   1.557   1.771  22.584
16354SOL    HW260691   1.678   1.703  22.525
16355SOL     OW60692   0.503   0.274  25.787
16355SOL    HW160693   0.505   0.326  25.868
16355SOL    HW260694   0.545   0.330  25.722
16356SOL     OW60695   1.276   1.837   1.950
16356SOL    HW160696   1.271   1.913   1.891
16356SOL    HW260697   1.367   1.807   1.942
16357SOL     OW60698   1.165   3.703  23.766
16357SOL    HW160699   1.173   3.619  23.812
16357SOL    HW260700   1.102   3.686  23.696
16358SOL     OW60701   0.887   1.208   4.205
16358SOL    HW160702   0.853   1.290   4.170
16358SOL    HW260703   0.964   1.233   4.256
16359SOL     OW60704   3.137   0.162  18.141
16359SOL    HW160705   3.105   0.072  18.131
16359SOL    HW260706   3.068   0.206  18.190
16360SOL     OW60707   2.175   3.828   4.529
16360SOL    HW160708   2.107   3.784   4.477
16360SOL    HW260709   2.149   3.920   4.530
16361SOL     OW60710   1.917   2.158  22.728
16361SOL    HW160711   1.930   2.087  22.791
16361SOL    HW260712   1.824   2.177  22.731
16362SOL     OW60713   1.436   3.023  22.104
16362SOL    HW160714   1.485   3.049  22.026
16362SOL    HW260715   1.496   2.966  22.152
16363SOL     OW60716   0.946   0.882   1.889
16363SOL    HW160717   0.876   0.835   1.935
16363SOL    HW260718   0.900   0.948   1.837
16364SOL     OW60719   4.622   4.762   7.860
16364SOL    HW160720   4.682   0.055   7.852
16364SOL    HW260721   4.549   0.014   7.911
16365SOL     OW60722   1.677   4.763   2.057
16365SOL    HW160723   1.686   4.753   2.152
16365SOL    HW260724   1.687   0.076   2.042
16366SOL     OW60725   1.504   4.305  21.843
16366SOL    HW160726   1.513   4.253  21.764
16366SOL    HW260727   1.572   4.272  21.902
16367SOL     OW60728   4.695   1.377   0.868
16367SOL    HW160729   4.719   1.296   0.824
16367SOL    HW260730   4.708   1.358   0.961
16368SOL     OW60731   2.317   3.792  22.318
16368SOL    HW160732   2.330   3.701  22.292
16368SOL    HW260733   2.367   3.801  22.400
16369SOL     OW60734   4.489   2.925   2.710
16369SOL    HW160735   4.561   2.953   2.766
16369SOL    HW260736   4.530   2.866   2.646
16370SOL     OW60737   3.446   2.741  10.252
16370SOL    HW160738   3.461   2.798  10.327
16370SOL    HW260739   3.427   2.655  10.291
16371SOL     OW60740   0.582   2.903   5.645
16371SOL    HW160741   0.664   2.953   5.644
16371SOL    HW260742   0.531   2.940   5.573
16372SOL     OW60743   2.396   0.110   0.386
16372SOL    HW160744   2.467   0.127   0.325
16372SOL    HW260745   2.439   0.070   0.462
16373SOL     OW60746   3.129   0.986  20.381
16373SOL    HW160747   3.215   0.952  20.356
16373SOL    HW260748   3.135   1.080  20.367
16374SOL     OW60749   0.398   1.519  22.486
16374SOL    HW160750   0.414   1.559  22.400
16374SOL    HW260751   0.475   1.465  22.502
16375SOL     OW60752   3.940   2.462   1.325
16375SOL    HW160753   3.875   2.531   1.330
16375SOL    HW260754   3.964   2.458   1.232
16376SOL     OW60755   3.432   1.467  10.524
16376SOL    HW160756   3.376   1.440  10.596
16376SOL    HW260757   3.511   1.415  10.534
16377SOL     OW60758   0.875   1.284  23.565
16377SOL    HW160759   0.788   1.288  23.607
16377SOL    HW260760   0.862   1.227  23.489
16378SOL     OW60761   2.128   3.038   5.081
16378SOL    HW160762   2.093   3.112   5.131
16378SOL    HW260763   2.175   3.078   5.008
16379SOL     OW60764   3.113   0.899   0.599
16379SOL    HW160765   3.135   0.977   0.549
16379SOL    HW260766   3.017   0.895   0.596
16380SOL     OW60767   2.780   3.672   8.183
16380SOL    HW160768   2.875   3.660   8.179
16380SOL    HW260769   2.767   3.766   8.166
16381SOL     OW60770   4.043   3.547  28.067
16381SOL    HW160771   4.129   3.508  28.053
16381SOL    HW260772   4.059   3.622  28.124
16382SOL     OW60773   1.338   1.408   7.258
16382SOL    HW160774   1.320   1.499   7.278
16382SOL    HW260775   1.319   1.361   7.339
16383SOL     OW60776   1.387   1.871  17.307
16383SOL    HW160777   1.444   1.870  17.230
16383SOL    HW260778   1.406   1.789  17.352
16384SOL     OW60779   4.239   1.885  21.617
16384SOL    HW160780   4.316   1.858  21.667
16384SOL    HW260781   4.265   1.876  21.526
16385SOL     OW60782   0.041   4.310  24.868
16385SOL    HW160783   0.086   4.358  24.799
16385SOL    HW260784   0.015   4.227  24.827
16386SOL     OW60785   0.388   2.254   6.791
16386SOL    HW160786   0.313   2.203   6.759
16386SOL    HW260787   0.432   2.284   6.711
16387SOL     OW60788   3.683   2.423  20.395
16387SOL    HW160789   3.697   2.485  20.466
16387SOL    HW260790   3.722   2.464  20.318
16388SOL     OW60791   1.820   0.275   3.724
16388SOL    HW160792   1.894   0.311   3.675
16388SOL    HW260793   1.860   0.210   3.782
16389SOL     OW60794   3.202   0.008   8.011
16389SOL    HW160795   3.240   0.052   7.935
16389SOL    HW260796   3.185   0.078   8.074
16390SOL     OW60797   3.824   0.225   7.394
16390SOL    HW160798   3.828   0.178   7.311
16390SOL    HW260799   3.875   0.171   7.455
16391SOL     OW60800   1.404   4.484   3.362
16391SOL    HW160801   1.392   4.462   3.455
16391SOL    HW260802   1.499   4.481   3.349
16392SOL     OW60803   2.619   0.425  25.440
16392SOL    HW160804   2.598   0.508  25.397
16392SOL    HW260805   2.673   0.379  25.376
16393SOL     OW60806   3.267   3.194   7.845
16393SOL    HW160807   3.350   3.238   7.825
16393SOL    HW260808   3.244   3.149   7.764
16394SOL     OW60809   4.102   3.146  21.474
16394SOL    HW160810   4.139   3.203  21.408
16394SOL    HW260811   4.063   3.205  21.538
16395SOL     OW60812   3.109   3.445  23.028
16395SOL    HW160813   3.090   3.489  23.111
16395SOL    HW260814   3.199   3.414  23.038
16396SOL     OW60815   1.034   3.716  20.136
16396SOL    HW160816   1.073   3.629  20.150
16396SOL    HW260817   1.088   3.755  20.067
16397SOL     OW60818   1.938   2.351   4.760
16397SOL    HW160819   2.028   2.363   4.729
16397SOL    HW260820   1.892   2.430   4.731
16398SOL     OW60821   2.520   0.571  18.934
16398SOL    HW160822   2.597   0.589  18.988
16398SOL    HW260823   2.551   0.579  18.844
16399SOL     OW60824   0.101   3.611   4.431
16399SOL    HW160825   0.041   3.636   4.502
16399SOL    HW260826   0.082   3.674   4.361
16400SOL     OW60827   1.202   2.914  19.610
16400SOL    HW160828   1.108   2.931  19.598
16400SOL    HW260829   1.238   2.999  19.634
16401SOL     OW60830   0.248   4.613   1.563
16401SOL    HW160831   0.234   4.697   1.606
16401SOL    HW260832   0.163   4.570   1.565
16402SOL     OW60833   3.467   1.189   0.339
16402SOL    HW160834   3.481   1.121   0.272
16402SOL    HW260835   3.375   1.179   0.364
16403SOL     OW60836   3.899   4.189   5.625
16403SOL    HW160837   3.836   4.255   5.594
16403SOL    HW260838   3.861   4.155   5.706
16404SOL     OW60839   0.645   2.082   4.727
16404SOL    HW160840   0.587   2.120   4.794
16404SOL    HW260841   0.586   2.051   4.659
16405SOL     OW60842   0.698   3.539   3.914
16405SOL    HW160843   0.628   3.568   3.855
16405SOL    HW260844   0.679   3.447   3.930
16406SOL     OW60845   0.353   4.434   0.415
16406SOL    HW160846   0.413   4.423   0.489
16406SOL    HW260847   0.411   4.454   0.341
16407SOL     OW60848   1.030   4.426  28.376
16407SOL    HW160849   1.119   4.444  28.348
16407SOL    HW260850   0.994   4.511  28.400
16408SOL     OW60851   2.421   4.371  23.797
16408SOL    HW160852   2.393   4.280  23.794
16408SOL    HW260853   2.394   4.401  23.884
16409SOL     OW60854   3.393   1.247   1.039
16409SOL    HW160855   3.327   1.208   1.097
16409SOL    HW260856   3.476   1.207   1.066
16410SOL     OW60857   3.566   4.677   0.671
16410SOL    HW160858   3.552   4.770   0.688
16410SOL    HW260859   3.653   4.658   0.705
16411SOL     OW60860   2.315   1.679  25.882
16411SOL    HW160861   2.396   1.639  25.851
16411SOL    HW260862   2.269   1.706  25.802
16412SOL     OW60863   4.619   0.702   9.664
16412SOL    HW160864   4.569   0.700   9.745
16412SOL    HW260865   4.634   0.610   9.643
16413SOL     OW60866   1.682   2.709  10.405
16413SOL    HW160867   1.776   2.705  10.385
16413SOL    HW260868   1.671   2.646  10.477
16414SOL     OW60869   3.349   1.695  22.597
16414SOL    HW160870   3.381   1.611  22.629
16414SOL    HW260871   3.383   1.701  22.508
16415SOL     OW60872   2.306   0.707  27.173
16415SOL    HW160873   2.316   0.787  27.224
16415SOL    HW260874   2.385   0.656  27.192
16416SOL     OW60875   0.683   1.011   2.356
16416SOL    HW160876   0.595   1.033   2.386
16416SOL    HW260877   0.740   1.076   2.397
16417SOL     OW60878   3.031   3.846  26.209
16417SOL    HW160879   3.099   3.800  26.160
16417SOL    HW260880   3.075   3.923  26.245
16418SOL     OW60881   0.837   0.948   1.170
16418SOL    HW160882   0.933   0.947   1.174
16418SOL    HW260883   0.815   1.029   1.124
16419SOL     OW60884   2.409   4.242  20.909
16419SOL    HW160885   2.354   4.186  20.963
16419SOL    HW260886   2.373   4.233  20.821
16420SOL     OW60887   3.853   0.059   7.917
16420SOL    HW160888   3.826   4.765   7.865
16420SOL    HW260889   3.774   0.111   7.928
16421SOL     OW60890   4.304   0.501   8.353
16421SOL    HW160891   4.224   0.546   8.322
16421SOL    HW260892   4.364   0.506   8.279
16422SOL     OW60893   3.294   2.916   6.551
16422SOL    HW160894   3.284   2.990   6.491
16422SOL    HW260895   3.388   2.902   6.557
16423SOL     OW60896   0.536   2.459   7.977
16423SOL    HW160897   0.483   2.472   8.055
16423SOL    HW260898   0.621   2.497   8.000
16424SOL     OW60899   4.192   1.814  16.615
16424SOL    HW160900   4.282   1.796  16.589
16424SOL    HW260901   4.138   1.778  16.544
16425SOL     OW60902   2.694   2.248  18.990
16425SOL    HW160903   2.686   2.198  19.071
16425SOL    HW260904   2.766   2.309  19.006
16426SOL     OW60905   0.257   0.593   5.801
16426SOL    HW160906   0.194   0.662   5.779
16426SOL    HW260907   0.283   0.612   5.891
16427SOL     OW60908   2.528   0.953   0.270
16427SOL    HW160909   2.559   0.951   0.179
16427SOL    HW260910   2.494   0.865   0.285
16428SOL     OW60911   3.670   3.630  25.628
16428SOL    HW160912   3.652   3.602  25.539
16428SOL    HW260913   3.754   3.589  25.650
16429SOL     OW60914   2.400   3.848  16.944
16429SOL    HW160915   2.484   3.816  16.912
16429SOL    HW260916   2.360   3.892  16.869
16430SOL     OW60917   4.265   3.479   8.028
16430SOL    HW160918   4.185   3.524   8.057
16430SOL    HW260919   4.253   3.389   8.058
16431SOL     OW60920   2.417   2.125  20.115
16431SOL    HW160921   2.325   2.135  20.088
16431SOL    HW260922   2.467   2.136  20.035
16432SOL     OW60923   1.099   0.882   4.675
16432SOL    HW160924   1.145   0.920   4.600
16432SOL    HW260925   1.009   0.913   4.666
16433SOL     OW60926   0.964   3.465   5.446
16433SOL    HW160927   0.893   3.402   5.431
16433SOL    HW260928   1.038   3.430   5.396
16434SOL     OW60929   3.149   2.056  25.520
16434SOL    HW160930   3.124   2.063  25.612
16434SOL    HW260931   3.221   1.993  25.519
16435SOL     OW60932   0.145   2.501   4.443
16435SOL    HW160933   0.136   2.572   4.379
16435SOL    HW260934   0.239   2.496   4.459
16436SOL     OW60935   2.439   4.064   1.234
16436SOL    HW160936   2.480   4.067   1.320
16436SOL    HW260937   2.457   3.976   1.201
16437SOL     OW60938   0.734   0.606   7.869
16437SOL    HW160939   0.789   0.629   7.944
16437SOL    HW260940   0.769   0.657   7.796
16438SOL     OW60941   4.425   2.069  16.964
16438SOL    HW160942   4.369   2.135  16.922
16438SOL    HW260943   4.399   1.986  16.924
16439SOL     OW60944   2.412   1.556   0.435
16439SOL    HW160945   2.428   1.496   0.507
16439SOL    HW260946   2.468   1.632   0.454
16440SOL     OW60947   2.321   3.172   4.912
16440SOL    HW160948   2.322   3.261   4.876
16440SOL    HW260949   2.387   3.173   4.981
16441SOL     OW60950   0.145   1.053  23.511
16441SOL    HW160951   0.224   1.053  23.456
16441SOL    HW260952   0.085   1.113  23.467
16442SOL     OW60953   0.152   1.765   8.436
16442SOL    HW160954   0.056   1.764   8.436
16442SOL    HW260955   0.176   1.727   8.521
16443SOL     OW60956   1.397   4.767   2.908
16443SOL    HW160957   1.367   4.678   2.890
16443SOL    HW260958   1.488   4.756   2.938
16444SOL     OW60959   2.150   2.095  25.648
16444SOL    HW160960   2.080   2.145  25.607
16444SOL    HW260961   2.174   2.145  25.726
16445SOL     OW60962   0.376   4.194  22.256
16445SOL    HW160963   0.422   4.228  22.333
16445SOL    HW260964   0.358   4.271  22.202
16446SOL     OW60965   1.816   3.643   3.288
16446SOL    HW160966   1.861   3.559   3.283
16446SOL    HW260967   1.815   3.664   3.381
16447SOL     OW60968   1.646   1.547  21.675
16447SOL    HW160969   1.709   1.492  21.722
16447SOL    HW260970   1.668   1.534  21.583
16448SOL     OW60971   3.138   0.173   3.359
16448SOL    HW160972   3.162   0.213   3.443
16448SOL    HW260973   3.131   0.079   3.379
16449SOL     OW60974   4.587   4.514   9.099
16449SOL    HW160975   4.529   4.573   9.145
16449SOL    HW260976   4.532   4.439   9.076
16450SOL     OW60977   3.847   2.486  28.150
16450SOL    HW160978   3.903   2.433  28.095
16450SOL    HW260979   3.821   2.560  28.095
16451SOL     OW60980   3.949   3.357   0.370
16451SOL    HW160981   3.868   3.320   0.407
16451SOL    HW260982   3.952   3.446   0.404
16452SOL     OW60983   0.652   2.698   0.615
16452SOL    HW160984   0.632   2.742   0.532
16452SOL    HW260985   0.720   2.634   0.593
16453SOL     OW60986   2.102   3.564  24.836
16453SOL    HW160987   2.067   3.506  24.768
16453SOL    HW260988   2.095   3.652  24.799
16454SOL     OW60989   3.127   3.767  22.028
16454SOL    HW160990   3.193   3.787  22.094
16454SOL    HW260991   3.086   3.852  22.010
16455SOL     OW60992   4.668   2.572  24.126
16455SOL    HW160993   4.681   2.479  24.145
16455SOL    HW260994   4.605   2.573  24.054
16456SOL     OW60995   4.265   0.472  23.254
16456SOL    HW160996   4.197   0.406  23.252
16456SOL    HW260997   4.225   0.549  23.214
16457SOL     OW60998   0.826   0.008   5.406
16457SOL    HW160999   0.784   0.020   5.321
16457SOL    HW261000   0.909   0.055   5.399
16458SOL     OW61001   4.529   2.961  20.274
16458SOL    HW161002   4.453   3.009  20.307
16458SOL    HW261003   4.603   2.998  20.322
16459SOL     OW61004   1.348   3.728  23.108
16459SOL    HW161005   1.273   3.717  23.049
16459SOL    HW261006   1.309   3.755  23.191
16460SOL     OW61007   3.185   0.377   0.852
16460SOL    HW161008   3.119   0.439   0.822
16460SOL    HW261009   3.251   0.432   0.894
16461SOL     OW61010   0.028   4.067  24.740
16461SOL    HW161011   4.777   4.078  24.651
16461SOL    HW261012   0.122   4.086  24.736
16462SOL     OW61013   1.216   2.179  19.616
16462SOL    HW161014   1.138   2.206  19.568
16462SOL    HW261015   1.184   2.117  19.681
16463SOL     OW61016   2.112   0.962  20.802
16463SOL    HW161017   2.152   0.902  20.865
16463SOL    HW261018   2.162   1.043  20.812
16464SOL     OW61019   0.848   1.501   4.088
16464SOL    HW161020   0.845   1.582   4.037
16464SOL    HW261021   0.836   1.529   4.179
16465SOL     OW61022   4.780   2.311  20.086
16465SOL    HW161023   0.094   2.307  20.088
16465SOL    HW261024   4.757   2.375  20.153
16466SOL     OW61025   2.726   0.859  24.385
16466SOL    HW161026   2.692   0.902  24.463
16466SOL    HW261027   2.795   0.917  24.354
16467SOL     OW61028   4.073   4.309   3.266
16467SOL    HW161029   4.074   4.289   3.173
16467SOL    HW261030   4.055   4.403   3.270
16468SOL     OW61031   3.335   2.894  27.379
16468SOL    HW161032   3.420   2.851  27.374
16468SOL    HW261033   3.355   2.988  27.377
16469SOL     OW61034   1.438   3.193   2.986
16469SOL    HW161035   1.373   3.242   3.036
16469SOL    HW261036   1.511   3.255   2.974
16470SOL     OW61037   2.192   2.013   6.049
16470SOL    HW161038   2.220   1.975   5.966
16470SOL    HW261039   2.221   1.950   6.115
16471SOL     OW61040   4.612   1.484   7.327
16471SOL    HW161041   4.662   1.452   7.253
16471SOL    HW261042   4.666   1.464   7.403
16472SOL     OW61043   3.211   1.693   0.980
16472SOL    HW161044   3.197   1.763   1.044
16472SOL    HW261045   3.209   1.613   1.032
16473SOL     OW61046   1.713   4.099  19.155
16473SOL    HW161047   1.778   4.125  19.089
16473SOL    HW261048   1.638   4.156  19.139
16474SOL     OW61049   1.960   1.972   9.417
16474SOL    HW161050   1.869   1.945   9.431
16474SOL    HW261051   2.005   1.891   9.393
16475SOL     OW61052   0.216   2.077   6.695
16475SOL    HW161053   0.219   2.059   6.789
16475SOL    HW261054   0.184   1.995   6.656
16476SOL     OW61055   0.404   4.550   0.171
16476SOL    HW161056   0.386   4.615   0.240
16476SOL    HW261057   0.384   4.596   0.090
16477SOL     OW61058   3.523   3.659  15.458
16477SOL    HW161059   3.453   3.602  15.488
16477SOL    HW261060   3.519   3.653  15.362
16478SOL     OW61061   0.858   0.728   2.528
16478SOL    HW161062   0.906   0.690   2.602
16478SOL    HW261063   0.798   0.659   2.500
16479SOL     OW61064   3.169   3.429   1.449
16479SOL    HW161065   3.260   3.456   1.435
16479SOL    HW261066   3.159   3.427   1.544
16480SOL     OW61067   1.552   2.840   0.130
16480SOL    HW161068   1.586   2.930   0.128
16480SOL    HW261069   1.542   2.820   0.223
16481SOL     OW61070   0.423   3.392   7.602
16481SOL    HW161071   0.328   3.396   7.594
16481SOL    HW261072   0.452   3.481   7.587
16482SOL     OW61073   1.931   4.378   3.549
16482SOL    HW161074   1.855   4.337   3.590
16482SOL    HW261075   1.912   4.472   3.551
16483SOL     OW61076   2.390   3.150   9.755
16483SOL    HW161077   2.385   3.128   9.662
16483SOL    HW261078   2.300   3.167   9.781
16484SOL     OW61079   4.252   3.097  18.897
16484SOL    HW161080   4.202   3.179  18.899
16484SOL    HW261081   4.253   3.072  18.804
16485SOL     OW61082   1.701   3.408   7.225
16485SOL    HW161083   1.762   3.457   7.280
16485SOL    HW261084   1.631   3.381   7.285
16486SOL     OW61085   2.995   0.599  27.285
16486SOL    HW161086   3.090   0.609  27.284
16486SOL    HW261087   2.964   0.667  27.344
16487SOL     OW61088   0.785   2.361   7.459
16487SOL    HW161089   0.841   2.349   7.382
16487SOL    HW261090   0.845   2.354   7.533
16488SOL     OW61091   1.869   2.723  21.435
16488SOL    HW161092   1.796   2.745  21.493
16488SOL    HW261093   1.853   2.632  21.409
16489SOL     OW61094   3.232   4.024   1.251
16489SOL    HW161095   3.224   3.956   1.184
16489SOL    HW261096   3.151   4.074   1.245
16490SOL     OW61097   0.620   0.286  22.086
16490SOL    HW161098   0.715   0.277  22.096
16490SOL    HW261099   0.602   0.245  22.001
16491SOL     OW61100   0.321   2.826   1.566
16491SOL    HW161101   0.341   2.854   1.477
16491SOL    HW261102   0.253   2.759   1.556
16492SOL     OW61103   0.295   0.321  28.301
16492SOL    HW161104   0.329   0.399  28.345
16492SOL    HW261105   0.223   0.353  28.247
16493SOL     OW61106   1.222   3.579   1.636
16493SOL    HW161107   1.287   3.615   1.696
16493SOL    HW261108   1.180   3.655   1.597
16494SOL     OW61109   2.682   1.014  25.117
16494SOL    HW161110   2.696   0.948  25.049
16494SOL    HW261111   2.608   1.066  25.086
16495SOL     OW61112   3.895   3.460   6.876
16495SOL    HW161113   3.833   3.491   6.810
16495SOL    HW261114   3.857   3.379   6.909
16496SOL     OW61115   4.159   0.829  27.784
16496SOL    HW161116   4.148   0.747  27.832
16496SOL    HW261117   4.117   0.813  27.699
16497SOL     OW61118   1.293   1.594   3.154
16497SOL    HW161119   1.351   1.533   3.200
16497SOL    HW261120   1.262   1.544   3.079
16498SOL     OW61121   1.956   1.370  22.733
16498SOL    HW161122   1.943   1.420  22.652
16498SOL    HW261123   1.903   1.291  22.721
16499SOL     OW61124   4.526   3.416  25.460
16499SOL    HW161125   4.571   3.407  25.376
16499SOL    HW261126   4.596   3.407  25.525
16500SOL     OW61127   4.614   0.838   5.881
16500SOL    HW161128   4.536   0.833   5.936
16500SOL    HW261129   4.584   0.878   5.799
16501SOL     OW61130   2.348   2.193   4.768
16501SOL    HW161131   2.310   2.250   4.834
16501SOL    HW261132   2.433   2.168   4.804
16502SOL     OW61133   3.662   2.961  22.825
16502SOL    HW161134   3.665   3.056  22.817
16502SOL    HW261135   3.684   2.928  22.738
16503SOL     OW61136   0.274   4.720   8.856
16503SOL    HW161137   0.262   4.682   8.768
16503SOL    HW261138   0.366   4.706   8.875
16504SOL     OW61139   4.742   4.102   0.716
16504SOL    HW161140   0.022   4.042   0.674
16504SOL    HW261141   4.748   4.183   0.665
16505SOL     OW61142   0.729   2.293  15.492
16505SOL    HW161143   0.647   2.326  15.454
16505SOL    HW261144   0.770   2.370  15.532
16506SOL     OW61145   0.648   0.196   8.357
16506SOL    HW161146   0.675   0.285   8.378
16506SOL    HW261147   0.556   0.204   8.331
16507SOL     OW61148   2.447   2.187  22.735
16507SOL    HW161149   2.424   2.264  22.786
16507SOL    HW261150   2.363   2.147  22.712
16508SOL     OW61151   4.034   3.155  23.109
16508SOL    HW161152   4.052   3.133  23.018
16508SOL    HW261153   3.953   3.107  23.130
16509SOL     OW61154   0.393   3.048  26.265
16509SOL    HW161155   0.439   2.972  26.300
16509SOL    HW261156   0.322   3.064  26.328
16510SOL     OW61157   3.284   1.825  22.017
16510SOL    HW161158   3.292   1.918  21.998
16510SOL    HW261159   3.191   1.806  22.005
16511SOL     OW61160   2.562   2.111  24.946
16511SOL    HW161161   2.525   2.040  24.894
16511SOL    HW261162   2.638   2.072  24.990
16512SOL     OW61163   2.215   4.071   4.117
16512SOL    HW161164   2.137   4.070   4.172
16512SOL    HW261165   2.271   4.002   4.154
16513SOL     OW61166   1.247   3.196  21.738
16513SOL    HW161167   1.248   3.283  21.698
16513SOL    HW261168   1.202   3.209  21.822
16514SOL     OW61169   4.256   0.955  23.615
16514SOL    HW161170   4.212   0.871  23.607
16514SOL    HW261171   4.242   0.981  23.707
16515SOL     OW61172   2.479   3.898   0.276
16515SOL    HW161173   2.458   3.876   0.185
16515SOL    HW261174   2.440   3.828   0.327
16516SOL     OW61175   3.138   3.872   8.788
16516SOL    HW161176   3.109   3.940   8.849
16516SOL    HW261177   3.061   3.854   8.734
16517SOL     OW61178   1.591   3.874   5.910
16517SOL    HW161179   1.613   3.781   5.909
16517SOL    HW261180   1.496   3.876   5.913
16518SOL     OW61181   1.605   2.611   5.574
16518SOL    HW161182   1.597   2.689   5.518
16518SOL    HW261183   1.548   2.546   5.533
16519SOL     OW61184   2.195   3.279   9.424
16519SOL    HW161185   2.227   3.350   9.480
16519SOL    HW261186   2.227   3.199   9.466
16520SOL     OW61187   3.909   4.529   1.061
16520SOL    HW161188   3.991   4.483   1.077
16520SOL    HW261189   3.910   4.602   1.123
16521SOL     OW61190   1.631   3.379   2.964
16521SOL    HW161191   1.612   3.466   2.929
16521SOL    HW261192   1.709   3.351   2.917
16522SOL     OW61193   2.692   2.188   6.916
16522SOL    HW161194   2.598   2.207   6.919
16522SOL    HW261195   2.710   2.172   6.823
16523SOL     OW61196   0.353   0.411   2.768
16523SOL    HW161197   0.367   0.398   2.674
16523SOL    HW261198   0.370   0.504   2.781
16524SOL     OW61199   4.573   0.376   2.247
16524SOL    HW161200   4.583   0.347   2.156
16524SOL    HW261201   4.547   0.297   2.294
16525SOL     OW61202   3.819   4.751   3.528
16525SOL    HW161203   3.726   4.775   3.532
16525SOL    HW261204   3.820   4.656   3.517
16526SOL     OW61205   1.561   4.767   6.557
16526SOL    HW161206   1.656   4.760   6.543
16526SOL    HW261207   1.527   4.682   6.529
16527SOL     OW61208   3.773   0.452  20.600
16527SOL    HW161209   3.828   0.449  20.679
16527SOL    HW261210   3.685   0.433  20.631
16528SOL     OW61211   4.236   0.114  28.221
16528SOL    HW161212   4.314   0.129  28.167
16528SOL    HW261213   4.234   0.019  28.233
16529SOL     OW61214   3.041   3.228   4.476
16529SOL    HW161215   2.990   3.307   4.492
16529SOL    HW261216   3.011   3.166   4.542
16530SOL     OW61217   1.964   2.074  27.112
16530SOL    HW161218   1.911   2.145  27.075
16530SOL    HW261219   2.038   2.118  27.153
16531SOL     OW61220   0.482   2.254  20.640
16531SOL    HW161221   0.457   2.341  20.671
16531SOL    HW261222   0.493   2.202  20.720
16532SOL     OW61223   2.354   4.318   7.126
16532SOL    HW161224   2.337   4.260   7.051
16532SOL    HW261225   2.305   4.398   7.106
16533SOL     OW61226   3.554   3.266   5.743
16533SOL    HW161227   3.508   3.209   5.681
16533SOL    HW261228   3.510   3.350   5.736
16534SOL     OW61229   3.029   2.825  28.300
16534SOL    HW161230   3.119   2.795  28.291
16534SOL    HW261231   3.017   2.836  28.395
16535SOL     OW61232   2.535   0.701   6.621
16535SOL    HW161233   2.567   0.764   6.685
16535SOL    HW261234   2.576   0.618   6.645
16536SOL     OW61235   2.717   3.602   7.054
16536SOL    HW161236   2.790   3.657   7.083
16536SOL    HW261237   2.746   3.513   7.071
16537SOL     OW61238   3.382   3.723   9.022
16537SOL    HW161239   3.313   3.789   9.027
16537SOL    HW261240   3.463   3.774   9.012
16538SOL     OW61241   3.268   2.726  18.003
16538SOL    HW161242   3.207   2.695  17.937
16538SOL    HW261243   3.349   2.680  17.986
16539SOL     OW61244   1.917   0.419  23.032
16539SOL    HW161245   1.913   0.407  22.937
16539SOL    HW261246   1.873   0.502  23.048
16540SOL     OW61247   1.980   2.941  21.326
16540SOL    HW161248   2.001   2.977  21.412
16540SOL    HW261249   1.948   2.853  21.343
16541SOL     OW61250   2.884   0.855   0.730
16541SOL    HW161251   2.854   0.775   0.687
16541SOL    HW261252   2.840   0.926   0.683
16542SOL     OW61253   1.075   2.130   3.680
16542SOL    HW161254   1.127   2.103   3.604
16542SOL    HW261255   1.097   2.066   3.748
16543SOL     OW61256   4.496   2.763   2.480
16543SOL    HW161257   4.538   2.684   2.515
16543SOL    HW261258   4.544   2.782   2.399
16544SOL     OW61259   3.289   2.460  27.429
16544SOL    HW161260   3.295   2.365  27.417
16544SOL    HW261261   3.342   2.496  27.357
16545SOL     OW61262   0.631   4.474  20.824
16545SOL    HW161263   0.724   4.457  20.811
16545SOL    HW261264   0.594   4.476  20.736
16546SOL     OW61265   3.400   4.618   7.163
16546SOL    HW161266   3.421   4.643   7.253
16546SOL    HW261267   3.319   4.664   7.144
16547SOL     OW61268   0.700   4.245   7.084
16547SOL    HW161269   0.647   4.325   7.092
16547SOL    HW261270   0.769   4.255   7.149
16548SOL     OW61271   0.545   0.084  26.727
16548SOL    HW161272   0.456   0.105  26.757
16548SOL    HW261273   0.589   0.169  26.722
16549SOL     OW61274   4.363   0.684   9.120
16549SOL    HW161275   4.289   0.637   9.081
16549SOL    HW261276   4.323   0.761   9.161
16550SOL     OW61277   4.325   4.237   0.215
16550SOL    HW161278   4.358   4.246   0.126
16550SOL    HW261279   4.236   4.202   0.205
16551SOL     OW61280   1.901   0.697  23.049
16551SOL    HW161281   1.948   0.752  23.111
16551SOL    HW261282   1.872   0.757  22.981
16552SOL     OW61283   2.038   2.818  22.538
16552SOL    HW161284   1.954   2.819  22.492
16552SOL    HW261285   2.097   2.867  22.482
16553SOL     OW61286   3.193   0.332   4.248
16553SOL    HW161287   3.156   0.295   4.168
16553SOL    HW261288   3.196   0.258   4.309
16554SOL     OW61289   2.198   3.159  21.901
16554SOL    HW161290   2.161   3.148  21.989
16554SOL    HW261291   2.266   3.224  21.912
16555SOL     OW61292   0.927   2.037   9.035
16555SOL    HW161293   0.905   1.945   9.019
16555SOL    HW261294   0.989   2.034   9.109
16556SOL     OW61295   2.671   4.182  20.851
16556SOL    HW161296   2.598   4.211  20.906
16556SOL    HW261297   2.695   4.260  20.801
16557SOL     OW61298   3.835   2.405   6.023
16557SOL    HW161299   3.914   2.355   6.040
16557SOL    HW261300   3.780   2.392   6.100
16558SOL     OW61301   3.946   2.183   0.684
16558SOL    HW161302   3.856   2.205   0.661
16558SOL    HW261303   3.937   2.110   0.746
16559SOL     OW61304   4.188   4.460  17.014
16559SOL    HW161305   4.196   4.440  16.921
16559SOL    HW261306   4.093   4.464  17.030
16560SOL     OW61307   3.022   3.417  25.870
16560SOL    HW161308   2.953   3.396  25.933
16560SOL    HW261309   3.094   3.449  25.923
16561SOL     OW61310   2.723   0.405   3.847
16561SOL    HW161311   2.655   0.470   3.829
16561SOL    HW261312   2.783   0.450   3.906
16562SOL     OW61313   2.249   3.617  25.211
16562SOL    HW161314   2.318   3.677  25.238
16562SOL    HW261315   2.170   3.671  25.208
16563SOL     OW61316   0.111   2.828   2.587
16563SOL    HW161317   0.181   2.855   2.647
16563SOL    HW261318   0.094   2.906   2.533
16564SOL     OW61319   1.277   4.579   7.435
16564SOL    HW161320   1.191   4.537   7.428
16564SOL    HW261321   1.332   4.513   7.477
16565SOL     OW61322   2.738   3.701  23.261
16565SOL    HW161323   2.661   3.697  23.318
16565SOL    HW261324   2.808   3.733  23.318
16566SOL     OW61325   0.494   1.153   8.323
16566SOL    HW161326   0.565   1.096   8.292
16566SOL    HW261327   0.460   1.193   8.243
16567SOL     OW61328   0.006   1.044   7.318
16567SOL    HW161329   0.052   1.101   7.379
16567SOL    HW261330   0.025   0.955   7.349
16568SOL     OW61331   1.584   2.350  25.966
16568SOL    HW161332   1.567   2.308  26.050
16568SOL    HW261333   1.544   2.436  25.973
16569SOL     OW61334   4.471   0.604   1.588
16569SOL    HW161335   4.555   0.560   1.599
16569SOL    HW261336   4.410   0.554   1.642
16570SOL     OW61337   0.217   4.220   0.825
16570SOL    HW161338   0.218   4.301   0.774
16570SOL    HW261339   0.136   4.176   0.799
16571SOL     OW61340   1.464   0.830   3.594
16571SOL    HW161341   1.395   0.885   3.558
16571SOL    HW261342   1.419   0.773   3.656
16572SOL     OW61343   1.850   3.957   5.786
16572SOL    HW161344   1.764   3.929   5.814
16572SOL    HW261345   1.862   3.917   5.700
16573SOL     OW61346   3.193   3.030  21.221
16573SOL    HW161347   3.157   3.073  21.144
16573SOL    HW261348   3.166   3.085  21.294
16574SOL     OW61349   0.080   2.107  19.184
16574SOL    HW161350   0.139   2.143  19.117
16574SOL    HW261351   4.775   2.144  19.163
16575SOL     OW61352   0.140   2.307  26.980
16575SOL    HW161353   0.162   2.379  26.921
16575SOL    HW261354   0.150   2.228  26.927
16576SOL     OW61355   0.246   0.909   0.577
16576SOL    HW161356   0.181   0.915   0.507
16576SOL    HW261357   0.258   0.999   0.607
16577SOL     OW61358   1.620   0.073  19.033
16577SOL    HW161359   1.641   4.767  18.998
16577SOL    HW261360   1.693   0.093  19.092
16578SOL     OW61361   3.721   1.116  25.065
16578SOL    HW161362   3.773   1.123  25.145
16578SOL    HW261363   3.695   1.024  25.062
16579SOL     OW61364   1.286   1.827  22.179
16579SOL    HW161365   1.292   1.734  22.160
16579SOL    HW261366   1.314   1.870  22.098
16580SOL     OW61367   2.392   2.399  22.305
16580SOL    HW161368   2.371   2.438  22.389
16580SOL    HW261369   2.438   2.318  22.327
16581SOL     OW61370   4.572   4.769  20.341
16581SOL    HW161371   4.480   4.743  20.348
16581SOL    HW261372   4.620   4.702  20.390
16582SOL     OW61373   3.265   2.716   6.970
16582SOL    HW161374   3.337   2.653   6.978
16582SOL    HW261375   3.263   2.760   7.054
16583SOL     OW61376   0.313   1.382   6.540
16583SOL    HW161377   0.400   1.418   6.554
16583SOL    HW261378   0.319   1.333   6.458
16584SOL     OW61379   3.616   0.246   5.109
16584SOL    HW161380   3.563   0.201   5.044
16584SOL    HW261381   3.675   0.178   5.143
16585SOL     OW61382   0.923   1.208  18.870
16585SOL    HW161383   0.862   1.277  18.895
16585SOL    HW261384   0.985   1.251  18.812
16586SOL     OW61385   1.119   1.851  25.811
16586SOL    HW161386   1.189   1.856  25.747
16586SOL    HW261387   1.083   1.940  25.814
16587SOL     OW61388   3.017   3.154  23.415
16587SOL    HW161389   2.988   3.108  23.336
16587SOL    HW261390   2.957   3.126  23.483
16588SOL     OW61391   0.590   4.203  24.865
16588SOL    HW161392   0.542   4.218  24.947
16588SOL    HW261393   0.642   4.283  24.852
16589SOL     OW61394   2.431   3.974  26.407
16589SOL    HW161395   2.410   3.883  26.425
16589SOL    HW261396   2.521   3.971  26.372
16590SOL     OW61397   0.967   0.201  23.722
16590SOL    HW161398   0.910   0.131  23.755
16590SOL    HW261399   0.934   0.281  23.763
16591SOL     OW61400   1.585   1.109   4.532
16591SOL    HW161401   1.521   1.068   4.591
16591SOL    HW261402   1.648   1.039   4.513
16592SOL     OW61403   2.809   0.857   8.056
16592SOL    HW161404   2.839   0.870   8.145
16592SOL    HW261405   2.770   0.941   8.031
16593SOL     OW61406   0.107   0.578  20.181
16593SOL    HW161407   0.066   0.511  20.236
16593SOL    HW261408   0.198   0.550  20.173
16594SOL     OW61409   1.804   1.859  21.007
16594SOL    HW161410   1.715   1.894  21.001
16594SOL    HW261411   1.811   1.801  20.931
16595SOL     OW61412   1.130   2.729  22.943
16595SOL    HW161413   1.080   2.756  22.866
16595SOL    HW261414   1.170   2.809  22.975
16596SOL     OW61415   3.803   1.852   2.481
16596SOL    HW161416   3.841   1.916   2.541
16596SOL    HW261417   3.739   1.804   2.534
16597SOL     OW61418   4.722   4.480  19.851
16597SOL    HW161419   4.711   4.390  19.882
16597SOL    HW261420   4.641   4.498  19.802
16598SOL     OW61421   3.241   3.434   8.358
16598SOL    HW161422   3.257   3.507   8.419
16598SOL    HW261423   3.148   3.417   8.365
16599SOL     OW61424   1.488   0.141  24.852
16599SOL    HW161425   1.395   0.116  24.845
16599SOL    HW261426   1.509   0.128  24.945
16600SOL     OW61427   0.797   1.432   9.027
16600SOL    HW161428   0.871   1.411   8.971
16600SOL    HW261429   0.781   1.525   9.012
16601SOL     OW61430   3.061   4.764  27.717
16601SOL    HW161431   3.134   4.757  27.656
16601SOL    HW261432   2.985   0.006  27.663
16602SOL     OW61433   1.713   1.174  26.280
16602SOL    HW161434   1.714   1.258  26.327
16602SOL    HW261435   1.776   1.119  26.326
16603SOL     OW61436   4.446   1.215  27.762
16603SOL    HW161437   4.484   1.268  27.692
16603SOL    HW261438   4.444   1.273  27.838
16604SOL     OW61439   2.793   2.809   2.299
16604SOL    HW161440   2.863   2.873   2.289
16604SOL    HW261441   2.782   2.800   2.393
16605SOL     OW61442   4.502   3.572   3.241
16605SOL    HW161443   4.594   3.570   3.213
16605SOL    HW261444   4.462   3.497   3.197
16606SOL     OW61445   2.775   1.840  24.403
16606SOL    HW161446   2.691   1.887  24.399
16606SOL    HW261447   2.759   1.757  24.358
16607SOL     OW61448   1.060   0.413   9.221
16607SOL    HW161449   1.118   0.340   9.199
16607SOL    HW261450   0.977   0.392   9.179
16608SOL     OW61451   3.370   1.240   7.797
16608SOL    HW161452   3.338   1.170   7.855
16608SOL    HW261453   3.397   1.194   7.718
16609SOL     OW61454   2.513   4.574  28.048
16609SOL    HW161455   2.581   4.596  27.984
16609SOL    HW261456   2.541   4.491  28.086
16610SOL     OW61457   1.169   3.060  10.081
16610SOL    HW161458   1.257   3.035  10.055
16610SOL    HW261459   1.142   2.991  10.142
16611SOL     OW61460   1.328   4.727  24.425
16611SOL    HW161461   1.368   4.746  24.340
16611SOL    HW261462   1.350   4.636  24.442
16612SOL     OW61463   0.589   1.814   8.566
16612SOL    HW161464   0.545   1.729   8.563
16612SOL    HW261465   0.518   1.878   8.575
16613SOL     OW61466   3.109   1.369  28.434
16613SOL    HW161467   3.177   1.431  28.408
16613SOL    HW261468   3.031   1.398  28.386
16614SOL     OW61469   3.425   0.773  23.208
16614SOL    HW161470   3.391   0.781  23.119
16614SOL    HW261471   3.360   0.818  23.263
16615SOL     OW61472   4.698   2.207   1.004
16615SOL    HW161473   4.781   2.185   1.048
16615SOL    HW261474   4.664   2.282   1.053
16616SOL     OW61475   1.666   2.512  24.014
16616SOL    HW161476   1.604   2.521  23.942
16616SOL    HW261477   1.612   2.518  24.093
16617SOL     OW61478   2.896   2.243   1.613
16617SOL    HW161479   2.906   2.325   1.661
16617SOL    HW261480   2.829   2.195   1.663
16618SOL     OW61481   1.096   3.610  27.647
16618SOL    HW161482   1.031   3.626  27.716
16618SOL    HW261483   1.083   3.518  27.623
16619SOL     OW61484   3.532   2.760  18.710
16619SOL    HW161485   3.444   2.748  18.745
16619SOL    HW261486   3.524   2.831  18.646
16620SOL     OW61487   1.703   4.268  26.070
16620SOL    HW161488   1.680   4.244  25.980
16620SOL    HW261489   1.646   4.342  26.091
16621SOL     OW61490   3.272   3.757  23.806
16621SOL    HW161491   3.355   3.745  23.852
16621SOL    HW261492   3.283   3.839  23.759
16622SOL     OW61493   1.206   2.991  22.969
16622SOL    HW161494   1.255   3.050  23.026
16622SOL    HW261495   1.219   3.026  22.881
16623SOL     OW61496   2.655   2.371  26.512
16623SOL    HW161497   2.690   2.440  26.455
16623SOL    HW261498   2.654   2.411  26.600
16624SOL     OW61499   1.975   0.757   4.408
16624SOL    HW161500   1.913   0.716   4.468
16624SOL    HW261501   2.055   0.705   4.417
16625SOL     OW61502   1.310   0.048   5.499
16625SOL    HW161503   1.392   0.083   5.464
16625SOL    HW261504   1.295   4.749   5.449
16626SOL     OW61505   4.162   1.199  17.555
16626SOL    HW161506   4.115   1.231  17.478
16626SOL    HW261507   4.097   1.150  17.605
16627SOL     OW61508   1.138   4.030   0.576
16627SOL    HW161509   1.132   4.115   0.532
16627SOL    HW261510   1.050   4.016   0.612
16628SOL     OW61511   2.507   1.739  21.816
16628SOL    HW161512   2.579   1.681  21.841
16628SOL    HW261513   2.431   1.704  21.861
16629SOL     OW61514   0.891   2.886  26.186
16629SOL    HW161515   0.954   2.817  26.169
16629SOL    HW261516   0.808   2.852  26.153
16630SOL     OW61517   3.178   1.533   1.912
16630SOL    HW161518   3.086   1.559   1.911
16630SOL    HW261519   3.219   1.592   1.975
16631SOL     OW61520   2.555   3.136  24.913
16631SOL    HW161521   2.495   3.117  24.986
16631SOL    HW261522   2.614   3.203  24.947
16632SOL     OW61523   1.316   3.618   8.750
16632SOL    HW161524   1.273   3.534   8.767
16632SOL    HW261525   1.409   3.598   8.748
16633SOL     OW61526   4.403   0.696  25.909
16633SOL    HW161527   4.498   0.686  25.907
16633SOL    HW261528   4.380   0.722  25.820
16634SOL     OW61529   2.148   4.587  18.275
16634SOL    HW161530   2.194   4.645  18.336
16634SOL    HW261531   2.096   4.645  18.220
16635SOL     OW61532   1.290   4.758  19.609
16635SOL    HW161533   1.350   4.721  19.543
16635SOL    HW261534   1.218   4.695  19.612
16636SOL     OW61535   4.186   2.378   1.436
16636SOL    HW161536   4.208   2.392   1.528
16636SOL    HW261537   4.098   2.416   1.427
16637SOL     OW61538   2.083   0.639   9.727
16637SOL    HW161539   2.138   0.643   9.806
16637SOL    HW261540   2.014   0.577   9.749
16638SOL     OW61541   2.737   0.409  22.282
16638SOL    HW161542   2.830   0.400  22.262
16638SOL    HW261543   2.729   0.379  22.373
16639SOL     OW61544   0.413   0.176   7.353
16639SOL    HW161545   0.427   0.271   7.353
16639SOL    HW261546   0.359   0.160   7.275
16640SOL     OW61547   3.870   0.743  25.977
16640SOL    HW161548   3.926   0.700  25.912
16640SOL    HW261549   3.909   0.829  25.990
16641SOL     OW61550   1.536   4.522  28.047
16641SOL    HW161551   1.441   4.524  28.063
16641SOL    HW261552   1.551   4.439  28.001
16642SOL     OW61553   0.536   1.831   0.468
16642SOL    HW161554   0.486   1.809   0.389
16642SOL    HW261555   0.508   1.919   0.490
16643SOL     OW61556   1.783   3.521   7.632
16643SOL    HW161557   1.806   3.565   7.714
16643SOL    HW261558   1.777   3.429   7.655
16644SOL     OW61559   2.122   0.447   7.756
16644SOL    HW161560   2.101   0.532   7.795
16644SOL    HW261561   2.089   0.382   7.818
16645SOL     OW61562   4.514   2.251   4.928
16645SOL    HW161563   4.553   2.179   4.878
16645SOL    HW261564   4.467   2.207   4.999
16646SOL     OW61565   3.870   2.944  21.344
16646SOL    HW161566   3.934   2.958  21.274
16646SOL    HW261567   3.795   2.998  21.318
16647SOL     OW61568   3.294   1.152   9.837
16647SOL    HW161569   3.323   1.086   9.900
16647SOL    HW261570   3.341   1.231   9.863
16648SOL     OW61571   3.399   1.270  17.907
16648SOL    HW161572   3.463   1.250  17.839
16648SOL    HW261573   3.449   1.314  17.976
16649SOL     OW61574   2.371   2.577  25.212
16649SOL    HW161575   2.448   2.631  25.229
16649SOL    HW261576   2.404   2.505  25.157
16650SOL     OW61577   3.873   4.745  20.875
16650SOL    HW161578   3.800   4.773  20.930
16650SOL    HW261579   3.860   4.651  20.864
16651SOL     OW61580   0.013   4.166   5.278
16651SOL    HW161581   0.046   4.107   5.211
16651SOL    HW261582   4.771   4.109   5.351
16652SOL     OW61583   0.108   0.580   1.019
16652SOL    HW161584   0.166   0.509   0.994
16652SOL    HW261585   0.165   0.656   1.028
16653SOL     OW61586   0.844   2.137  25.675
16653SOL    HW161587   0.753   2.110  25.687
16653SOL    HW261588   0.890   2.057  25.649
16654SOL     OW61589   0.104   0.855  23.204
16654SOL    HW161590   0.120   0.810  23.121
16654SOL    HW261591   0.009   0.853  23.215
16655SOL     OW61592   2.373   3.612  21.127
16655SOL    HW161593   2.293   3.587  21.172
16655SOL    HW261594   2.437   3.627  21.197
16656SOL     OW61595   2.453   0.965   9.171
16656SOL    HW161596   2.431   0.966   9.264
16656SOL    HW261597   2.384   1.016   9.129
16657SOL     OW61598   3.475   3.040   4.463
16657SOL    HW161599   3.565   3.073   4.460
16657SOL    HW261600   3.471   2.975   4.393
16658SOL     OW61601   0.938   1.044   0.868
16658SOL    HW161602   0.863   1.061   0.811
16658SOL    HW261603   0.968   1.130   0.895
16659SOL     OW61604   4.539   2.653  19.079
16659SOL    HW161605   4.585   2.689  19.154
16659SOL    HW261606   4.481   2.723  19.050
16660SOL     OW61607   2.641   2.391  25.802
16660SOL    HW161608   2.729   2.404  25.835
16660SOL    HW261609   2.617   2.474  25.762
16661SOL     OW61610   3.073   2.863  27.488
16661SOL    HW161611   3.147   2.881  27.429
16661SOL    HW261612   3.063   2.943  27.538
16662SOL     OW61613   1.684   2.601  23.298
16662SOL    HW161614   1.655   2.551  23.375
16662SOL    HW261615   1.720   2.682  23.334
16663SOL     OW61616   0.419   1.529  11.339
16663SOL    HW161617   0.334   1.531  11.295
16663SOL    HW261618   0.414   1.599  11.404
16664SOL     OW61619   0.217   2.950  24.231
16664SOL    HW161620   0.182   2.863  24.249
16664SOL    HW261621   0.252   2.979  24.315
16665SOL     OW61622   4.261   4.007   5.469
16665SOL    HW161623   4.240   3.955   5.546
16665SOL    HW261624   4.239   4.097   5.494
16666SOL     OW61625   2.233   1.128   2.310
16666SOL    HW161626   2.268   1.118   2.221
16666SOL    HW261627   2.169   1.057   2.318
16667SOL     OW61628   3.858   1.378  27.820
16667SOL    HW161629   3.790   1.351  27.882
16667SOL    HW261630   3.940   1.356  27.864
16668SOL     OW61631   3.632   3.684  27.057
16668SOL    HW161632   3.615   3.658  26.967
16668SOL    HW261633   3.548   3.719  27.088
16669SOL     OW61634   2.470   1.860   8.168
16669SOL    HW161635   2.531   1.914   8.217
16669SOL    HW261636   2.526   1.804   8.113
16670SOL     OW61637   2.836   3.400   3.027
16670SOL    HW161638   2.911   3.419   2.970
16670SOL    HW261639   2.844   3.306   3.046
16671SOL     OW61640   1.575   4.085   0.792
16671SOL    HW161641   1.629   4.128   0.726
16671SOL    HW261642   1.574   4.147   0.866
16672SOL     OW61643   4.009   0.223  24.802
16672SOL    HW161644   4.025   0.245  24.894
16672SOL    HW261645   3.993   0.307  24.760
16673SOL     OW61646   1.577   4.394  18.506
16673SOL    HW161647   1.655   4.411  18.454
16673SOL    HW261648   1.591   4.307  18.545
16674SOL     OW61649   0.974   2.459   2.887
16674SOL    HW161650   1.004   2.538   2.842
16674SOL    HW261651   1.049   2.399   2.884
16675SOL     OW61652   3.620   3.045   7.105
16675SOL    HW161653   3.559   3.059   7.178
16675SOL    HW261654   3.618   2.950   7.091
16676SOL     OW61655   0.570   3.911  28.038
16676SOL    HW161656   0.602   3.849  27.973
16676SOL    HW261657   0.643   3.922  28.099
16677SOL     OW61658   2.152   2.880   2.581
16677SOL    HW161659   2.188   2.796   2.609
16677SOL    HW261660   2.145   2.931   2.661
16678SOL     OW61661   3.586   2.942   7.917
16678SOL    HW161662   3.559   2.867   7.863
16678SOL    HW261663   3.679   2.927   7.934
16679SOL     OW61664   2.454   1.774  10.444
16679SOL    HW161665   2.525   1.717  10.473
16679SOL    HW261666   2.428   1.822  10.522
16680SOL     OW61667   1.713   3.071  25.750
16680SOL    HW161668   1.746   3.042  25.665
16680SOL    HW261669   1.667   2.994  25.785
16681SOL     OW61670   3.661   1.917  18.720
16681SOL    HW161671   3.679   1.976  18.646
16681SOL    HW261672   3.619   1.973  18.786
16682SOL     OW61673   1.782   1.003  24.613
16682SOL    HW161674   1.778   1.030  24.521
16682SOL    HW261675   1.839   1.067  24.655
16683SOL     OW61676   4.095   3.331  19.860
16683SOL    HW161677   4.044   3.250  19.861
16683SOL    HW261678   4.060   3.382  19.932
16684SOL     OW61679   3.247   1.443  23.105
16684SOL    HW161680   3.224   1.401  23.188
16684SOL    HW261681   3.334   1.408  23.083
16685SOL     OW61682   3.496   4.292   4.567
16685SOL    HW161683   3.580   4.330   4.543
16685SOL    HW261684   3.431   4.355   4.535
16686SOL     OW61685   4.249   1.897   7.568
16686SOL    HW161686   4.266   1.819   7.621
16686SOL    HW261687   4.255   1.970   7.629
16687SOL     OW61688   4.623   2.182   3.736
16687SOL    HW161689   4.623   2.276   3.752
16687SOL    HW261690   4.715   2.157   3.732
16688SOL     OW61691   0.591   4.437  21.584
16688SOL    HW161692   0.610   4.355  21.539
16688SOL    HW261693   0.663   4.495  21.561
16689SOL     OW61694   3.191   4.717   6.775
16689SOL    HW161695   3.264   4.754   6.825
16689SOL    HW261696   3.220   4.628   6.752
16690SOL     OW61697   3.283   3.664  26.585
16690SOL    HW161698   3.187   3.668  26.591
16690SOL    HW261699   3.313   3.687  26.673
16691SOL     OW61700   2.328   0.453  26.598
16691SOL    HW161701   2.365   0.415  26.518
16691SOL    HW261702   2.302   0.378  26.651
16692SOL     OW61703   3.530   3.842  11.400
16692SOL    HW161704   3.446   3.812  11.367
16692SOL    HW261705   3.529   3.819  11.493
16693SOL     OW61706   1.289   1.542  18.574
16693SOL    HW161707   1.318   1.499  18.493
16693SOL    HW261708   1.194   1.551  18.564
16694SOL     OW61709   3.681   1.056   8.933
16694SOL    HW161710   3.644   1.083   8.849
16694SOL    HW261711   3.611   1.007   8.976
16695SOL     OW61712   4.651   3.093   5.024
16695SOL    HW161713   4.680   3.079   4.933
16695SOL    HW261714   4.562   3.060   5.027
16696SOL     OW61715   2.004   2.745   5.324
16696SOL    HW161716   1.973   2.786   5.244
16696SOL    HW261717   2.043   2.817   5.374
16697SOL     OW61718   3.834   4.581  27.753
16697SOL    HW161719   3.836   4.668  27.713
16697SOL    HW261720   3.909   4.536  27.715
16698SOL     OW61721   1.612   4.029   8.826
16698SOL    HW161722   1.595   3.963   8.893
16698SOL    HW261723   1.573   4.109   8.861
16699SOL     OW61724   0.716   0.232   3.733
16699SOL    HW161725   0.745   0.282   3.656
16699SOL    HW261726   0.798   0.204   3.775
16700SOL     OW61727   1.124   3.313   5.763
16700SOL    HW161728   1.194   3.371   5.795
16700SOL    HW261729   1.170   3.234   5.735
16701SOL     OW61730   0.787   2.781  26.542
16701SOL    HW161731   0.778   2.705  26.485
16701SOL    HW261732   0.792   2.744  26.631
16702SOL     OW61733   2.783   0.156   1.699
16702SOL    HW161734   2.705   0.183   1.747
16702SOL    HW261735   2.753   0.143   1.609
16703SOL     OW61736   1.001   3.759   2.271
16703SOL    HW161737   0.993   3.684   2.330
16703SOL    HW261738   1.076   3.807   2.304
16704SOL     OW61739   1.149   3.355   6.275
16704SOL    HW161740   1.167   3.385   6.365
16704SOL    HW261741   1.158   3.260   6.279
16705SOL     OW61742   1.628   2.786  24.773
16705SOL    HW161743   1.548   2.836  24.792
16705SOL    HW261744   1.698   2.851  24.779
16706SOL     OW61745   2.365   2.177   2.364
16706SOL    HW161746   2.292   2.128   2.325
16706SOL    HW261747   2.364   2.153   2.456
16707SOL     OW61748   0.097   3.345   3.259
16707SOL    HW161749   0.077   3.254   3.237
16707SOL    HW261750   0.122   3.342   3.352
16708SOL     OW61751   2.320   3.858   8.527
16708SOL    HW161752   2.248   3.917   8.549
16708SOL    HW261753   2.289   3.771   8.554
16709SOL     OW61754   1.882   2.252  20.493
16709SOL    HW161755   1.795   2.264  20.533
16709SOL    HW261756   1.864   2.202  20.413
16710SOL     OW61757   4.109   1.394  20.366
16710SOL    HW161758   4.101   1.301  20.386
16710SOL    HW261759   4.165   1.397  20.288
16711SOL     OW61760   2.083   4.345  26.288
16711SOL    HW161761   2.063   4.402  26.362
16711SOL    HW261762   2.178   4.338  26.287
16712SOL     OW61763   0.275   1.629   8.045
16712SOL    HW161764   0.325   1.705   8.015
16712SOL    HW261765   0.290   1.626   8.139
16713SOL     OW61766   1.374   1.442   3.794
16713SOL    HW161767   1.390   1.355   3.756
16713SOL    HW261768   1.378   1.428   3.888
16714SOL     OW61769   0.820   2.749   8.670
16714SOL    HW161770   0.765   2.797   8.608
16714SOL    HW261771   0.906   2.790   8.662
16715SOL     OW61772   3.529   0.790   7.281
16715SOL    HW161773   3.617   0.776   7.247
16715SOL    HW261774   3.538   0.786   7.376
16716SOL     OW61775   0.077   2.065  28.402
16716SOL    HW161776   0.100   2.071  28.495
16716SOL    HW261777   0.155   2.092  28.355
16717SOL     OW61778   1.468   0.565  20.829
16717SOL    HW161779   1.379   0.586  20.800
16717SOL    HW261780   1.513   0.539  20.748
16718SOL     OW61781   3.025   3.986   0.808
16718SOL    HW161782   3.071   4.069   0.810
16718SOL    HW261783   2.997   3.976   0.717
16719SOL     OW61784   3.693   1.863   3.560
16719SOL    HW161785   3.607   1.859   3.519
16719SOL    HW261786   3.735   1.940   3.521
16720SOL     OW61787   0.194   2.891   5.334
16720SOL    HW161788   0.177   2.802   5.362
16720SOL    HW261789   0.107   2.931   5.327
16721SOL     OW61790   2.741   2.450  28.417
16721SOL    HW161791   2.768   2.392  28.346
16721SOL    HW261792   2.811   2.516  28.423
16722SOL     OW61793   2.173   3.674  25.950
16722SOL    HW161794   2.182   3.606  26.017
16722SOL    HW261795   2.096   3.724  25.976
16723SOL     OW61796   2.127   0.162  26.393
16723SOL    HW161797   2.135   0.083  26.340
16723SOL    HW261798   2.175   0.142  26.474
16724SOL     OW61799   0.413   0.682   2.792
16724SOL    HW161800   0.482   0.747   2.803
16724SOL    HW261801   0.334   0.725   2.824
16725SOL     OW61802   1.073   1.371  23.208
16725SOL    HW161803   1.169   1.365  23.203
16725SOL    HW261804   1.052   1.450  23.159
16726SOL     OW61805   4.095   0.938  27.344
16726SOL    HW161806   4.029   0.892  27.396
16726SOL    HW261807   4.178   0.903  27.375
16727SOL     OW61808   2.925   1.179   9.280
16727SOL    HW161809   2.926   1.085   9.295
16727SOL    HW261810   2.992   1.214   9.339
16728SOL     OW61811   0.659   4.308   3.302
16728SOL    HW161812   0.624   4.249   3.235
16728SOL    HW261813   0.699   4.379   3.252
16729SOL     OW61814   0.122   4.354   2.753
16729SOL    HW161815   0.058   4.307   2.701
16729SOL    HW261816   0.086   4.443   2.761
16730SOL     OW61817   2.486   2.553  22.109
16730SOL    HW161818   2.459   2.483  22.167
16730SOL    HW261819   2.572   2.580  22.142
16731SOL     OW61820   3.610   3.499  16.393
16731SOL    HW161821   3.582   3.510  16.302
16731SOL    HW261822   3.581   3.411  16.417
16732SOL     OW61823   0.227   2.345   1.914
16732SOL    HW161824   0.216   2.278   1.846
16732SOL    HW261825   0.318   2.338   1.941
16733SOL     OW61826   3.044   1.630   5.877
16733SOL    HW161827   2.963   1.681   5.872
16733SOL    HW261828   3.055   1.613   5.970
16734SOL     OW61829   3.643   0.018  28.221
16734SOL    HW161830   3.649   4.711  28.183
16734SOL    HW261831   3.614   0.003  28.311
16735SOL     OW61832   4.068   2.150  27.035
16735SOL    HW161833   4.097   2.072  27.081
16735SOL    HW261834   3.974   2.155  27.051
16736SOL     OW61835   1.259   0.519  21.833
16736SOL    HW161836   1.166   0.499  21.823
16736SOL    HW261837   1.303   0.458  21.774
16737SOL     OW61838   1.973   4.373  10.019
16737SOL    HW161839   1.900   4.432  10.035
16737SOL    HW261840   1.985   4.326  10.101
16738SOL     OW61841   3.057   3.653  25.413
16738SOL    HW161842   3.088   3.575  25.460
16738SOL    HW261843   3.133   3.710  25.408
16739SOL     OW61844   0.987   1.620   0.379
16739SOL    HW161845   0.924   1.686   0.404
16739SOL    HW261846   0.993   1.562   0.454
16740SOL     OW61847   4.418   0.989   0.488
16740SOL    HW161848   4.453   1.075   0.463
16740SOL    HW261849   4.444   0.931   0.416
16741SOL     OW61850   2.654   3.969   8.573
16741SOL    HW161851   2.617   3.894   8.619
16741SOL    HW261852   2.726   3.998   8.628
16742SOL     OW61853   4.483   0.383   4.856
16742SOL    HW161854   4.573   0.383   4.822
16742SOL    HW261855   4.431   0.345   4.785
16743SOL     OW61856   1.705   2.976   0.848
16743SOL    HW161857   1.642   3.048   0.856
16743SOL    HW261858   1.790   3.019   0.854
16744SOL     OW61859   4.605   2.577   1.499
16744SOL    HW161860   4.557   2.568   1.582
16744SOL    HW261861   4.554   2.640   1.449
16745SOL     OW61862   3.763   0.986  17.941
16745SOL    HW161863   3.708   0.986  17.863
16745SOL    HW261864   3.807   0.901  17.939
16746SOL     OW61865   2.463   1.375   1.965
16746SOL    HW161866   2.502   1.335   2.043
16746SOL    HW261867   2.538   1.401   1.911
16747SOL     OW61868   3.845   2.023   4.944
16747SOL    HW161869   3.845   2.118   4.954
16747SOL    HW261870   3.753   1.997   4.952
16748SOL     OW61871   3.854   0.078   1.039
16748SOL    HW161872   3.872   0.062   0.946
16748SOL    HW261873   3.811   0.164   1.040
16749SOL     OW61874   0.167   1.778   5.926
16749SOL    HW161875   0.237   1.713   5.916
16749SOL    HW261876   0.086   1.726   5.921
16750SOL     OW61877   2.011   3.895  26.776
16750SOL    HW161878   2.044   3.904  26.866
16750SOL    HW261879   2.062   3.958  26.726
16751SOL     OW61880   1.448   4.377   3.043
16751SOL    HW161881   1.511   4.305   3.038
16751SOL    HW261882   1.469   4.421   3.126
16752SOL     OW61883   2.513   3.066  19.734
16752SOL    HW161884   2.591   3.053  19.787
16752SOL    HW261885   2.452   2.999  19.765
16753SOL     OW61886   3.067   3.025   5.762
16753SOL    HW161887   3.003   2.982   5.818
16753SOL    HW261888   3.030   3.016   5.673
16754SOL     OW61889   1.477   0.420   9.360
16754SOL    HW161890   1.413   0.350   9.370
16754SOL    HW261891   1.527   0.419   9.442
16755SOL     OW61892   4.445   3.114  23.013
16755SOL    HW161893   4.375   3.082  22.956
16755SOL    HW261894   4.412   3.199  23.044
16756SOL     OW61895   2.182   2.016  23.329
16756SOL    HW161896   2.209   1.997  23.419
16756SOL    HW261897   2.087   2.026  23.334
16757SOL     OW61898   0.569   2.729  20.721
16757SOL    HW161899   0.483   2.773  20.717
16757SOL    HW261900   0.619   2.767  20.649
16758SOL     OW61901   2.763   0.098   1.158
16758SOL    HW161902   2.828   0.090   1.088
16758SOL    HW261903   2.713   0.176   1.136
16759SOL     OW61904   1.538   0.914   0.219
16759SOL    HW161905   1.576   0.826   0.227
16759SOL    HW261906   1.599   0.960   0.161
16760SOL     OW61907   4.138   1.790  20.091
16760SOL    HW161908   4.044   1.789  20.072
16760SOL    HW261909   4.143   1.791  20.187
16761SOL     OW61910   0.871   0.778   3.587
16761SOL    HW161911   0.859   0.871   3.605
16761SOL    HW261912   0.820   0.734   3.656
16762SOL     OW61913   0.234   0.780   7.900
16762SOL    HW161914   0.159   0.727   7.873
16762SOL    HW261915   0.310   0.723   7.888
16763SOL     OW61916   2.760   3.287   8.026
16763SOL    HW161917   2.702   3.247   7.961
16763SOL    HW261918   2.835   3.317   7.974
16764SOL     OW61919   3.323   4.270   7.245
16764SOL    HW161920   3.394   4.212   7.276
16764SOL    HW261921   3.244   4.234   7.286
16765SOL     OW61922   4.600   0.497  20.303
16765SOL    HW161923   4.543   0.422  20.286
16765SOL    HW261924   4.601   0.545  20.221
16766SOL     OW61925   1.339   2.815   9.293
16766SOL    HW161926   1.289   2.745   9.250
16766SOL    HW261927   1.301   2.820   9.381
16767SOL     OW61928   4.705   4.198   8.570
16767SOL    HW161929   4.642   4.201   8.497
16767SOL    HW261930   0.009   4.211   8.529
16768SOL     OW61931   1.407   1.181   3.691
16768SOL    HW161932   1.363   1.108   3.649
16768SOL    HW261933   1.485   1.142   3.731
16769SOL     OW61934   3.877   3.314  19.541
16769SOL    HW161935   3.925   3.314  19.458
16769SOL    HW261936   3.864   3.406  19.562
16770SOL     OW61937   3.421   3.095   5.564
16770SOL    HW161938   3.374   3.143   5.496
16770SOL    HW261939   3.447   3.013   5.521
16771SOL     OW61940   2.957   1.011  25.153
16771SOL    HW161941   2.978   0.934  25.100
16771SOL    HW261942   2.878   1.047  25.113
16772SOL     OW61943   1.595   4.013  22.513
16772SOL    HW161944   1.560   4.060  22.589
16772SOL    HW261945   1.651   3.945  22.550
16773SOL     OW61946   1.751   0.508  27.027
16773SOL    HW161947   1.846   0.512  27.042
16773SOL    HW261948   1.713   0.539  27.108
16774SOL     OW61949   3.844   0.673  25.243
16774SOL    HW161950   3.844   0.756  25.291
16774SOL    HW261951   3.812   0.609  25.306
16775SOL     OW61952   3.318   0.012   2.992
16775SOL    HW161953   3.323   0.037   2.899
16775SOL    HW261954   3.406   4.760   3.012
16776SOL     OW61955   0.765   0.377   9.162
16776SOL    HW161956   0.694   0.441   9.167
16776SOL    HW261957   0.725   0.299   9.125
16777SOL     OW61958   3.443   0.897  22.805
16777SOL    HW161959   3.521   0.901  22.862
16777SOL    HW261960   3.460   0.961  22.736
16778SOL     OW61961   2.005   3.493  25.082
16778SOL    HW161962   2.064   3.430  25.124
16778SOL    HW261963   2.055   3.526  25.007
16779SOL     OW61964   1.454   4.635   1.035
16779SOL    HW161965   1.428   4.673   1.119
16779SOL    HW261966   1.549   4.632   1.038
16780SOL     OW61967   4.279   2.052  20.326
16780SOL    HW161968   4.285   2.052  20.231
16780SOL    HW261969   4.254   2.142  20.349
16781SOL     OW61970   1.794   3.576  20.960
16781SOL    HW161971   1.789   3.669  20.983
16781SOL    HW261972   1.870   3.544  21.009
16782SOL     OW61973   2.274   2.476   8.975
16782SOL    HW161974   2.197   2.420   8.986
16782SOL    HW261975   2.268   2.509   8.886
16783SOL     OW61976   1.114   1.519  27.968
16783SOL    HW161977   1.199   1.513  28.012
16783SOL    HW261978   1.099   1.432  27.932
16784SOL     OW61979   4.318   4.398   1.408
16784SOL    HW161980   4.230   4.360   1.406
16784SOL    HW261981   4.376   4.323   1.397
16785SOL     OW61982   1.578   0.485   8.221
16785SOL    HW161983   1.561   0.492   8.127
16785SOL    HW261984   1.586   0.576   8.250
16786SOL     OW61985   1.156   1.368  19.824
16786SOL    HW161986   1.074   1.399  19.861
16786SOL    HW261987   1.160   1.407  19.737
16787SOL     OW61988   4.252   1.351   4.229
16787SOL    HW161989   4.287   1.299   4.157
16787SOL    HW261990   4.228   1.286   4.296
16788SOL     OW61991   1.501   2.366   4.238
16788SOL    HW161992   1.520   2.287   4.186
16788SOL    HW261993   1.572   2.426   4.217
16789SOL     OW61994   2.202   2.845  24.620
16789SOL    HW161995   2.249   2.768  24.587
16789SOL    HW261996   2.116   2.811  24.644
16790SOL     OW61997   3.075   3.984  17.591
16790SOL    HW161998   3.022   3.912  17.557
16790SOL    HW261999   3.077   4.048  17.520
16791SOL     OW62000   4.284   1.299   2.542
16791SOL    HW162001   4.344   1.345   2.483
16791SOL    HW262002   4.233   1.242   2.485
16792SOL     OW62003   0.546   0.873  24.117
16792SOL    HW162004   0.489   0.841  24.047
16792SOL    HW262005   0.629   0.827  24.102
16793SOL     OW62006   2.780   1.694  17.555
16793SOL    HW162007   2.723   1.649  17.493
16793SOL    HW262008   2.860   1.712  17.505
16794SOL     OW62009   3.012   4.302  20.855
16794SOL    HW162010   2.956   4.324  20.929
16794SOL    HW262011   3.097   4.282  20.895
16795SOL     OW62012   4.571   3.251   1.189
16795SOL    HW162013   4.633   3.190   1.228
16795SOL    HW262014   4.602   3.263   1.100
16796SOL     OW62015   3.145   0.667  20.257
16796SOL    HW162016   3.208   0.684  20.187
16796SOL    HW262017   3.060   0.667  20.213
16797SOL     OW62018   1.564   2.564  11.430
16797SOL    HW162019   1.651   2.561  11.390
16797SOL    HW262020   1.555   2.478  11.473
16798SOL     OW62021   2.374   2.651  25.795
16798SOL    HW162022   2.452   2.604  25.765
16798SOL    HW262023   2.314   2.582  25.825
16799SOL     OW62024   3.150   2.829  19.772
16799SOL    HW162025   3.056   2.840  19.758
16799SOL    HW262026   3.189   2.908  19.733
16800SOL     OW62027   4.270   3.068  20.362
16800SOL    HW162028   4.235   3.096  20.277
16800SOL    HW262029   4.207   3.003  20.393
16801SOL     OW62030   2.596   0.637   7.644
16801SOL    HW162031   2.652   0.700   7.599
16801SOL    HW262032   2.642   0.620   7.727
16802SOL     OW62033   3.824   3.025   8.567
16802SOL    HW162034   3.915   3.054   8.573
16802SOL    HW262035   3.825   2.960   8.496
16803SOL     OW62036   4.120   2.790  22.121
16803SOL    HW162037   4.027   2.807  22.137
16803SOL    HW262038   4.162   2.876  22.131
16804SOL     OW62039   2.379   3.380   3.675
16804SOL    HW162040   2.474   3.368   3.675
16804SOL    HW262041   2.352   3.358   3.764
16805SOL     OW62042   3.893   3.166  20.074
16805SOL    HW162043   3.832   3.175  20.001
16805SOL    HW262044   3.841   3.126  20.144
16806SOL     OW62045   0.597   1.179  21.204
16806SOL    HW162046   0.682   1.215  21.181
16806SOL    HW262047   0.613   1.085  21.214
16807SOL     OW62048   4.660   2.706   5.351
16807SOL    HW162049   4.633   2.661   5.271
16807SOL    HW262050   4.693   2.637   5.408
16808SOL     OW62051   2.071   3.293   5.833
16808SOL    HW162052   2.028   3.255   5.910
16808SOL    HW262053   2.000   3.331   5.782
16809SOL     OW62054   4.615   2.192   8.399
16809SOL    HW162055   4.687   2.220   8.343
16809SOL    HW262056   4.596   2.268   8.454
16810SOL     OW62057   2.524   3.745  26.019
16810SOL    HW162058   2.480   3.830  26.030
16810SOL    HW262059   2.543   3.717  26.109
16811SOL     OW62060   4.591   4.735   5.102
16811SOL    HW162061   4.683   4.721   5.081
16811SOL    HW262062   4.592   4.767   5.192
16812SOL     OW62063   2.029   0.910  24.934
16812SOL    HW162064   2.032   1.004  24.952
16812SOL    HW262065   1.958   0.877  24.989
16813SOL     OW62066   2.938   1.060  18.497
16813SOL    HW162067   3.021   1.036  18.539
16813SOL    HW262068   2.889   1.107  18.564
16814SOL     OW62069   4.324   0.088  26.828
16814SOL    HW162070   4.303   0.123  26.741
16814SOL    HW262071   4.249   0.110  26.882
16815SOL     OW62072   3.076   2.652  20.334
16815SOL    HW162073   3.108   2.651  20.424
16815SOL    HW262074   3.146   2.611  20.283
16816SOL     OW62075   1.791   3.424   0.675
16816SOL    HW162076   1.742   3.404   0.755
16816SOL    HW262077   1.856   3.489   0.702
16817SOL     OW62078   2.876   4.406   0.669
16817SOL    HW162079   2.951   4.368   0.622
16817SOL    HW262080   2.811   4.424   0.601
16818SOL     OW62081   3.206   0.129   5.770
16818SOL    HW162082   3.200   0.167   5.682
16818SOL    HW262083   3.118   0.140   5.807
16819SOL     OW62084   3.546   3.414   4.578
16819SOL    HW162085   3.520   3.384   4.665
16819SOL    HW262086   3.476   3.383   4.520
16820SOL     OW62087   2.278   3.960  27.935
16820SOL    HW162088   2.267   3.998  27.848
16820SOL    HW262089   2.189   3.935  27.962
16821SOL     OW62090   4.706   4.382  22.747
16821SOL    HW162091   0.001   4.388  22.805
16821SOL    HW262092   4.650   4.317  22.789
16822SOL     OW62093   0.700   2.324  28.052
16822SOL    HW162094   0.746   2.245  28.080
16822SOL    HW262095   0.717   2.387  28.122
16823SOL     OW62096   4.630   0.802  26.305
16823SOL    HW162097   4.546   0.788  26.348
16823SOL    HW262098   4.630   0.895  26.282
16824SOL     OW62099   0.874   3.278   8.169
16824SOL    HW162100   0.784   3.309   8.171
16824SOL    HW262101   0.867   3.187   8.140
16825SOL     OW62102   2.021   0.184   1.186
16825SOL    HW162103   2.046   0.142   1.268
16825SOL    HW262104   2.051   0.124   1.118
16826SOL     OW62105   0.157   1.625   3.308
16826SOL    HW162106   0.091   1.555   3.313
16826SOL    HW262107   0.232   1.584   3.266
16827SOL     OW62108   1.397   4.060  20.751
16827SOL    HW162109   1.445   4.069  20.833
16827SOL    HW262110   1.312   4.025  20.777
16828SOL     OW62111   2.468   1.789  23.659
16828SOL    HW162112   2.387   1.768  23.614
16828SOL    HW262113   2.475   1.884  23.654
16829SOL     OW62114   2.914   1.114   5.332
16829SOL    HW162115   2.929   1.050   5.262
16829SOL    HW262116   2.819   1.119   5.339
16830SOL     OW62117   4.166   1.747   6.620
16830SOL    HW162118   4.156   1.831   6.665
16830SOL    HW262119   4.242   1.706   6.662
16831SOL     OW62120   1.152   4.196   2.329
16831SOL    HW162121   1.061   4.223   2.337
16831SOL    HW262122   1.202   4.278   2.333
16832SOL     OW62123   2.539   3.714  21.317
16832SOL    HW162124   2.505   3.802  21.304
16832SOL    HW262125   2.548   3.706  21.412
16833SOL     OW62126   3.811   1.699   6.283
16833SOL    HW162127   3.814   1.687   6.378
16833SOL    HW262128   3.901   1.720   6.258
16834SOL     OW62129   0.409   2.182  11.696
16834SOL    HW162130   0.340   2.215  11.753
16834SOL    HW262131   0.488   2.228  11.725
16835SOL     OW62132   4.779   1.735  20.135
16835SOL    HW162133   4.770   1.782  20.217
16835SOL    HW262134   4.722   1.782  20.074
16836SOL     OW62135   1.347   4.745  20.289
16836SOL    HW162136   1.436   4.742  20.254
16836SOL    HW262137   1.354   0.016  20.369
16837SOL     OW62138   1.102   2.693   3.874
16837SOL    HW162139   1.121   2.757   3.806
16837SOL    HW262140   1.171   2.706   3.939
16838SOL     OW62141   1.241   2.015   5.627
16838SOL    HW162142   1.186   1.942   5.655
16838SOL    HW262143   1.199   2.048   5.547
16839SOL     OW62144   4.773   1.398   6.841
16839SOL    HW162145   0.044   1.327   6.801
16839SOL    HW262146   4.724   1.434   6.768
16840SOL     OW62147   3.280   0.661  19.728
16840SOL    HW162148   3.257   0.747  19.761
16840SOL    HW262149   3.199   0.630  19.685
16841SOL     OW62150   3.210   2.114   0.510
16841SOL    HW162151   3.223   2.200   0.549
16841SOL    HW262152   3.201   2.130   0.416
16842SOL     OW62153   3.734   2.994  10.704
16842SOL    HW162154   3.820   3.004  10.663
16842SOL    HW262155   3.727   2.901  10.722
16843SOL     OW62156   0.362   4.190  22.556
16843SOL    HW162157   0.416   4.153  22.486
16843SOL    HW262158   0.398   4.153  22.637
16844SOL     OW62159   4.716   0.636  23.473
16844SOL    HW162160   4.627   0.601  23.472
16844SOL    HW262161   4.706   0.729  23.456
16845SOL     OW62162   0.781   1.739  26.997
16845SOL    HW162163   0.809   1.827  26.970
16845SOL    HW262164   0.822   1.680  26.932
16846SOL     OW62165   2.697   3.826  25.849
16846SOL    HW162166   2.732   3.875  25.923
16846SOL    HW262167   2.621   3.780  25.885
16847SOL     OW62168   2.609   4.597   9.000
16847SOL    HW162169   2.582   4.601   8.909
16847SOL    HW262170   2.601   4.504   9.024
16848SOL     OW62171   0.750   2.034   5.548
16848SOL    HW162172   0.721   1.978   5.620
16848SOL    HW262173   0.807   2.098   5.590
16849SOL     OW62174   1.271   0.089  24.668
16849SOL    HW162175   1.257   0.181  24.647
16849SOL    HW262176   1.258   0.044  24.584
16850SOL     OW62177   0.458   3.162  28.419
16850SOL    HW162178   0.514   3.239  28.419
16850SOL    HW262179   0.452   3.137  28.327
16851SOL     OW62180   4.684   1.498  11.377
16851SOL    HW162181   4.592   1.475  11.392
16851SOL    HW262182   4.733   1.427  11.417
16852SOL     OW62183   1.987   4.120  18.990
16852SOL    HW162184   2.058   4.077  18.943
16852SOL    HW262185   1.956   4.187  18.929
16853SOL     OW62186   3.610   2.771   7.162
16853SOL    HW162187   3.681   2.725   7.206
16853SOL    HW262188   3.540   2.777   7.227
16854SOL     OW62189   3.382   0.818   1.282
16854SOL    HW162190   3.350   0.827   1.193
16854SOL    HW262191   3.472   0.788   1.272
16855SOL     OW62192   1.469   2.440  24.506
16855SOL    HW162193   1.465   2.346  24.522
16855SOL    HW262194   1.383   2.473  24.531
16856SOL     OW62195   4.019   1.289  17.331
16856SOL    HW162196   4.069   1.242  17.264
16856SOL    HW262197   3.998   1.373  17.290
16857SOL     OW62198   2.686   1.698  20.602
16857SOL    HW162199   2.606   1.703  20.655
16857SOL    HW262200   2.757   1.713  20.664
16858SOL     OW62201   2.179   2.259  18.842
16858SOL    HW162202   2.192   2.186  18.902
16858SOL    HW262203   2.175   2.219  18.755
16859SOL     OW62204   2.470   1.041   8.643
16859SOL    HW162205   2.479   1.082   8.729
16859SOL    HW262206   2.389   0.990   8.649
16860SOL     OW62207   3.447   2.377   0.354
16860SOL    HW162208   3.438   2.363   0.448
16860SOL    HW262209   3.360   2.358   0.319
16861SOL     OW62210   1.898   3.574  19.798
16861SOL    HW162211   1.836   3.505  19.775
16861SOL    HW262212   1.896   3.634  19.723
16862SOL     OW62213   2.443   3.979   3.330
16862SOL    HW162214   2.494   3.943   3.258
16862SOL    HW262215   2.425   4.069   3.304
16863SOL     OW62216   0.488   1.852  27.372
16863SOL    HW162217   0.499   1.928  27.429
16863SOL    HW262218   0.577   1.832  27.342
16864SOL     OW62219   1.988   3.981  27.703
16864SOL    HW162220   2.071   4.027  27.692
16864SOL    HW262221   2.002   3.897  27.660
16865SOL     OW62222   1.078   1.011  24.097
16865SOL    HW162223   1.138   0.977  24.164
16865SOL    HW262224   0.997   1.031  24.144
16866SOL     OW62225   2.657   1.491   1.799
16866SOL    HW162226   2.646   1.416   1.740
16866SOL    HW262227   2.627   1.566   1.749
16867SOL     OW62228   4.653   1.939  21.980
16867SOL    HW162229   4.586   2.007  21.974
16867SOL    HW262230   4.736   1.985  21.967
16868SOL     OW62231   3.720   2.948  17.992
16868SOL    HW162232   3.683   2.952  18.080
16868SOL    HW262233   3.753   3.036  17.975
16869SOL     OW62234   4.689   1.234  20.391
16869SOL    HW162235   4.613   1.193  20.432
16869SOL    HW262236   4.658   1.260  20.304
16870SOL     OW62237   3.673   2.444   4.150
16870SOL    HW162238   3.620   2.364   4.152
16870SOL    HW262239   3.763   2.413   4.144
16871SOL     OW62240   1.009   3.142   4.652
16871SOL    HW162241   1.103   3.160   4.656
16871SOL    HW262242   0.984   3.122   4.742
16872SOL     OW62243   1.291   2.690   1.659
16872SOL    HW162244   1.351   2.702   1.585
16872SOL    HW262245   1.215   2.743   1.636
16873SOL     OW62246   3.377   3.733  26.349
16873SOL    HW162247   3.342   3.700  26.432
16873SOL    HW262248   3.394   3.825  26.366
16874SOL     OW62249   3.407   2.205  24.010
16874SOL    HW162250   3.479   2.225  24.068
16874SOL    HW262251   3.330   2.204  24.066
16875SOL     OW62252   1.065   2.963  21.707
16875SOL    HW162253   1.107   3.021  21.643
16875SOL    HW262254   1.135   2.942  21.769
16876SOL     OW62255   2.417   2.458   3.513
16876SOL    HW162256   2.499   2.408   3.513
16876SOL    HW262257   2.409   2.490   3.603
16877SOL     OW62258   0.997   3.040  21.299
16877SOL    HW162259   0.948   3.113  21.262
16877SOL    HW262260   0.944   2.963  21.279
16878SOL     OW62261   3.013   1.107  18.179
16878SOL    HW162262   3.008   1.093  18.274
16878SOL    HW262263   3.106   1.100  18.159
16879SOL     OW62264   1.715   3.081   4.101
16879SOL    HW162265   1.652   3.010   4.114
16879SOL    HW262266   1.793   3.038   4.065
16880SOL     OW62267   4.024   0.153  21.458
16880SOL    HW162268   4.067   0.187  21.379
16880SOL    HW262269   3.991   0.232  21.502
16881SOL     OW62270   1.043   3.306  27.851
16881SOL    HW162271   1.077   3.343  27.770
16881SOL    HW262272   1.118   3.259  27.889
16882SOL     OW62273   2.207   0.367  21.420
16882SOL    HW162274   2.240   0.288  21.462
16882SOL    HW262275   2.255   0.438  21.462
16883SOL     OW62276   3.538   2.558   3.743
16883SOL    HW162277   3.614   2.610   3.714
16883SOL    HW262278   3.484   2.549   3.664
16884SOL     OW62279   3.989   0.473  27.761
16884SOL    HW162280   3.919   0.413  27.788
16884SOL    HW262281   4.069   0.430  27.789
16885SOL     OW62282   2.992   3.075  26.635
16885SOL    HW162283   2.934   3.040  26.567
16885SOL    HW262284   2.933   3.115  26.699
16886SOL     OW62285   1.628   0.887  18.483
16886SOL    HW162286   1.619   0.800  18.445
16886SOL    HW262287   1.704   0.880  18.540
16887SOL     OW62288   1.799   2.300   7.173
16887SOL    HW162289   1.748   2.270   7.248
16887SOL    HW262290   1.889   2.274   7.193
16888SOL     OW62291   0.283   3.432  24.266
16888SOL    HW162292   0.213   3.494  24.286
16888SOL    HW262293   0.303   3.390  24.349
16889SOL     OW62294   4.302   1.024   7.100
16889SOL    HW162295   4.324   1.098   7.157
16889SOL    HW262296   4.385   0.999   7.060
16890SOL     OW62297   3.447   2.135   2.024
16890SOL    HW162298   3.469   2.218   2.066
16890SOL    HW262299   3.519   2.119   1.962
16891SOL     OW62300   1.796   1.293   4.841
16891SOL    HW162301   1.848   1.215   4.820
16891SOL    HW262302   1.753   1.315   4.759
16892SOL     OW62303   1.231   3.329   8.493
16892SOL    HW162304   1.211   3.281   8.413
16892SOL    HW262305   1.200   3.418   8.476
16893SOL     OW62306   0.827   0.575   5.063
16893SOL    HW162307   0.856   0.661   5.034
16893SOL    HW262308   0.742   0.591   5.104
16894SOL     OW62309   1.596   2.294   5.005
16894SOL    HW162310   1.537   2.231   5.049
16894SOL    HW262311   1.585   2.275   4.912
16895SOL     OW62312   4.585   3.392  18.578
16895SOL    HW162313   4.568   3.484  18.599
16895SOL    HW262314   4.563   3.345  18.658
16896SOL     OW62315   3.981   3.351  28.294
16896SOL    HW162316   4.051   3.416  28.280
16896SOL    HW262317   3.910   3.401  28.334
16897SOL     OW62318   0.178   1.424  10.522
16897SOL    HW162319   0.185   1.466  10.607
16897SOL    HW262320   0.106   1.361  10.531
16898SOL     OW62321   1.300   3.906   8.399
16898SOL    HW162322   1.336   3.822   8.373
16898SOL    HW262323   1.372   3.968   8.389
16899SOL     OW62324   4.679   4.771  22.780
16899SOL    HW162325   4.612   0.046  22.822
16899SOL    HW262326   4.755   4.779  22.837
16900SOL     OW62327   4.143   1.453   6.957
16900SOL    HW162328   4.175   1.486   7.040
16900SOL    HW262329   4.097   1.528   6.917
16901SOL     OW62330   0.533   0.728  28.143
16901SOL    HW162331   0.525   0.744  28.049
16901SOL    HW262332   0.567   0.810  28.178
16902SOL     OW62333   3.519   1.951  24.735
16902SOL    HW162334   3.535   1.937  24.641
16902SOL    HW262335   3.432   1.991  24.739
16903SOL     OW62336   0.306   2.628  19.206
16903SOL    HW162337   0.314   2.703  19.147
16903SOL    HW262338   0.216   2.633  19.238
16904SOL     OW62339   1.681   3.115  21.388
16904SOL    HW162340   1.764   3.159  21.407
16904SOL    HW262341   1.674   3.047  21.455
16905SOL     OW62342   2.135   0.897   4.176
16905SOL    HW162343   2.095   0.981   4.201
16905SOL    HW262344   2.085   0.870   4.098
16906SOL     OW62345   2.649   4.561   3.735
16906SOL    HW162346   2.572   4.537   3.786
16906SOL    HW262347   2.706   4.607   3.797
16907SOL     OW62348   0.123   1.089  10.061
16907SOL    HW162349   0.100   1.086  10.154
16907SOL    HW262350   0.074   1.164  10.027
16908SOL     OW62351   3.428   3.562   6.614
16908SOL    HW162352   3.506   3.511   6.634
16908SOL    HW262353   3.355   3.508   6.645
16909SOL     OW62354   2.730   2.977  19.855
16909SOL    HW162355   2.721   3.018  19.941
16909SOL    HW262356   2.821   2.949  19.851
16910SOL     OW62357   2.079   4.308  27.806
16910SOL    HW162358   2.066   4.214  27.820
16910SOL    HW262359   2.142   4.333  27.873
16911SOL     OW62360   1.738   1.876  24.704
16911SOL    HW162361   1.649   1.852  24.728
16911SOL    HW262362   1.727   1.932  24.627
16912SOL     OW62363   0.636   1.591  28.150
16912SOL    HW162364   0.660   1.553  28.065
16912SOL    HW262365   0.562   1.649  28.131
16913SOL     OW62366   0.582   3.337   2.959
16913SOL    HW162367   0.497   3.354   2.919
16913SOL    HW262368   0.636   3.304   2.887
16914SOL     OW62369   2.891   0.878  26.216
16914SOL    HW162370   2.922   0.948  26.158
16914SOL    HW262371   2.970   0.832  26.243
16915SOL     OW62372   3.004   3.827   7.462
16915SOL    HW162373   2.936   3.792   7.404
16915SOL    HW262374   3.046   3.897   7.412
16916SOL     OW62375   3.709   3.380   1.685
16916SOL    HW162376   3.706   3.309   1.750
16916SOL    HW262377   3.792   3.425   1.703
16917SOL     OW62378   4.031   0.578  19.350
16917SOL    HW162379   3.986   0.622  19.277
16917SOL    HW262380   4.078   0.648  19.395
16918SOL     OW62381   2.097   3.818  22.997
16918SOL    HW162382   2.149   3.759  22.942
16918SOL    HW262383   2.073   3.890  22.939
16919SOL     OW62384   4.207   1.594   8.014
16919SOL    HW162385   4.161   1.670   8.050
16919SOL    HW262386   4.282   1.580   8.072
16920SOL     OW62387   0.698   0.453  21.039
16920SOL    HW162388   0.640   0.485  21.109
16920SOL    HW262389   0.785   0.457  21.077
16921SOL     OW62390   4.665   0.074   4.335
16921SOL    HW162391   4.612   0.028   4.271
16921SOL    HW262392   4.738   0.015   4.354
16922SOL     OW62393   4.745   0.169   5.952
16922SOL    HW162394   4.753   0.146   6.045
16922SOL    HW262395   0.045   0.216   5.932
16923SOL     OW62396   3.042   2.513  27.867
16923SOL    HW162397   3.045   2.418  27.877
16923SOL    HW262398   3.093   2.531  27.788
16924SOL     OW62399   1.134   2.603  26.623
16924SOL    HW162400   1.165   2.691  26.604
16924SOL    HW262401   1.133   2.597  26.718
16925SOL     OW62402   2.986   1.988  20.925
16925SOL    HW162403   2.977   2.039  20.844
16925SOL    HW262404   3.080   1.967  20.929
16926SOL     OW62405   0.405   2.518  21.391
16926SOL    HW162406   0.354   2.595  21.366
16926SOL    HW262407   0.495   2.549  21.397
16927SOL     OW62408   2.523   3.681  27.861
16927SOL    HW162409   2.437   3.651  27.888
16927SOL    HW262410   2.528   3.772  27.890
16928SOL     OW62411   3.702   4.476   0.466
16928SOL    HW162412   3.781   4.501   0.514
16928SOL    HW262413   3.672   4.396   0.510
16929SOL     OW62414   3.204   1.660   3.481
16929SOL    HW162415   3.115   1.676   3.451
16929SOL    HW262416   3.258   1.725   3.435
16930SOL     OW62417   3.411   4.034  24.593
16930SOL    HW162418   3.395   3.957  24.538
16930SOL    HW262419   3.372   4.012  24.678
16931SOL     OW62420   4.463   0.564  19.512
16931SOL    HW162421   4.538   0.591  19.566
16931SOL    HW262422   4.410   0.510  19.570
16932SOL     OW62423   3.416   3.552   5.002
16932SOL    HW162424   3.505   3.579   5.024
16932SOL    HW262425   3.410   3.461   5.030
16933SOL     OW62426   3.657   0.194  27.614
16933SOL    HW162427   3.626   0.261  27.675
16933SOL    HW262428   3.585   0.130  27.610
16934SOL     OW62429   2.735   4.667   7.622
16934SOL    HW162430   2.710   4.577   7.644
16934SOL    HW262431   2.654   4.707   7.591
16935SOL     OW62432   0.753   4.642   2.067
16935SOL    HW162433   0.762   4.736   2.083
16935SOL    HW262434   0.809   4.601   2.133
16936SOL     OW62435   3.654   1.066  20.195
16936SOL    HW162436   3.577   1.024  20.158
16936SOL    HW262437   3.628   1.088  20.285
16937SOL     OW62438   2.406   3.766   1.751
16937SOL    HW162439   2.344   3.839   1.745
16937SOL    HW262440   2.491   3.807   1.765
16938SOL     OW62441   4.117   1.350  28.127
16938SOL    HW162442   4.023   1.333  28.130
16938SOL    HW262443   4.125   1.436  28.087
16939SOL     OW62444   1.392   3.783  18.150
16939SOL    HW162445   1.448   3.727  18.204
16939SOL    HW262446   1.447   3.858  18.128
16940SOL     OW62447   4.287   2.471  19.374
16940SOL    HW162448   4.349   2.399  19.363
16940SOL    HW262449   4.338   2.539  19.419
16941SOL     OW62450   4.393   1.795  16.850
16941SOL    HW162451   4.375   1.701  16.848
16941SOL    HW262452   4.424   1.816  16.762
16942SOL     OW62453   2.020   1.702   7.404
16942SOL    HW162454   2.028   1.703   7.309
16942SOL    HW262455   1.949   1.639   7.421
16943SOL     OW62456   0.847   4.338  27.380
16943SOL    HW162457   0.835   4.422  27.335
16943SOL    HW262458   0.934   4.309  27.353
16944SOL     OW62459   3.906   0.800  27.092
16944SOL    HW162460   3.907   0.812  27.187
16944SOL    HW262461   3.887   0.707  27.080
16945SOL     OW62462   0.081   1.945   9.755
16945SOL    HW162463   0.001   1.934   9.806
16945SOL    HW262464   0.050   1.971   9.668
16946SOL     OW62465   0.891   4.121   6.364
16946SOL    HW162466   0.909   4.144   6.455
16946SOL    HW262467   0.807   4.162   6.345
16947SOL     OW62468   2.464   3.667   3.873
16947SOL    HW162469   2.478   3.638   3.964
16947SOL    HW262470   2.369   3.674   3.865
16948SOL     OW62471   1.218   4.496  28.051
16948SOL    HW162472   1.206   4.562  27.983
16948SOL    HW262473   1.129   4.482  28.085
16949SOL     OW62474   0.147   1.463  25.481
16949SOL    HW162475   0.109   1.442  25.396
16949SOL    HW262476   0.077   1.446  25.544
16950SOL     OW62477   2.946   1.096   8.746
16950SOL    HW162478   2.909   1.102   8.834
16950SOL    HW262479   2.981   1.183   8.728
16951SOL     OW62480   2.445   1.831   9.074
16951SOL    HW162481   2.469   1.744   9.105
16951SOL    HW262482   2.405   1.873   9.150
16952SOL     OW62483   1.624   2.083  16.471
16952SOL    HW162484   1.543   2.129  16.448
16952SOL    HW262485   1.610   1.994  16.440
16953SOL     OW62486   2.066   4.627   6.594
16953SOL    HW162487   2.136   4.690   6.576
16953SOL    HW262488   2.105   4.542   6.575
16954SOL     OW62489   3.514   1.617  19.422
16954SOL    HW162490   3.483   1.699  19.460
16954SOL    HW262491   3.462   1.605  19.343
16955SOL     OW62492   0.793   0.492   4.166
16955SOL    HW162493   0.876   0.446   4.157
16955SOL    HW262494   0.815   0.585   4.158
16956SOL     OW62495   4.555   0.693   8.320
16956SOL    HW162496   4.619   0.630   8.355
16956SOL    HW262497   4.599   0.778   8.326
16957SOL     OW62498   4.024   1.230  23.021
16957SOL    HW162499   4.005   1.220  22.928
16957SOL    HW262500   4.116   1.257  23.024
16958SOL     OW62501   2.542   2.203  26.922
16958SOL    HW162502   2.573   2.139  26.859
16958SOL    HW262503   2.572   2.287  26.888
16959SOL     OW62504   1.535   2.111   1.942
16959SOL    HW162505   1.448   2.127   1.979
16959SOL    HW262506   1.596   2.127   2.014
16960SOL     OW62507   4.460   0.846   4.203
16960SOL    HW162508   4.381   0.815   4.159
16960SOL    HW262509   4.439   0.935   4.230
16961SOL     OW62510   2.779   4.169   7.832
16961SOL    HW162511   2.718   4.188   7.903
16961SOL    HW262512   2.844   4.112   7.871
16962SOL     OW62513   2.183   3.566   3.308
16962SOL    HW162514   2.142   3.484   3.284
16962SOL    HW262515   2.127   3.603   3.376
16963SOL     OW62516   0.325   0.171   4.012
16963SOL    HW162517   0.230   0.167   4.018
16963SOL    HW262518   0.353   0.080   4.023
16964SOL     OW62519   1.574   2.908  26.746
16964SOL    HW162520   1.561   2.983  26.804
16964SOL    HW262521   1.660   2.922  26.707
16965SOL     OW62522   2.583   1.624   9.227
16965SOL    HW162523   2.588   1.558   9.297
16965SOL    HW262524   2.668   1.620   9.184
16966SOL     OW62525   0.330   4.670   5.649
16966SOL    HW162526   0.287   4.587   5.628
16966SOL    HW262527   0.264   4.737   5.630
16967SOL     OW62528   3.892   3.817  21.226
16967SOL    HW162529   3.892   3.790  21.317
16967SOL    HW262530   3.984   3.834  21.205
16968SOL     OW62531   4.624   1.221  10.096
16968SOL    HW162532   4.592   1.303  10.132
16968SOL    HW262533   4.672   1.247  10.017
16969SOL     OW62534   1.916   1.009  22.409
16969SOL    HW162535   1.859   1.078  22.374
16969SOL    HW262536   1.968   0.981  22.335
16970SOL     OW62537   0.388   0.995  20.813
16970SOL    HW162538   0.455   1.063  20.817
16970SOL    HW262539   0.331   1.013  20.887
16971SOL     OW62540   1.906   4.670   9.779
16971SOL    HW162541   1.940   4.687   9.691
16971SOL    HW262542   1.936   4.745   9.830
16972SOL     OW62543   3.675   0.470  23.589
16972SOL    HW162544   3.619   0.455  23.665
16972SOL    HW262545   3.619   0.451  23.514
16973SOL     OW62546   2.900   0.684  22.812
16973SOL    HW162547   2.877   0.665  22.903
16973SOL    HW262548   2.831   0.642  22.760
16974SOL     OW62549   3.468   1.328  23.036
16974SOL    HW162550   3.551   1.312  23.081
16974SOL    HW262551   3.429   1.241  23.025
16975SOL     OW62552   3.837   3.206   1.072
16975SOL    HW162553   3.891   3.282   1.050
16975SOL    HW262554   3.892   3.152   1.129
16976SOL     OW62555   4.676   2.861  27.094
16976SOL    HW162556   4.625   2.869  27.174
16976SOL    HW262557   4.735   2.936  27.095
16977SOL     OW62558   2.072   2.108  12.813
16977SOL    HW162559   2.114   2.022  12.809
16977SOL    HW262560   2.094   2.142  12.900
16978SOL     OW62561   3.817   1.209  23.234
16978SOL    HW162562   3.873   1.209  23.156
16978SOL    HW262563   3.875   1.181  23.305
16979SOL     OW62564   0.578   3.304  22.909
16979SOL    HW162565   0.663   3.342  22.929
16979SOL    HW262566   0.587   3.211  22.931
16980SOL     OW62567   2.940   4.375  22.578
16980SOL    HW162568   3.007   4.441  22.560
16980SOL    HW262569   2.939   4.321  22.499
16981SOL     OW62570   2.568   3.842   1.140
16981SOL    HW162571   2.638   3.856   1.076
16981SOL    HW262572   2.613   3.845   1.225
16982SOL     OW62573   0.265   1.284  24.745
16982SOL    HW162574   0.275   1.197  24.708
16982SOL    HW262575   0.274   1.271  24.840
16983SOL     OW62576   1.571   1.523   8.253
16983SOL    HW162577   1.492   1.542   8.203
16983SOL    HW262578   1.543   1.462   8.322
16984SOL     OW62579   4.407   3.410  24.220
16984SOL    HW162580   4.435   3.326  24.183
16984SOL    HW262581   4.440   3.409  24.310
16985SOL     OW62582   2.825   1.873  26.550
16985SOL    HW162583   2.731   1.859  26.553
16985SOL    HW262584   2.858   1.835  26.631
16986SOL     OW62585   0.409   0.287  22.706
16986SOL    HW162586   0.422   0.228  22.780
16986SOL    HW262587   0.461   0.365  22.728
16987SOL     OW62588   4.042   4.722   0.850
16987SOL    HW162589   4.079   4.765   0.927
16987SOL    HW262590   4.089   4.639   0.843
16988SOL     OW62591   0.326   0.291   9.758
16988SOL    HW162592   0.281   0.206   9.763
16988SOL    HW262593   0.407   0.278   9.806
16989SOL     OW62594   0.219   1.123   6.067
16989SOL    HW162595   0.241   1.033   6.046
16989SOL    HW262596   0.124   1.124   6.074
16990SOL     OW62597   0.939   1.976  23.444
16990SOL    HW162598   0.934   1.954  23.537
16990SOL    HW262599   0.856   2.021  23.425
16991SOL     OW62600   4.737   2.294  22.758
16991SOL    HW162601   4.711   2.381  22.786
16991SOL    HW262602   4.745   2.299  22.663
16992SOL     OW62603   2.986   2.370  20.061
16992SOL    HW162604   2.959   2.322  20.139
16992SOL    HW262605   3.074   2.401  20.082
16993SOL     OW62606   4.007   0.702  27.594
16993SOL    HW162607   4.059   0.662  27.525
16993SOL    HW262608   3.997   0.633  27.660
16994SOL     OW62609   4.175   0.976  17.901
16994SOL    HW162610   4.219   0.958  17.818
16994SOL    HW262611   4.114   1.047  17.882
16995SOL     OW62612   3.752   0.990  26.396
16995SOL    HW162613   3.704   0.932  26.337
16995SOL    HW262614   3.783   1.062  26.340
16996SOL     OW62615   3.677   2.573  20.889
16996SOL    HW162616   3.714   2.656  20.859
16996SOL    HW262617   3.583   2.590  20.897
16997SOL     OW62618   0.377   1.678   2.658
16997SOL    HW162619   0.309   1.642   2.601
16997SOL    HW262620   0.386   1.769   2.630
16998SOL     OW62621   3.272   3.766   3.475
16998SOL    HW162622   3.236   3.702   3.414
16998SOL    HW262623   3.216   3.843   3.467
16999SOL     OW62624   2.949   0.879  25.586
16999SOL    HW162625   2.946   0.973  25.567
16999SOL    HW262626   3.031   0.849  25.547
17000SOL     OW62627   3.487   0.667  28.162
17000SOL    HW162628   3.425   0.595  28.175
17000SOL    HW262629   3.529   0.678  28.247
17001SOL     OW62630   3.508   3.694  22.259
17001SOL    HW162631   3.432   3.745  22.229
17001SOL    HW262632   3.581   3.727  22.207
17002SOL     OW62633   2.597   1.849   0.909
17002SOL    HW162634   2.653   1.878   0.836
17002SOL    HW262635   2.655   1.848   0.985
17003SOL     OW62636   1.168   3.772   6.315
17003SOL    HW162637   1.252   3.774   6.361
17003SOL    HW262638   1.185   3.721   6.236
17004SOL     OW62639   2.842   3.153  11.260
17004SOL    HW162640   2.894   3.204  11.322
17004SOL    HW262641   2.892   3.071  11.249
17005SOL     OW62642   0.045   0.539  25.050
17005SOL    HW162643   0.140   0.531  25.047
17005SOL    HW262644   0.028   0.633  25.055
17006SOL     OW62645   1.748   1.888  19.500
17006SOL    HW162646   1.783   1.880  19.589
17006SOL    HW262647   1.796   1.961  19.462
17007SOL     OW62648   4.280   3.971   7.569
17007SOL    HW162649   4.362   3.936   7.534
17007SOL    HW262650   4.227   3.894   7.588
17008SOL     OW62651   0.036   3.197   4.661
17008SOL    HW162652   0.131   3.203   4.664
17008SOL    HW262653   0.014   3.127   4.723
17009SOL     OW62654   3.004   2.758  26.572
17009SOL    HW162655   2.911   2.742  26.591
17009SOL    HW262656   3.004   2.835  26.516
17010SOL     OW62657   2.386   0.801  21.715
17010SOL    HW162658   2.475   0.799  21.680
17010SOL    HW262659   2.330   0.805  21.637
17011SOL     OW62660   1.324   0.981  26.621
17011SOL    HW162661   1.231   0.990  26.638
17011SOL    HW262662   1.348   1.062  26.575
17012SOL     OW62663   3.791   0.074  21.714
17012SOL    HW162664   3.744   0.003  21.758
17012SOL    HW262665   3.767   0.152  21.764
17013SOL     OW62666   4.220   3.743  23.279
17013SOL    HW162667   4.130   3.775  23.269
17013SOL    HW262668   4.269   3.820  23.308
17014SOL     OW62669   0.002   2.878  23.970
17014SOL    HW162670   0.097   2.885  23.969
17014SOL    HW262671   4.753   2.957  23.925
17015SOL     OW62672   1.009   0.924   0.131
17015SOL    HW162673   0.995   0.867   0.055
17015SOL    HW262674   1.040   0.865   0.200
17016SOL     OW62675   3.531   2.239  17.562
17016SOL    HW162676   3.581   2.167  17.523
17016SOL    HW262677   3.521   2.301  17.490
17017SOL     OW62678   1.453   0.142  13.048
17017SOL    HW162679   1.434   0.235  13.060
17017SOL    HW262680   1.367   0.101  13.040
17018SOL     OW62681   3.093   2.073  27.060
17018SOL    HW162682   3.010   2.047  27.100
17018SOL    HW262683   3.124   2.145  27.115
17019SOL     OW62684   3.254   1.066  21.009
17019SOL    HW162685   3.244   1.042  20.917
17019SOL    HW262686   3.344   1.043  21.030
17020SOL     OW62687   0.778   1.775  24.904
17020SOL    HW162688   0.869   1.750  24.919
17020SOL    HW262689   0.781   1.871  24.897
17021SOL     OW62690   2.781   1.541  27.488
17021SOL    HW162691   2.720   1.511  27.556
17021SOL    HW262692   2.730   1.537  27.407
17022SOL     OW62693   1.380   2.569   6.734
17022SOL    HW162694   1.469   2.601   6.720
17022SOL    HW262695   1.369   2.499   6.669
17023SOL     OW62696   3.500   4.240   5.155
17023SOL    HW162697   3.504   4.322   5.204
17023SOL    HW262698   3.534   4.262   5.068
17024SOL     OW62699   3.363   0.047   4.644
17024SOL    HW162700   3.408   0.011   4.721
17024SOL    HW262701   3.431   0.054   4.578
17025SOL     OW62702   4.242   1.973   1.720
17025SOL    HW162703   4.150   1.983   1.745
17025SOL    HW262704   4.288   2.043   1.767
17026SOL     OW62705   2.197   1.689  25.165
17026SOL    HW162706   2.214   1.705  25.073
17026SOL    HW262707   2.266   1.735  25.212
17027SOL     OW62708   1.520   3.483   0.131
17027SOL    HW162709   1.582   3.555   0.124
17027SOL    HW262710   1.439   3.525   0.162
17028SOL     OW62711   0.684   3.768   2.959
17028SOL    HW162712   0.642   3.693   3.001
17028SOL    HW262713   0.640   3.776   2.874
17029SOL     OW62714   1.901   2.473   4.359
17029SOL    HW162715   1.908   2.380   4.384
17029SOL    HW262716   1.974   2.486   4.299
17030SOL     OW62717   2.713   0.310  18.844
17030SOL    HW162718   2.659   0.388  18.843
17030SOL    HW262719   2.795   0.337  18.802
17031SOL     OW62720   3.601   4.285  22.996
17031SOL    HW162721   3.557   4.346  23.056
17031SOL    HW262722   3.556   4.202  23.009
17032SOL     OW62723   3.451   4.563   0.388
17032SOL    HW162724   3.467   4.610   0.306
17032SOL    HW262725   3.538   4.548   0.424
17033SOL     OW62726   3.061   2.937   3.606
17033SOL    HW162727   3.027   3.013   3.653
17033SOL    HW262728   3.156   2.947   3.610
17034SOL     OW62729   3.758   3.135  11.021
17034SOL    HW162730   3.711   3.090  11.092
17034SOL    HW262731   3.844   3.153  11.058
17035SOL     OW62732   4.573   1.921  20.803
17035SOL    HW162733   4.493   1.871  20.790
17035SOL    HW262734   4.637   1.857  20.836
17036SOL     OW62735   2.517   0.744   5.644
17036SOL    HW162736   2.484   0.829   5.675
17036SOL    HW262737   2.571   0.712   5.717
17037SOL     OW62738   2.061   1.803  28.060
17037SOL    HW162739   2.088   1.815  28.151
17037SOL    HW262740   2.039   1.710  28.054
17038SOL     OW62741   1.166   1.827   8.203
17038SOL    HW162742   1.073   1.818   8.183
17038SOL    HW262743   1.173   1.910   8.250
17039SOL     OW62744   4.671   0.755   0.952
17039SOL    HW162745   4.720   0.674   0.968
17039SOL    HW262746   4.605   0.757   1.021
17040SOL     OW62747   2.287   0.615  28.367
17040SOL    HW162748   2.355   0.660  28.316
17040SOL    HW262749   2.279   0.529  28.326
17041SOL     OW62750   4.532   3.077   0.064
17041SOL    HW162751   4.465   3.146   0.061
17041SOL    HW262752   4.540   3.056   0.157
17042SOL     OW62753   4.006   1.757  21.766
17042SOL    HW162754   4.057   1.677  21.777
17042SOL    HW262755   4.063   1.814  21.714
17043SOL     OW62756   3.608   0.628   8.152
17043SOL    HW162757   3.651   0.564   8.095
17043SOL    HW262758   3.638   0.713   8.120
17044SOL     OW62759   0.329   2.043  23.536
17044SOL    HW162760   0.377   2.104  23.481
17044SOL    HW262761   0.260   2.095  23.577
17045SOL     OW62762   2.871   2.712  25.426
17045SOL    HW162763   2.958   2.742  25.400
17045SOL    HW262764   2.831   2.788  25.467
17046SOL     OW62765   4.421   2.790   6.487
17046SOL    HW162766   4.392   2.746   6.407
17046SOL    HW262767   4.346   2.843   6.512
17047SOL     OW62768   2.685   2.421   8.771
17047SOL    HW162769   2.680   2.510   8.805
17047SOL    HW262770   2.619   2.372   8.820
17048SOL     OW62771   1.172   0.986   3.243
17048SOL    HW162772   1.267   0.986   3.236
17048SOL    HW262773   1.153   1.038   3.322
17049SOL     OW62774   2.523   0.167   5.929
17049SOL    HW162775   2.524   0.213   5.846
17049SOL    HW262776   2.537   0.075   5.906
17050SOL     OW62777   0.580   0.908  21.736
17050SOL    HW162778   0.593   0.908  21.641
17050SOL    HW262779   0.645   0.846  21.769
17051SOL     OW62780   3.433   1.473   7.603
17051SOL    HW162781   3.400   1.469   7.513
17051SOL    HW262782   3.397   1.394   7.644
17052SOL     OW62783   0.397   1.006   2.446
17052SOL    HW162784   0.320   1.055   2.474
17052SOL    HW262785   0.385   0.996   2.351
17053SOL     OW62786   3.791   3.201   2.584
17053SOL    HW162787   3.860   3.260   2.612
17053SOL    HW262788   3.725   3.206   2.653
17054SOL     OW62789   4.500   3.540   8.941
17054SOL    HW162790   4.429   3.600   8.920
17054SOL    HW262791   4.535   3.513   8.856
17055SOL     OW62792   4.325   1.378  24.481
17055SOL    HW162793   4.289   1.313  24.421
17055SOL    HW262794   4.420   1.376  24.465
17056SOL     OW62795   4.144   0.844   9.348
17056SOL    HW162796   4.051   0.829   9.332
17056SOL    HW262797   4.172   0.900   9.276
17057SOL     OW62798   0.230   1.490  17.619
17057SOL    HW162799   0.323   1.486  17.641
17057SOL    HW262800   0.223   1.563  17.558
17058SOL     OW62801   1.322   3.500   7.809
17058SOL    HW162802   1.307   3.491   7.903
17058SOL    HW262803   1.235   3.514   7.772
17059SOL     OW62804   4.441   2.049  20.075
17059SOL    HW162805   4.517   2.008  20.034
17059SOL    HW262806   4.452   2.142  20.059
17060SOL     OW62807   3.777   1.695   3.062
17060SOL    HW162808   3.720   1.678   3.137
17060SOL    HW262809   3.866   1.685   3.096
17061SOL     OW62810   2.477   1.764  22.146
17061SOL    HW162811   2.434   1.721  22.072
17061SOL    HW262812   2.443   1.853  22.146
17062SOL     OW62813   1.612   0.051  10.020
17062SOL    HW162814   1.558   4.756  10.042
17062SOL    HW262815   1.569   0.124  10.062
17063SOL     OW62816   2.496   0.511  22.194
17063SOL    HW162817   2.588   0.485  22.203
17063SOL    HW262818   2.498   0.594  22.147
17064SOL     OW62819   0.632   2.778  27.035
17064SOL    HW162820   0.686   2.763  26.958
17064SOL    HW262821   0.577   2.853  27.011
17065SOL     OW62822   1.775   2.634  26.201
17065SOL    HW162823   1.752   2.550  26.239
17065SOL    HW262824   1.825   2.679  26.269
17066SOL     OW62825   1.790   0.936   4.047
17066SOL    HW162826   1.777   0.997   4.119
17066SOL    HW262827   1.704   0.897   4.032
17067SOL     OW62828   1.226   2.648   5.130
17067SOL    HW162829   1.296   2.692   5.082
17067SOL    HW262830   1.178   2.598   5.064
17068SOL     OW62831   4.336   0.797  21.845
17068SOL    HW162832   4.298   0.759  21.925
17068SOL    HW262833   4.406   0.855  21.877
17069SOL     OW62834   0.964   1.902  27.363
17069SOL    HW162835   1.046   1.852  27.369
17069SOL    HW262836   0.909   1.864  27.432
17070SOL     OW62837   1.254   2.145  22.286
17070SOL    HW162838   1.264   2.126  22.379
17070SOL    HW262839   1.335   2.112  22.247
17071SOL     OW62840   4.001   1.258  22.756
17071SOL    HW162841   3.907   1.247  22.763
17071SOL    HW262842   4.012   1.330  22.693
17072SOL     OW62843   3.871   2.754   6.149
17072SOL    HW162844   3.887   2.760   6.244
17072SOL    HW262845   3.818   2.831   6.129
17073SOL     OW62846   3.915   1.011   8.765
17073SOL    HW162847   3.866   1.064   8.702
17073SOL    HW262848   3.864   1.016   8.845
17074SOL     OW62849   2.912   2.377  26.981
17074SOL    HW162850   2.984   2.412  26.929
17074SOL    HW262851   2.944   2.380  27.072
17075SOL     OW62852   3.828   0.035  26.182
17075SOL    HW162853   3.780   0.116  26.195
17075SOL    HW262854   3.846   0.033  26.088
17076SOL     OW62855   0.318   4.182  25.943
17076SOL    HW162856   0.225   4.177  25.965
17076SOL    HW262857   0.320   4.232  25.862
17077SOL     OW62858   2.439   1.907   2.493
17077SOL    HW162859   2.490   1.986   2.473
17077SOL    HW262860   2.477   1.875   2.575
17078SOL     OW62861   4.489   0.789  20.698
17078SOL    HW162862   4.572   0.834  20.681
17078SOL    HW262863   4.437   0.852  20.747
17079SOL     OW62864   2.226   0.372   4.707
17079SOL    HW162865   2.317   0.369   4.737
17079SOL    HW262866   2.222   0.307   4.636
17080SOL     OW62867   2.284   1.506  23.402
17080SOL    HW162868   2.220   1.440  23.378
17080SOL    HW262869   2.366   1.475  23.364
17081SOL     OW62870   1.045   1.664   2.922
17081SOL    HW162871   1.065   1.684   3.013
17081SOL    HW262872   1.052   1.749   2.876
17082SOL     OW62873   0.001   2.305  18.797
17082SOL    HW162874   4.746   2.390  18.819
17082SOL    HW262875   4.771   2.298  18.702
17083SOL     OW62876   0.460   1.426  27.583
17083SOL    HW162877   0.451   1.497  27.519
17083SOL    HW262878   0.550   1.395  27.572
17084SOL     OW62879   1.283   1.871  26.983
17084SOL    HW162880   1.293   1.820  26.902
17084SOL    HW262881   1.331   1.821  27.049
17085SOL     OW62882   3.503   1.471  26.923
17085SOL    HW162883   3.591   1.488  26.887
17085SOL    HW262884   3.480   1.385  26.889
17086SOL     OW62885   0.400   3.057  23.433
17086SOL    HW162886   0.384   2.995  23.504
17086SOL    HW262887   0.459   3.122  23.470
17087SOL     OW62888   0.977   1.428  20.921
17087SOL    HW162889   0.902   1.460  20.870
17087SOL    HW262890   1.054   1.452  20.870
17088SOL     OW62891   0.540   2.779  27.764
17088SOL    HW162892   0.593   2.836  27.709
17088SOL    HW262893   0.566   2.690  27.741
17089SOL     OW62894   4.156   2.201  18.120
17089SOL    HW162895   4.251   2.195  18.117
17089SOL    HW262896   4.137   2.246  18.202
17090SOL     OW62897   3.717   1.597   3.647
17090SOL    HW162898   3.678   1.674   3.606
17090SOL    HW262899   3.714   1.616   3.741
17091SOL     OW62900   4.180   1.374   8.372
17091SOL    HW162901   4.262   1.418   8.350
17091SOL    HW262902   4.205   1.282   8.386
17092SOL     OW62903   0.372   1.778   4.837
17092SOL    HW162904   0.348   1.868   4.819
17092SOL    HW262905   0.300   1.743   4.889
17093SOL     OW62906   4.592   0.150  21.828
17093SOL    HW162907   4.513   0.098  21.838
17093SOL    HW262908   4.563   0.232  21.788
17094SOL     OW62909   1.863   4.138  22.574
17094SOL    HW162910   1.857   4.043  22.584
17094SOL    HW262911   1.921   4.166  22.645
17095SOL     OW62912   3.291   0.426   6.772
17095SOL    HW162913   3.259   0.516   6.772
17095SOL    HW262914   3.345   0.419   6.850
17096SOL     OW62915   2.826   1.221   6.955
17096SOL    HW162916   2.775   1.278   6.897
17096SOL    HW262917   2.916   1.232   6.926
17097SOL     OW62918   4.313   1.367   9.255
17097SOL    HW162919   4.397   1.342   9.216
17097SOL    HW262920   4.264   1.285   9.262
17098SOL     OW62921   2.269   0.385  27.049
17098SOL    HW162922   2.355   0.345  27.061
17098SOL    HW262923   2.231   0.390  27.137
17099SOL     OW62924   4.073   2.987  19.934
17099SOL    HW162925   4.051   3.018  19.846
17099SOL    HW262926   4.023   3.044  19.993
17100SOL     OW62927   4.069   3.900  11.218
17100SOL    HW162928   4.126   3.864  11.286
17100SOL    HW262929   4.016   3.965  11.264
17101SOL     OW62930   3.455   2.138  12.845
17101SOL    HW162931   3.451   2.200  12.918
17101SOL    HW262932   3.463   2.052  12.887
17102SOL     OW62933   2.629   3.189  27.923
17102SOL    HW162934   2.667   3.101  27.935
17102SOL    HW262935   2.677   3.226  27.849
17103SOL     OW62936   0.008   3.588  24.840
17103SOL    HW162937   0.047   3.501  24.847
17103SOL    HW262938   4.762   3.609  24.930
17104SOL     OW62939   1.652   2.586   8.148
17104SOL    HW162940   1.654   2.681   8.135
17104SOL    HW262941   1.721   2.552   8.091
17105SOL     OW62942   0.708   4.768  22.397
17105SOL    HW162943   0.630   4.716  22.377
17105SOL    HW262944   0.756   4.716  22.461
17106SOL     OW62945   3.311   2.802  21.622
17106SOL    HW162946   3.396   2.814  21.665
17106SOL    HW262947   3.249   2.794  21.695
17107SOL     OW62948   0.107   0.304   2.796
17107SOL    HW162949   0.063   0.381   2.759
17107SOL    HW262950   0.199   0.328   2.802
17108SOL     OW62951   3.299   2.728   8.704
17108SOL    HW162952   3.303   2.822   8.723
17108SOL    HW262953   3.213   2.715   8.666
17109SOL     OW62954   1.871   2.115   1.514
17109SOL    HW162955   1.936   2.179   1.543
17109SOL    HW262956   1.790   2.142   1.558
17110SOL     OW62957   2.480   1.572  17.873
17110SOL    HW162958   2.397   1.537  17.906
17110SOL    HW262959   2.473   1.564  17.777
17111SOL     OW62960   0.758   3.636   6.751
17111SOL    HW162961   0.816   3.682   6.690
17111SOL    HW262962   0.673   3.677   6.739
17112SOL     OW62963   3.841   2.071  11.685
17112SOL    HW162964   3.865   2.128  11.758
17112SOL    HW262965   3.750   2.047  11.703
17113SOL     OW62966   2.425   2.031   1.056
17113SOL    HW162967   2.366   1.977   1.109
17113SOL    HW262968   2.446   1.976   0.981
17114SOL     OW62969   1.868   1.360  26.084
17114SOL    HW162970   1.831   1.448  26.081
17114SOL    HW262971   1.798   1.305  26.118
17115SOL     OW62972   4.723   0.655   0.545
17115SOL    HW162973   4.667   0.578   0.555
17115SOL    HW262974   0.027   0.620   0.516
17116SOL     OW62975   2.472   0.750   4.383
17116SOL    HW162976   2.506   0.802   4.311
17116SOL    HW262977   2.547   0.735   4.440
17117SOL     OW62978   2.237   4.089   7.990
17117SOL    HW162979   2.245   4.122   7.901
17117SOL    HW262980   2.281   4.155   8.044
17118SOL     OW62981   4.682   2.337  28.070
17118SOL    HW162982   4.648   2.293  28.148
17118SOL    HW262983   4.700   2.266  28.008
17119SOL     OW62984   4.097   1.336  21.563
17119SOL    HW162985   4.025   1.374  21.512
17119SOL    HW262986   4.114   1.251  21.522
17120SOL     OW62987   3.841   4.082  26.596
17120SOL    HW162988   3.806   3.998  26.624
17120SOL    HW262989   3.826   4.141  26.670
17121SOL     OW62990   4.632   4.292  11.173
17121SOL    HW162991   4.625   4.362  11.238
17121SOL    HW262992   4.544   4.284  11.136
17122SOL     OW62993   3.366   0.429   9.529
17122SOL    HW162994   3.459   0.414   9.548
17122SOL    HW262995   3.324   0.433   9.615
17123SOL     OW62996   1.072   0.636   3.443
17123SOL    HW162997   0.995   0.684   3.473
17123SOL    HW262998   1.131   0.635   3.519
17124SOL     OW62999   3.051   3.708   1.694
17124SOL    HW163000   3.045   3.745   1.606
17124SOL    HW263001   2.960   3.701   1.724
17125SOL     OW63002   3.207   4.013  26.758
17125SOL    HW163003   3.222   4.098  26.718
17125SOL    HW263004   3.137   3.973  26.706
17126SOL     OW63005   3.347   4.576  24.775
17126SOL    HW163006   3.317   4.644  24.835
17126SOL    HW263007   3.377   4.505  24.831
17127SOL     OW63008   1.525   3.842   7.456
17127SOL    HW163009   1.612   3.855   7.419
17127SOL    HW263010   1.506   3.924   7.501
17128SOL     OW63011   3.806   0.374   5.686
17128SOL    HW163012   3.814   0.286   5.649
17128SOL    HW263013   3.757   0.360   5.767
17129SOL     OW63014   0.104   2.374  21.547
17129SOL    HW163015   0.190   2.376  21.590
17129SOL    HW263016   0.118   2.417  21.463
17130SOL     OW63017   2.829   4.379  27.797
17130SOL    HW163018   2.906   4.373  27.854
17130SOL    HW263019   2.865   4.408  27.713
17131SOL     OW63020   0.455   1.802  17.005
17131SOL    HW163021   0.401   1.818  16.928
17131SOL    HW263022   0.539   1.842  16.985
17132SOL     OW63023   0.442   0.692   6.269
17132SOL    HW163024   0.511   0.630   6.293
17132SOL    HW263025   0.451   0.764   6.332
17133SOL     OW63026   3.539   3.696  21.515
17133SOL    HW163027   3.536   3.792  21.512
17133SOL    HW263028   3.555   3.670  21.424
17134SOL     OW63029   3.708   2.317   6.255
17134SOL    HW163030   3.638   2.251   6.251
17134SOL    HW263031   3.739   2.313   6.345
17135SOL     OW63032   1.019   1.532   3.446
17135SOL    HW163033   1.053   1.605   3.393
17135SOL    HW263034   0.941   1.503   3.398
17136SOL     OW63035   4.076   0.193   6.859
17136SOL    HW163036   4.111   0.104   6.859
17136SOL    HW263037   4.004   0.191   6.922
17137SOL     OW63038   4.252   3.017  26.370
17137SOL    HW163039   4.220   2.972  26.448
17137SOL    HW263040   4.202   2.979  26.298
17138SOL     OW63041   3.894   2.016   9.720
17138SOL    HW163042   3.898   2.112   9.713
17138SOL    HW263043   3.837   2.001   9.796
17139SOL     OW63044   3.320   1.045  26.248
17139SOL    HW163045   3.393   1.099  26.220
17139SOL    HW263046   3.254   1.056  26.179
17140SOL     OW63047   4.193   0.551   1.455
17140SOL    HW163048   4.206   0.565   1.549
17140SOL    HW263049   4.098   0.559   1.442
17141SOL     OW63050   4.677   2.045  23.240
17141SOL    HW163051   4.601   2.070  23.188
17141SOL    HW263052   4.650   2.058  23.331
17142SOL     OW63053   2.286   3.109  20.086
17142SOL    HW163054   2.276   3.022  20.046
17142SOL    HW263055   2.207   3.120  20.139
17143SOL     OW63056   0.553   0.383   3.193
17143SOL    HW163057   0.617   0.439   3.237
17143SOL    HW263058   0.468   0.423   3.214
17144SOL     OW63059   2.176   2.981   6.796
17144SOL    HW163060   2.088   2.956   6.824
17144SOL    HW263061   2.210   2.904   6.751
17145SOL     OW63062   1.495   1.083  19.945
17145SOL    HW163063   1.511   1.043  19.860
17145SOL    HW263064   1.575   1.068  19.995
17146SOL     OW63065   3.495   4.534  26.408
17146SOL    HW163066   3.482   4.563  26.318
17146SOL    HW263067   3.547   4.603  26.448
17147SOL     OW63068   1.161   0.167  25.463
17147SOL    HW163069   1.138   0.258  25.444
17147SOL    HW263070   1.207   0.171  25.548
17148SOL     OW63071   2.229   0.871  23.547
17148SOL    HW163072   2.269   0.934  23.487
17148SOL    HW263073   2.286   0.794  23.543
17149SOL     OW63074   4.441   1.076   5.083
17149SOL    HW163075   4.508   1.049   5.146
17149SOL    HW263076   4.450   1.171   5.078
17150SOL     OW63077   2.386   0.417  26.108
17150SOL    HW163078   2.294   0.439  26.089
17150SOL    HW263079   2.435   0.493  26.078
17151SOL     OW63080   1.713   0.506  19.642
17151SOL    HW163081   1.633   0.456  19.631
17151SOL    HW263082   1.773   0.470  19.576
17152SOL     OW63083   0.572   2.409   4.949
17152SOL    HW163084   0.641   2.417   5.015
17152SOL    HW263085   0.544   2.499   4.931
17153SOL     OW63086   1.055   0.850   8.772
17153SOL    HW163087   1.102   0.806   8.843
17153SOL    HW263088   1.037   0.780   8.709
17154SOL     OW63089   1.802   1.360   3.652
17154SOL    HW163090   1.843   1.429   3.599
17154SOL    HW263091   1.786   1.402   3.736
17155SOL     OW63092   1.076   4.504   6.237
17155SOL    HW163093   1.110   4.427   6.193
17155SOL    HW263094   1.129   4.576   6.204
17156SOL     OW63095   2.859   4.037   7.091
17156SOL    HW163096   2.828   4.105   7.031
17156SOL    HW263097   2.954   4.042   7.086
17157SOL     OW63098   3.580   1.909   4.803
17157SOL    HW163099   3.520   1.854   4.852
17157SOL    HW263100   3.654   1.852   4.782
17158SOL     OW63101   0.798   0.405   3.544
17158SOL    HW163102   0.851   0.467   3.595
17158SOL    HW263103   0.795   0.444   3.456
17159SOL     OW63104   2.208   2.007   7.368
17159SOL    HW163105   2.153   1.933   7.396
17159SOL    HW263106   2.292   1.992   7.410
17160SOL     OW63107   0.157   1.962  25.702
17160SOL    HW163108   0.109   1.914  25.635
17160SOL    HW263109   0.214   2.022  25.652
17161SOL     OW63110   2.823   3.937  24.683
17161SOL    HW163111   2.865   3.937  24.769
17161SOL    HW263112   2.870   3.870  24.634
17162SOL     OW63113   3.667   1.610  22.695
17162SOL    HW163114   3.750   1.652  22.672
17162SOL    HW263115   3.635   1.572  22.613
17163SOL     OW63116   2.344   0.435  25.685
17163SOL    HW163117   2.411   0.435  25.753
17163SOL    HW263118   2.379   0.379  25.616
17164SOL     OW63119   1.140   1.423   2.980
17164SOL    HW163120   1.102   1.352   2.928
17164SOL    HW263121   1.115   1.503   2.934
17165SOL     OW63122   4.717   1.662  18.274
17165SOL    HW163123   4.772   1.586  18.254
17165SOL    HW263124   4.648   1.659  18.208
17166SOL     OW63125   3.548   1.814  21.330
17166SOL    HW163126   3.502   1.881  21.280
17166SOL    HW263127   3.478   1.756  21.362
17167SOL     OW63128   4.189   0.290  26.348
17167SOL    HW163129   4.207   0.295  26.254
17167SOL    HW263130   4.097   0.318  26.356
17168SOL     OW63131   1.538   3.286  24.930
17168SOL    HW163132   1.613   3.340  24.953
17168SOL    HW263133   1.533   3.221  25.000
17169SOL     OW63134   2.365   0.302  27.775
17169SOL    HW163135   2.410   0.296  27.860
17169SOL    HW263136   2.373   0.213  27.739
17170SOL     OW63137   2.846   2.233   5.860
17170SOL    HW163138   2.862   2.311   5.807
17170SOL    HW263139   2.926   2.221   5.911
17171SOL     OW63140   1.739   1.120   4.255
17171SOL    HW163141   1.723   1.214   4.256
17171SOL    HW263142   1.676   1.085   4.319
17172SOL     OW63143   0.792   3.485   7.334
17172SOL    HW163144   0.735   3.556   7.364
17172SOL    HW263145   0.826   3.515   7.250
17173SOL     OW63146   1.687   0.617   3.291
17173SOL    HW163147   1.594   0.599   3.304
17173SOL    HW263148   1.698   0.708   3.317
17174SOL     OW63149   0.003   3.641  22.505
17174SOL    HW163150   0.079   3.639  22.446
17174SOL    HW263151   4.739   3.723  22.482
17175SOL     OW63152   3.028   0.486   9.470
17175SOL    HW163153   2.987   0.400   9.474
17175SOL    HW263154   3.107   0.472   9.418
17176SOL     OW63155   0.253   1.120   2.934
17176SOL    HW163156   0.189   1.174   2.888
17176SOL    HW263157   0.206   1.088   3.011
17177SOL     OW63158   4.208   4.161   2.087
17177SOL    HW163159   4.144   4.121   2.146
17177SOL    HW263160   4.250   4.088   2.043
17178SOL     OW63161   2.185   2.803   8.619
17178SOL    HW163162   2.138   2.846   8.547
17178SOL    HW263163   2.272   2.786   8.584
17179SOL     OW63164   1.561   1.962   9.272
17179SOL    HW163165   1.620   2.037   9.266
17179SOL    HW263166   1.619   1.887   9.286
17180SOL     OW63167   1.886   3.780   1.336
17180SOL    HW163168   1.819   3.844   1.313
17180SOL    HW263169   1.854   3.739   1.416
17181SOL     OW63170   2.158   4.543  20.778
17181SOL    HW163171   2.228   4.567  20.717
17181SOL    HW263172   2.150   4.619  20.837
17182SOL     OW63173   0.600   2.041  26.111
17182SOL    HW163174   0.563   2.068  26.027
17182SOL    HW263175   0.539   2.075  26.177
17183SOL     OW63176   2.180   2.948  22.351
17183SOL    HW163177   2.165   2.901  22.268
17183SOL    HW263178   2.273   2.937  22.368
17184SOL     OW63179   2.843   2.534  11.340
17184SOL    HW163180   2.793   2.538  11.258
17184SOL    HW263181   2.899   2.458  11.330
17185SOL     OW63182   0.508   3.585  20.667
17185SOL    HW163183   0.521   3.671  20.627
17185SOL    HW263184   0.414   3.570  20.659
17186SOL     OW63185   0.696   0.063   1.848
17186SOL    HW163186   0.722   0.152   1.871
17186SOL    HW263187   0.604   0.057   1.874
17187SOL     OW63188   4.247   2.477   0.639
17187SOL    HW163189   4.196   2.515   0.568
17187SOL    HW263190   4.337   2.506   0.622
17188SOL     OW63191   1.491   3.164  27.313
17188SOL    HW163192   1.417   3.137  27.260
17188SOL    HW263193   1.458   3.239  27.363
17189SOL     OW63194   0.246   2.415  22.266
17189SOL    HW163195   0.199   2.422  22.183
17189SOL    HW263196   0.195   2.353  22.317
17190SOL     OW63197   0.670   2.879  12.544
17190SOL    HW163198   0.721   2.812  12.498
17190SOL    HW263199   0.630   2.833  12.617
17191SOL     OW63200   2.035   3.375  23.426
17191SOL    HW163201   2.005   3.437  23.492
17191SOL    HW263202   2.113   3.415  23.388
17192SOL     OW63203   1.177   1.694  20.582
17192SOL    HW163204   1.225   1.659  20.506
17192SOL    HW263205   1.099   1.734  20.544
17193SOL     OW63206   3.793   2.089  21.157
17193SOL    HW163207   3.698   2.097  21.161
17193SOL    HW263208   3.825   2.178  21.174
17194SOL     OW63209   0.525   2.218   9.180
17194SOL    HW163210   0.446   2.214   9.235
17194SOL    HW263211   0.584   2.152   9.217
17195SOL     OW63212   1.654   3.074  24.272
17195SOL    HW163213   1.676   3.054  24.363
17195SOL    HW263214   1.617   2.993  24.237
17196SOL     OW63215   0.411   2.374  25.178
17196SOL    HW163216   0.448   2.286  25.186
17196SOL    HW263217   0.382   2.396  25.266
17197SOL     OW63218   0.221   4.282   6.558
17197SOL    HW163219   0.199   4.347   6.491
17197SOL    HW263220   0.310   4.304   6.586
17198SOL     OW63221   4.413   2.228   2.152
17198SOL    HW163222   4.332   2.180   2.132
17198SOL    HW263223   4.483   2.163   2.140
17199SOL     OW63224   0.560   4.240   6.239
17199SOL    HW163225   0.541   4.151   6.268
17199SOL    HW263226   0.570   4.232   6.144
17200SOL     OW63227   4.498   0.247  20.338
17200SOL    HW163228   4.528   0.227  20.249
17200SOL    HW263229   4.498   0.163  20.384
17201SOL     OW63230   2.844   2.736  12.395
17201SOL    HW163231   2.779   2.694  12.451
17201SOL    HW263232   2.862   2.819  12.437
17202SOL     OW63233   0.864   1.946  21.307
17202SOL    HW163234   0.940   1.917  21.359
17202SOL    HW263235   0.806   1.987  21.371
17203SOL     OW63236   1.874   2.547  12.380
17203SOL    HW163237   1.893   2.550  12.474
17203SOL    HW263238   1.779   2.560  12.375
17204SOL     OW63239   3.031   2.811   0.054
17204SOL    HW163240   2.985   2.757   0.118
17204SOL    HW263241   3.097   2.857   0.106
17205SOL     OW63242   0.174   2.099  20.849
17205SOL    HW163243   0.214   2.015  20.827
17205SOL    HW263244   0.188   2.154  20.772
17206SOL     OW63245   1.948   0.790  21.813
17206SOL    HW163246   2.031   0.815  21.854
17206SOL    HW263247   1.958   0.698  21.791
17207SOL     OW63248   4.314   1.030   6.306
17207SOL    HW163249   4.222   1.005   6.317
17207SOL    HW263250   4.339   1.069   6.390
17208SOL     OW63251   0.361   3.677  12.206
17208SOL    HW163252   0.288   3.727  12.244
17208SOL    HW263253   0.426   3.744  12.183
17209SOL     OW63254   3.710   3.951  27.961
17209SOL    HW163255   3.757   4.028  27.928
17209SOL    HW263256   3.730   3.949  28.054
17210SOL     OW63257   3.672   1.339  24.630
17210SOL    HW163258   3.694   1.368  24.541
17210SOL    HW263259   3.744   1.371  24.684
17211SOL     OW63260   1.544   1.690   2.567
17211SOL    HW163261   1.464   1.665   2.612
17211SOL    HW263262   1.606   1.619   2.587
17212SOL     OW63263   3.635   0.190  25.846
17212SOL    HW163264   3.541   0.200  25.865
17212SOL    HW263265   3.657   0.104  25.883
17213SOL     OW63266   4.576   4.070  23.164
17213SOL    HW163267   4.489   4.100  23.136
17213SOL    HW263268   4.562   3.980  23.195
17214SOL     OW63269   0.602   1.857  23.595
17214SOL    HW163270   0.605   1.887  23.504
17214SOL    HW263271   0.514   1.820  23.605
17215SOL     OW63272   4.050   2.856  27.790
17215SOL    HW163273   4.073   2.927  27.730
17215SOL    HW263274   4.123   2.853  27.852
17216SOL     OW63275   4.285   4.553  21.142
17216SOL    HW163276   4.206   4.605  21.125
17216SOL    HW263277   4.278   4.528  21.234
17217SOL     OW63278   2.186   1.303  23.963
17217SOL    HW163279   2.268   1.258  23.944
17217SOL    HW263280   2.120   1.234  23.963
17218SOL     OW63281   0.980   4.182   7.755
17218SOL    HW163282   0.923   4.173   7.679
17218SOL    HW263283   0.951   4.263   7.797
17219SOL     OW63284   1.957   3.321   1.447
17219SOL    HW163285   2.018   3.287   1.512
17219SOL    HW263286   1.876   3.272   1.462
17220SOL     OW63287   0.730   2.202  11.650
17220SOL    HW163288   0.707   2.271  11.587
17220SOL    HW263289   0.739   2.248  11.734
17221SOL     OW63290   3.705   2.793  13.285
17221SOL    HW163291   3.649   2.768  13.358
17221SOL    HW263292   3.787   2.821  13.327
17222SOL     OW63293   2.255   1.902  12.329
17222SOL    HW163294   2.344   1.937  12.337
17222SOL    HW263295   2.248   1.837  12.398
17223SOL     OW63296   2.008   3.296  13.691
17223SOL    HW163297   2.072   3.239  13.648
17223SOL    HW263298   2.018   3.380  13.647
17224SOL     OW63299   0.796   3.358  12.457
17224SOL    HW163300   0.815   3.266  12.478
17224SOL    HW263301   0.727   3.353  12.391
17225SOL     OW63302   1.348   2.382  12.297
17225SOL    HW163303   1.353   2.332  12.378
17225SOL    HW263304   1.269   2.436  12.307
17226SOL     OW63305   2.292   1.066  27.196
17226SOL    HW163306   2.247   1.012  27.260
17226SOL    HW263307   2.224   1.089  27.132
17227SOL     OW63308   1.483   2.951  12.819
17227SOL    HW163309   1.471   2.862  12.785
17227SOL    HW263310   1.482   2.942  12.914
17228SOL     OW63311   1.810   3.229  12.828
17228SOL    HW163312   1.845   3.232  12.917
17228SOL    HW263313   1.794   3.136  12.811
17229SOL     OW63314   2.587   2.382  11.533
17229SOL    HW163315   2.663   2.332  11.504
17229SOL    HW263316   2.534   2.393  11.453
17230SOL     OW63317   0.760   1.111   8.955
17230SOL    HW163318   0.770   1.065   8.871
17230SOL    HW263319   0.729   1.198   8.931
17231SOL     OW63320   2.017   2.929  10.904
17231SOL    HW163321   1.985   3.019  10.897
17231SOL    HW263322   2.041   2.919  10.996
17232SOL     OW63323   4.595   0.111  27.858
17232SOL    HW163324   4.561   0.103  27.947
17232SOL    HW263325   4.637   0.027  27.840
17233SOL     OW63326   0.658   2.269  12.371
17233SOL    HW163327   0.744   2.305  12.348
17233SOL    HW263328   0.668   2.241  12.462
17234SOL     OW63329   2.239   2.898  11.481
17234SOL    HW163330   2.147   2.873  11.478
17234SOL    HW263331   2.284   2.822  11.518
17235SOL     OW63332   1.833   2.577  13.156
17235SOL    HW163333   1.873   2.600  13.240
17235SOL    HW263334   1.749   2.623  13.157
17236SOL     OW63335   3.267   1.628  10.405
17236SOL    HW163336   3.333   1.590  10.464
17236SOL    HW263337   3.215   1.686  10.460
17237SOL     OW63338   0.215   2.570  13.083
17237SOL    HW163339   0.244   2.626  13.011
17237SOL    HW263340   0.266   2.601  13.159
17238SOL     OW63341   2.323   2.809  12.675
17238SOL    HW163342   2.303   2.722  12.639
17238SOL    HW263343   2.406   2.833  12.634
17239SOL     OW63344   1.329   3.256  13.288
17239SOL    HW163345   1.247   3.302  13.308
17239SOL    HW263346   1.388   3.325  13.258
17240SOL     OW63347   2.175   1.297  13.014
17240SOL    HW163348   2.131   1.233  13.069
17240SOL    HW263349   2.223   1.353  13.075
17241SOL     OW63350   0.941   2.934  13.591
17241SOL    HW163351   0.947   2.974  13.678
17241SOL    HW263352   0.871   2.869  13.599
17242SOL     OW63353   2.047   0.633  12.620
17242SOL    HW163354   2.102   0.623  12.697
17242SOL    HW263355   2.068   0.720  12.587
17243SOL     OW63356   0.132   2.970  13.384
17243SOL    HW163357   0.121   2.955  13.478
17243SOL    HW263358   0.115   3.064  13.372
17244SOL     OW63359   4.235   1.247  11.270
17244SOL    HW163360   4.233   1.309  11.197
17244SOL    HW263361   4.249   1.302  11.347
17245SOL     OW63362   2.425   2.998  11.261
17245SOL    HW163363   2.467   2.985  11.346
17245SOL    HW263364   2.332   2.982  11.277
17246SOL     OW63365   2.586   2.856  12.603
17246SOL    HW163366   2.616   2.915  12.673
17246SOL    HW263367   2.639   2.777  12.615
17247SOL     OW63368   0.133   4.217  26.671
17247SOL    HW163369   0.071   4.160  26.625
17247SOL    HW263370   0.100   4.306  26.655
17248SOL     OW63371   1.600   2.660  13.045
17248SOL    HW163372   1.513   2.686  13.016
17248SOL    HW263373   1.593   2.565  13.059
17249SOL     OW63374   2.568   3.258  11.632
17249SOL    HW163375   2.492   3.201  11.643
17249SOL    HW263376   2.641   3.198  11.616
17250SOL     OW63377   1.346   0.599  12.670
17250SOL    HW163378   1.425   0.577  12.621
17250SOL    HW263379   1.322   0.518  12.716
17251SOL     OW63380   0.925   2.234  13.209
17251SOL    HW163381   1.020   2.239  13.201
17251SOL    HW263382   0.901   2.152  13.167
17252SOL     OW63383   0.723   2.311  13.881
17252SOL    HW163384   0.681   2.225  13.882
17252SOL    HW263385   0.701   2.349  13.967
17253SOL     OW63386   1.766   4.773  12.719
17253SOL    HW163387   1.757   0.058  12.788
17253SOL    HW263388   1.849   4.730  12.738
17254SOL     OW63389   1.238   2.914  14.150
17254SOL    HW163390   1.210   2.972  14.078
17254SOL    HW263391   1.195   2.831  14.130
17255SOL     OW63392   1.209   3.095  13.076
17255SOL    HW163393   1.252   3.163  13.127
17255SOL    HW263394   1.115   3.112  13.087
17256SOL     OW63395   0.417   2.940  12.599
17256SOL    HW163396   0.430   3.001  12.672
17256SOL    HW263397   0.505   2.925  12.564
17257SOL     OW63398   0.685   2.478  15.115
17257SOL    HW163399   0.775   2.509  15.127
17257SOL    HW263400   0.678   2.461  15.021
17258SOL     OW63401   1.249   1.292  15.542
17258SOL    HW163402   1.197   1.259  15.470
17258SOL    HW263403   1.192   1.285  15.619
17259SOL     OW63404   0.979   1.983  12.828
17259SOL    HW163405   0.921   1.908  12.812
17259SOL    HW263406   1.043   1.951  12.891
17260SOL     OW63407   1.468   3.331  15.449
17260SOL    HW163408   1.563   3.339  15.458
17260SOL    HW263409   1.433   3.388  15.517
17261SOL     OW63410   1.099   3.845  14.388
17261SOL    HW163411   1.167   3.846  14.321
17261SOL    HW263412   1.080   3.937  14.405
17262SOL     OW63413   0.550   2.115  13.909
17262SOL    HW163414   0.519   2.136  13.821
17262SOL    HW263415   0.471   2.092  13.957
17263SOL     OW63416   3.761   0.279  13.070
17263SOL    HW163417   3.714   0.342  13.124
17263SOL    HW263418   3.806   0.333  13.005
17264SOL     OW63419   4.734   1.200  16.103
17264SOL    HW163420   4.740   1.166  16.014
17264SOL    HW263421   4.758   1.292  16.095
17265SOL     OW63422   1.703   2.389  13.841
17265SOL    HW163423   1.740   2.442  13.770
17265SOL    HW263424   1.707   2.445  13.918
17266SOL     OW63425   4.459   1.997  12.801
17266SOL    HW163426   4.535   1.957  12.843
17266SOL    HW263427   4.436   2.070  12.859
17267SOL     OW63428   1.703   2.903  13.144
17267SOL    HW163429   1.651   2.824  13.126
17267SOL    HW263430   1.771   2.902  13.077
17268SOL     OW63431   1.721   2.113  14.169
17268SOL    HW163432   1.665   2.080  14.239
17268SOL    HW263433   1.800   2.142  14.214
17269SOL     OW63434   1.037   3.373  14.898
17269SOL    HW163435   1.067   3.393  14.809
17269SOL    HW263436   0.990   3.291  14.890
17270SOL     OW63437   1.087   3.675  12.026
17270SOL    HW163438   1.025   3.733  11.982
17270SOL    HW263439   1.075   3.692  12.119
17271SOL     OW63440   1.136   1.831  15.183
17271SOL    HW163441   1.201   1.818  15.114
17271SOL    HW263442   1.176   1.892  15.244
17272SOL     OW63443   0.482   1.866  14.126
17272SOL    HW163444   0.438   1.910  14.053
17272SOL    HW263445   0.411   1.831  14.179
17273SOL     OW63446   1.202   1.842  13.658
17273SOL    HW163447   1.292   1.849  13.688
17273SOL    HW263448   1.156   1.915  13.701
17274SOL     OW63449   1.845   2.688  13.810
17274SOL    HW163450   1.759   2.729  13.813
17274SOL    HW263451   1.876   2.689  13.901
17275SOL     OW63452   1.777   3.103  15.202
17275SOL    HW163453   1.731   3.140  15.126
17275SOL    HW263454   1.848   3.051  15.164
17276SOL     OW63455   2.893   2.002  14.847
17276SOL    HW163456   2.859   1.924  14.891
17276SOL    HW263457   2.980   2.014  14.884
17277SOL     OW63458   4.681   2.074  12.633
17277SOL    HW163459   4.672   2.169  12.643
17277SOL    HW263460   4.601   2.039  12.672
17278SOL     OW63461   1.486   2.470  12.566
17278SOL    HW163462   1.534   2.441  12.643
17278SOL    HW263463   1.435   2.394  12.539
17279SOL     OW63464   1.958   3.245  13.058
17279SOL    HW163465   1.911   3.288  13.130
17279SOL    HW263466   2.046   3.282  13.062
17280SOL     OW63467   2.204   2.280  14.386
17280SOL    HW163468   2.286   2.325  14.364
17280SOL    HW263469   2.209   2.266  14.481
17281SOL     OW63470   1.379   2.463  14.825
17281SOL    HW163471   1.444   2.524  14.789
17281SOL    HW263472   1.336   2.513  14.894
17282SOL     OW63473   1.202   4.036  15.606
17282SOL    HW163474   1.271   4.023  15.672
17282SOL    HW263475   1.230   4.113  15.557
17283SOL     OW63476   0.733   3.032  16.344
17283SOL    HW163477   0.827   3.048  16.344
17283SOL    HW263478   0.694   3.116  16.319
17284SOL     OW63479   1.819   1.048  16.454
17284SOL    HW163480   1.729   1.035  16.487
17284SOL    HW263481   1.811   1.117  16.389
17285SOL     OW63482   2.445   1.870  16.337
17285SOL    HW163483   2.521   1.815  16.316
17285SOL    HW263484   2.411   1.898  16.252
17286SOL     OW63485   2.279   2.855  14.414
17286SOL    HW163486   2.265   2.772  14.460
17286SOL    HW263487   2.361   2.842  14.366
17287SOL     OW63488   0.699   1.495  15.818
17287SOL    HW163489   0.788   1.524  15.797
17287SOL    HW263490   0.666   1.459  15.736
17288SOL     OW63491   1.536   2.765  15.837
17288SOL    HW163492   1.477   2.754  15.762
17288SOL    HW263493   1.585   2.845  15.818
17289SOL     OW63494   1.359   1.864  15.034
17289SOL    HW163495   1.425   1.929  15.055
17289SOL    HW263496   1.409   1.785  15.012
17290SOL     OW63497   0.920   1.982  17.052
17290SOL    HW163498   0.974   1.951  16.979
17290SOL    HW263499   0.982   1.995  17.123
17291SOL     OW63500   2.451   2.401  16.642
17291SOL    HW163501   2.370   2.352  16.657
17291SOL    HW263502   2.427   2.469  16.579
17292SOL     OW63503   2.862   4.418  17.235
17292SOL    HW163504   2.821   4.480  17.294
17292SOL    HW263505   2.888   4.471  17.159
17293SOL     OW63506   0.013   1.055  16.338
17293SOL    HW163507   0.032   1.105  16.417
17293SOL    HW263508   4.774   1.122  16.272
17294SOL     OW63509   3.098   0.494  16.308
17294SOL    HW163510   3.060   0.582  16.312
17294SOL    HW263511   3.079   0.464  16.219
17295SOL     OW63512   0.977   1.645  15.658
17295SOL    HW163513   0.906   1.694  15.617
17295SOL    HW263514   0.958   1.553  15.639
17296SOL     OW63515   0.581   1.498  15.219
17296SOL    HW163516   0.565   1.416  15.171
17296SOL    HW263517   0.545   1.566  15.162
17297SOL     OW63518   4.659   3.143  16.649
17297SOL    HW163519   4.725   3.199  16.610
17297SOL    HW263520   4.593   3.132  16.580
17298SOL     OW63521   1.151   2.790  14.759
17298SOL    HW163522   1.092   2.715  14.758
17298SOL    HW263523   1.119   2.845  14.831
17299SOL     OW63524   1.402   2.869  14.682
17299SOL    HW163525   1.310   2.848  14.695
17299SOL    HW263526   1.449   2.790  14.710
17300SOL     OW63527   1.957   1.780  14.856
17300SOL    HW163528   2.010   1.851  14.820
17300SOL    HW263529   1.924   1.734  14.778
17301SOL     OW63530   0.890   1.846  15.056
17301SOL    HW163531   0.978   1.820  15.083
17301SOL    HW263532   0.899   1.939  15.032
17302SOL     OW63533   1.815   2.841  17.837
17302SOL    HW163534   1.909   2.840  17.819
17302SOL    HW263535   1.787   2.750  17.821
17303SOL     OW63536   2.359   3.546  27.555
17303SOL    HW163537   2.281   3.538  27.610
17303SOL    HW263538   2.358   3.466  27.501
17304SOL     OW63539   1.100   0.829   6.108
17304SOL    HW163540   1.044   0.757   6.137
17304SOL    HW263541   1.178   0.785   6.073
17305SOL     OW63542   0.105   0.647  16.630
17305SOL    HW163543   0.097   0.567  16.683
17305SOL    HW263544   0.047   0.632  16.555
17306SOL     OW63545   2.593   2.430  14.597
17306SOL    HW163546   2.678   2.437  14.640
17306SOL    HW263547   2.544   2.369  14.652
17307SOL     OW63548   1.602   4.273  16.475
17307SOL    HW163549   1.592   4.294  16.568
17307SOL    HW263550   1.628   4.356  16.434
17308SOL     OW63551   2.124   2.439  17.598
17308SOL    HW163552   2.151   2.435  17.689
17308SOL    HW263553   2.114   2.533  17.580
17309SOL     OW63554   2.367   2.129  16.419
17309SOL    HW163555   2.406   2.043  16.402
17309SOL    HW263556   2.417   2.189  16.364
17310SOL     OW63557   0.693   0.773  27.167
17310SOL    HW163558   0.600   0.791  27.155
17310SOL    HW263559   0.708   0.692  27.118
17311SOL     OW63560   1.553   2.729  16.855
17311SOL    HW163561   1.547   2.669  16.780
17311SOL    HW263562   1.583   2.811  16.817
17312SOL     OW63563   3.360   4.544   7.431
17312SOL    HW163564   3.326   4.532   7.343
17312SOL    HW263565   3.283   4.564   7.484
17313SOL     OW63566   1.579   1.052  21.519
17313SOL    HW163567   1.632   1.065  21.440
17313SOL    HW263568   1.638   1.012  21.582
17314SOL     OW63569   1.730   2.616  15.980
17314SOL    HW163570   1.708   2.531  15.942
17314SOL    HW263571   1.668   2.677  15.940
17315SOL     OW63572   1.652   2.564  17.074
17315SOL    HW163573   1.739   2.599  17.093
17315SOL    HW263574   1.626   2.608  16.993
17316SOL     OW63575   1.449   1.977  16.703
17316SOL    HW163576   1.396   1.929  16.639
17316SOL    HW263577   1.519   1.916  16.725
17317SOL     OW63578   4.551   3.581  18.824
17317SOL    HW163579   4.589   3.646  18.766
17317SOL    HW263580   4.625   3.545  18.873
17318SOL     OW63581   1.559   2.301  17.901
17318SOL    HW163582   1.652   2.298  17.922
17318SOL    HW263583   1.527   2.212  17.921
17319SOL     OW63584   4.514   4.587   1.481
17319SOL    HW163585   4.454   4.531   1.432
17319SOL    HW263586   4.469   4.671   1.486
17320SOL     OW63587   1.806   2.202  16.102
17320SOL    HW163588   1.855   2.261  16.159
17320SOL    HW263589   1.867   2.130  16.082
17321SOL     OW63590   3.196   1.891  19.246
17321SOL    HW163591   3.217   1.982  19.263
17321SOL    HW263592   3.141   1.893  19.167
17322SOL     OW63593   3.837   1.933   9.473
17322SOL    HW163594   3.754   1.944   9.426
17322SOL    HW263595   3.821   1.973   9.559
17323SOL     OW63596   1.874   2.477  17.346
17323SOL    HW163597   1.880   2.446  17.255
17323SOL    HW263598   1.820   2.556  17.340
17324SOL     OW63599   0.126   1.014  22.687
17324SOL    HW163600   0.217   1.043  22.685
17324SOL    HW263601   0.093   1.045  22.771
17325SOL     OW63602   2.581   0.273  17.419
17325SOL    HW163603   2.519   0.264  17.346
17325SOL    HW263604   2.528   0.262  17.498
17326SOL     OW63605   1.103   1.900  17.551
17326SOL    HW163606   1.044   1.971  17.576
17326SOL    HW263607   1.188   1.924  17.588
17327SOL     OW63608   3.021   2.015   8.349
17327SOL    HW163609   3.116   2.012   8.363
17327SOL    HW263610   3.007   1.974   8.264
17328SOL     OW63611   2.570   0.362  15.684
17328SOL    HW163612   2.516   0.374  15.762
17328SOL    HW263613   2.510   0.326  15.619
17329SOL     OW63614   2.041   1.431  16.495
17329SOL    HW163615   2.026   1.475  16.411
17329SOL    HW263616   2.080   1.347  16.472
17330SOL     OW63617   0.948   2.767  18.381
17330SOL    HW163618   1.010   2.824  18.335
17330SOL    HW263619   0.968   2.679  18.348
17331SOL     OW63620   2.123   3.286  17.832
17331SOL    HW163621   2.084   3.372  17.816
17331SOL    HW263622   2.198   3.304  17.889
17332SOL     OW63623   1.243   2.657  27.130
17332SOL    HW163624   1.317   2.596  27.128
17332SOL    HW263625   1.215   2.656  27.221
17333SOL     OW63626   3.913   0.432  22.021
17333SOL    HW163627   3.853   0.376  22.070
17333SOL    HW263628   3.923   0.389  21.936
17334SOL     OW63629   3.368   4.200  25.596
17334SOL    HW163630   3.312   4.124  25.614
17334SOL    HW263631   3.318   4.252  25.534
17335SOL     OW63632   0.231   0.756  24.998
17335SOL    HW163633   0.208   0.844  25.028
17335SOL    HW263634   0.272   0.714  25.073
17336SOL     OW63635   2.767   0.442   8.022
17336SOL    HW163636   2.713   0.521   8.026
17336SOL    HW263637   2.823   0.455   7.946
17337SOL     OW63638   2.900   2.423  19.040
17337SOL    HW163639   2.902   2.435  18.945
17337SOL    HW263640   2.852   2.499  19.073
17338SOL     OW63641   4.503   1.968   7.860
17338SOL    HW163642   4.511   1.886   7.811
17338SOL    HW263643   4.573   2.023   7.826
17339SOL     OW63644   2.190   2.362   1.352
17339SOL    HW163645   2.116   2.414   1.385
17339SOL    HW263646   2.209   2.400   1.266
17340SOL     OW63647   2.186   3.650  27.279
17340SOL    HW163648   2.091   3.643  27.267
17340SOL    HW263649   2.214   3.562  27.302
17341SOL     OW63650   0.013   4.661   6.703
17341SOL    HW163651   0.037   4.716   6.778
17341SOL    HW263652   4.724   4.710   6.659
17342SOL     OW63653   2.944   4.657   9.917
17342SOL    HW163654   3.036   4.645   9.894
17342SOL    HW263655   2.935   4.614  10.003
17343SOL     OW63656   1.990   0.846  23.991
17343SOL    HW163657   1.989   0.754  23.964
17343SOL    HW263658   2.048   0.889  23.928
17344SOL     OW63659   4.400   3.854  23.712
17344SOL    HW163660   4.489   3.848  23.677
17344SOL    HW263661   4.404   3.923  23.778
17345SOL     OW63662   2.987   0.041   4.546
17345SOL    HW163663   2.925   0.108   4.515
17345SOL    HW263664   2.979   0.044   4.641
17346SOL     OW63665   1.235   0.386   5.233
17346SOL    HW163666   1.210   0.464   5.183
17346SOL    HW263667   1.176   0.318   5.200
17347SOL     OW63668   2.699   3.781   0.696
17347SOL    HW163669   2.668   3.802   0.608
17347SOL    HW263670   2.619   3.763   0.746
17348SOL     OW63671   2.980   0.876  21.811
17348SOL    HW163672   2.949   0.791  21.780
17348SOL    HW263673   2.996   0.926  21.731
17349SOL     OW63674   3.491   0.028  26.709
17349SOL    HW163675   3.525   0.106  26.665
17349SOL    HW263676   3.568   4.753  26.721
17350SOL     OW63677   3.498   4.302   0.045
17350SOL    HW163678   3.510   4.238   0.115
17350SOL    HW263679   3.417   4.276   0.002
17351SOL     OW63680   1.840   1.677  10.837
17351SOL    HW163681   1.840   1.767  10.872
17351SOL    HW263682   1.921   1.672  10.786
17352SOL     OW63683   3.296   1.626   2.166
17352SOL    HW163684   3.381   1.665   2.185
17352SOL    HW263685   3.278   1.570   2.242
17353SOL     OW63686   1.882   3.785  23.596
17353SOL    HW163687   1.904   3.870  23.635
17353SOL    HW263688   1.968   3.745  23.577
17354SOL     OW63689   4.198   2.479   3.961
17354SOL    HW163690   4.288   2.512   3.969
17354SOL    HW263691   4.165   2.478   4.050
17355SOL     OW63692   3.209   3.555  19.670
17355SOL    HW163693   3.131   3.538  19.723
17355SOL    HW263694   3.256   3.472  19.670
17356SOL     OW63695   3.141   3.755  23.466
17356SOL    HW163696   3.190   3.834  23.489
17356SOL    HW263697   3.056   3.787  23.434
17357SOL     OW63698   3.680   2.953   9.912
17357SOL    HW163699   3.705   3.045   9.919
17357SOL    HW263700   3.763   2.906   9.899
17358SOL     OW63701   3.596   1.225  17.707
17358SOL    HW163702   3.590   1.139  17.665
17358SOL    HW263703   3.684   1.256  17.687
17359SOL     OW63704   1.391   3.678   1.817
17359SOL    HW163705   1.455   3.741   1.850
17359SOL    HW263706   1.368   3.625   1.893
17360SOL     OW63707   0.350   3.321   8.398
17360SOL    HW163708   0.343   3.309   8.493
17360SOL    HW263709   0.263   3.302   8.365
17361SOL     OW63710   1.874   0.540  25.843
17361SOL    HW163711   1.938   0.504  25.782
17361SOL    HW263712   1.906   0.515  25.930
17362SOL     OW63713   3.083   2.921  24.372
17362SOL    HW163714   3.156   2.977  24.399
17362SOL    HW263715   3.073   2.937  24.278
17363SOL     OW63716   2.732   3.250  28.221
17363SOL    HW163717   2.768   3.161  28.219
17363SOL    HW263718   2.689   3.260  28.136
17364SOL     OW63719   3.474   0.503  26.765
17364SOL    HW163720   3.451   0.495  26.673
17364SOL    HW263721   3.403   0.460  26.812
17365SOL     OW63722   4.151   1.694  21.361
17365SOL    HW163723   4.085   1.624  21.366
17365SOL    HW263724   4.100   1.773  21.343
17366SOL     OW63725   4.497   0.289  21.439
17366SOL    HW163726   4.499   0.204  21.394
17366SOL    HW263727   4.560   0.343  21.391
17367SOL     OW63728   3.542   1.746  25.648
17367SOL    HW163729   3.608   1.786  25.706
17367SOL    HW263730   3.566   1.654  25.645
17368SOL     OW63731   4.110   1.743  23.812
17368SOL    HW163732   4.190   1.692  23.801
17368SOL    HW263733   4.107   1.800  23.735
17369SOL     OW63734   2.229   2.957   4.590
17369SOL    HW163735   2.168   3.027   4.615
17369SOL    HW263736   2.300   2.964   4.654
17370SOL     OW63737   3.574   0.780   9.061
17370SOL    HW163738   3.483   0.764   9.035
17370SOL    HW263739   3.569   0.801   9.155
17371SOL     OW63740   4.155   3.654  27.289
17371SOL    HW163741   4.247   3.679  27.280
17371SOL    HW263742   4.113   3.690  27.211
17372SOL     OW63743   0.599   0.294   9.405
17372SOL    HW163744   0.542   0.282   9.329
17372SOL    HW263745   0.584   0.218   9.460
17373SOL     OW63746   1.573   2.462   1.367
17373SOL    HW163747   1.532   2.389   1.413
17373SOL    HW263748   1.522   2.538   1.394
17374SOL     OW63749   4.661   1.573  25.903
17374SOL    HW163750   4.661   1.538  25.993
17374SOL    HW263751   4.614   1.656  25.910
17375SOL     OW63752   0.400   0.566  21.858
17375SOL    HW163753   0.404   0.540  21.950
17375SOL    HW263754   0.387   0.484  21.810
17376SOL     OW63755   4.619   3.077   1.677
17376SOL    HW163756   4.538   3.106   1.636
17376SOL    HW263757   4.595   3.060   1.768
17377SOL     OW63758   1.369   1.595  23.277
17377SOL    HW163759   1.327   1.618  23.360
17377SOL    HW263760   1.394   1.503  23.288
17378SOL     OW63761   2.011   4.299   8.157
17378SOL    HW163762   2.040   4.323   8.245
17378SOL    HW263763   2.045   4.210   8.143
17379SOL     OW63764   1.525   0.936   9.047
17379SOL    HW163765   1.502   1.026   9.067
17379SOL    HW263766   1.566   0.940   8.961
17380SOL     OW63767   0.049   0.525   9.356
17380SOL    HW163768   0.113   0.593   9.375
17380SOL    HW263769   4.745   0.566   9.373
17381SOL     OW63770   1.803   0.163  23.527
17381SOL    HW163771   1.711   0.167  23.555
17381SOL    HW263772   1.800   0.183  23.434
17382SOL     OW63773   2.122   2.458   8.331
17382SOL    HW163774   2.031   2.482   8.315
17382SOL    HW263775   2.152   2.421   8.248
17383SOL     OW63776   2.560   1.305   2.211
17383SOL    HW163777   2.593   1.238   2.271
17383SOL    HW263778   2.584   1.388   2.252
17384SOL     OW63779   1.967   4.220  17.074
17384SOL    HW163780   1.987   4.199  17.165
17384SOL    HW263781   1.986   4.140  17.026
17385SOL     OW63782   2.477   4.317  11.296
17385SOL    HW163783   2.524   4.360  11.367
17385SOL    HW263784   2.387   4.309  11.328
17386SOL     OW63785   2.234   2.132  27.496
17386SOL    HW163786   2.257   2.110  27.587
17386SOL    HW263787   2.173   2.205  27.503
17387SOL     OW63788   2.942   0.588   2.521
17387SOL    HW163789   2.986   0.522   2.575
17387SOL    HW263790   2.851   0.587   2.551
17388SOL     OW63791   4.372   3.594  28.179
17388SOL    HW163792   4.464   3.617  28.165
17388SOL    HW263793   4.357   3.518  28.122
17389SOL     OW63794   0.760   1.402  23.127
17389SOL    HW163795   0.722   1.422  23.212
17389SOL    HW263796   0.814   1.477  23.105
17390SOL     OW63797   0.700   4.444   5.729
17390SOL    HW163798   0.736   4.530   5.752
17390SOL    HW263799   0.621   4.464   5.678
17391SOL     OW63800   1.594   3.527  19.080
17391SOL    HW163801   1.642   3.603  19.113
17391SOL    HW263802   1.609   3.528  18.986
17392SOL     OW63803   1.277   4.428  19.952
17392SOL    HW163804   1.275   4.354  20.012
17392SOL    HW263805   1.218   4.492  19.991
17393SOL     OW63806   1.297   0.539   2.216
17393SOL    HW163807   1.217   0.516   2.264
17393SOL    HW263808   1.283   0.629   2.186
17394SOL     OW63809   0.936   2.481  26.475
17394SOL    HW163810   1.010   2.539  26.496
17394SOL    HW263811   0.867   2.507  26.536
17395SOL     OW63812   1.324   1.026  21.351
17395SOL    HW163813   1.273   1.091  21.400
17395SOL    HW263814   1.384   0.988  21.416
17396SOL     OW63815   3.848   1.180  19.098
17396SOL    HW163816   3.820   1.265  19.132
17396SOL    HW263817   3.796   1.167  19.019
17397SOL     OW63818   3.730   0.462   2.386
17397SOL    HW163819   3.728   0.367   2.399
17397SOL    HW263820   3.795   0.475   2.316
17398SOL     OW63821   1.364   0.736  23.601
17398SOL    HW163822   1.387   0.752  23.510
17398SOL    HW263823   1.373   0.821  23.644
17399SOL     OW63824   0.497   1.034  26.418
17399SOL    HW163825   0.569   0.976  26.391
17399SOL    HW263826   0.520   1.120  26.382
17400SOL     OW63827   1.848   4.678  23.541
17400SOL    HW163828   1.768   4.665  23.489
17400SOL    HW263829   1.854   4.773  23.551
17401SOL     OW63830   1.569   3.615  20.806
17401SOL    HW163831   1.545   3.539  20.752
17401SOL    HW263832   1.645   3.586  20.856
17402SOL     OW63833   0.268   2.598  25.694
17402SOL    HW163834   0.172   2.591  25.687
17402SOL    HW263835   0.296   2.625  25.607
17403SOL     OW63836   2.615   1.839   3.930
17403SOL    HW163837   2.651   1.927   3.945
17403SOL    HW263838   2.523   1.846   3.956
17404SOL     OW63839   3.570   2.818  25.580
17404SOL    HW163840   3.558   2.913  25.592
17404SOL    HW263841   3.481   2.782  25.588
17405SOL     OW63842   2.680   0.861   2.712
17405SOL    HW163843   2.726   0.903   2.784
17405SOL    HW263844   2.604   0.918   2.695
17406SOL     OW63845   2.662   4.673  21.112
17406SOL    HW163846   2.613   4.675  21.030
17406SOL    HW263847   2.595   4.672  21.180
17407SOL     OW63848   2.512   1.160  18.301
17407SOL    HW163849   2.504   1.115  18.385
17407SOL    HW263850   2.428   1.146  18.258
17408SOL     OW63851   1.750   1.572  24.257
17408SOL    HW163852   1.815   1.553  24.189
17408SOL    HW263853   1.781   1.523  24.333
17409SOL     OW63854   3.828   0.402   9.116
17409SOL    HW163855   3.892   0.353   9.168
17409SOL    HW263856   3.882   0.461   9.062
17410SOL     OW63857   3.416   2.457   3.275
17410SOL    HW163858   3.450   2.438   3.362
17410SOL    HW263859   3.482   2.514   3.235
17411SOL     OW63860   0.678   0.278   6.905
17411SOL    HW163861   0.590   0.275   6.869
17411SOL    HW263862   0.687   0.196   6.953
17412SOL     OW63863   4.038   3.403   1.043
17412SOL    HW163864   4.119   3.354   1.058
17412SOL    HW263865   4.064   3.495   1.052
17413SOL     OW63866   2.783   2.383   5.504
17413SOL    HW163867   2.773   2.418   5.592
17413SOL    HW263868   2.871   2.412   5.477
17414SOL     OW63869   2.919   4.367   0.319
17414SOL    HW163870   2.953   4.284   0.352
17414SOL    HW263871   2.968   4.382   0.238
17415SOL     OW63872   3.661   4.673   3.848
17415SOL    HW163873   3.658   4.580   3.823
17415SOL    HW263874   3.599   4.716   3.788
17416SOL     OW63875   2.136   4.674  27.458
17416SOL    HW163876   2.052   4.644  27.494
17416SOL    HW263877   2.175   4.726  27.529
17417SOL     OW63878   3.875   0.118   4.373
17417SOL    HW163879   3.891   0.059   4.299
17417SOL    HW263880   3.936   0.089   4.441
17418SOL     OW63881   3.652   0.763   0.166
17418SOL    HW163882   3.726   0.778   0.224
17418SOL    HW263883   3.589   0.713   0.219
17419SOL     OW63884   4.364   1.038   2.029
17419SOL    HW163885   4.268   1.035   2.025
17419SOL    HW263886   4.392   0.997   1.948
17420SOL     OW63887   2.536   0.770  20.956
17420SOL    HW163888   2.577   0.784  20.871
17420SOL    HW263889   2.600   0.802  21.019
17421SOL     OW63890   4.231   2.506  11.714
17421SOL    HW163891   4.258   2.516  11.806
17421SOL    HW263892   4.214   2.595  11.684
17422SOL     OW63893   2.213   2.890   9.002
17422SOL    HW163894   2.293   2.849   8.968
17422SOL    HW263895   2.241   2.978   9.028
17423SOL     OW63896   4.166   2.913   2.794
17423SOL    HW163897   4.074   2.909   2.819
17423SOL    HW263898   4.205   2.979   2.851
17424SOL     OW63899   3.582   2.670  21.419
17424SOL    HW163900   3.549   2.586  21.386
17424SOL    HW263901   3.537   2.683  21.502
17425SOL     OW63902   2.393   2.523   1.844
17425SOL    HW163903   2.474   2.487   1.881
17425SOL    HW263904   2.396   2.499   1.752
17426SOL     OW63905   3.790   3.853  20.342
17426SOL    HW163906   3.836   3.776  20.309
17426SOL    HW263907   3.697   3.832  20.333
17427SOL     OW63908   2.382   0.052   3.563
17427SOL    HW163909   2.413   0.034   3.475
17427SOL    HW263910   2.461   0.063   3.615
17428SOL     OW63911   2.057   3.162  20.213
17428SOL    HW163912   1.975   3.115  20.199
17428SOL    HW263913   2.031   3.252  20.232
17429SOL     OW63914   0.638   3.031  22.920
17429SOL    HW163915   0.721   3.047  22.964
17429SOL    HW263916   0.578   3.005  22.990
17430SOL     OW63917   2.825   3.726   3.555
17430SOL    HW163918   2.740   3.734   3.597
17430SOL    HW263919   2.884   3.698   3.626
17431SOL     OW63920   2.862   1.070  20.434
17431SOL    HW163921   2.836   1.112  20.353
17431SOL    HW263922   2.954   1.046  20.421
17432SOL     OW63923   0.636   3.137  23.605
17432SOL    HW163924   0.674   3.091  23.530
17432SOL    HW263925   0.650   3.230  23.586
17433SOL     OW63926   4.209   1.132   7.994
17433SOL    HW163927   4.217   1.222   7.961
17433SOL    HW263928   4.125   1.131   8.039
17434SOL     OW63929   1.390   1.567   9.737
17434SOL    HW163930   1.397   1.653   9.695
17434SOL    HW263931   1.439   1.577   9.819
17435SOL     OW63932   0.832   1.229  21.088
17435SOL    HW163933   0.847   1.283  21.010
17435SOL    HW263934   0.903   1.252  21.147
17436SOL     OW63935   1.634   3.361  21.567
17436SOL    HW163936   1.543   3.372  21.540
17436SOL    HW263937   1.684   3.362  21.486
17437SOL     OW63938   0.754   1.476   6.358
17437SOL    HW163939   0.828   1.416   6.361
17437SOL    HW263940   0.696   1.446   6.427
17438SOL     OW63941   4.396   0.571  18.490
17438SOL    HW163942   4.368   0.631  18.559
17438SOL    HW263943   4.316   0.524  18.466
17439SOL     OW63944   2.685   0.905  27.394
17439SOL    HW163945   2.770   0.886  27.434
17439SOL    HW263946   2.656   0.821  27.359
17440SOL     OW63947   2.647   2.232   0.482
17440SOL    HW163948   2.636   2.237   0.576
17440SOL    HW263949   2.581   2.170   0.453
17441SOL     OW63950   0.812   1.787   1.337
17441SOL    HW163951   0.726   1.750   1.352
17441SOL    HW263952   0.799   1.850   1.265
17442SOL     OW63953   2.911   2.808  23.882
17442SOL    HW163954   2.988   2.760  23.851
17442SOL    HW263955   2.840   2.744  23.877
17443SOL     OW63956   1.175   2.657   2.330
17443SOL    HW163957   1.180   2.577   2.277
17443SOL    HW263958   1.226   2.637   2.408
17444SOL     OW63959   4.752   1.874  27.746
17444SOL    HW163960   4.724   1.957  27.710
17444SOL    HW263961   4.675   1.840  27.792
17445SOL     OW63962   2.312   2.043   2.033
17445SOL    HW163963   2.344   1.957   2.007
17445SOL    HW263964   2.392   2.095   2.044
17446SOL     OW63965   2.482   0.027  27.772
17446SOL    HW163966   2.528   4.725  27.782
17446SOL    HW263967   2.432   0.037  27.852
17447SOL     OW63968   1.270   0.310  21.682
17447SOL    HW163969   1.333   0.335  21.614
17447SOL    HW263970   1.248   0.219  21.662
17448SOL     OW63971   2.080   3.525   7.050
17448SOL    HW163972   2.118   3.544   7.135
17448SOL    HW263973   1.986   3.539   7.062
17449SOL     OW63974   0.162   1.263  18.348
17449SOL    HW163975   0.241   1.251  18.402
17449SOL    HW263976   0.169   1.353  18.315
17450SOL     OW63977   1.139   0.873   6.704
17450SOL    HW163978   1.096   0.857   6.788
17450SOL    HW263979   1.167   0.787   6.674
17451SOL     OW63980   3.451   2.891   6.074
17451SOL    HW163981   3.534   2.884   6.026
17451SOL    HW263982   3.452   2.816   6.134
17452SOL     OW63983   0.056   1.303   9.896
17452SOL    HW163984   0.104   1.384   9.879
17452SOL    HW263985   0.033   1.271   9.809
17453SOL     OW63986   0.879   2.554  19.556
17453SOL    HW163987   0.838   2.518  19.635
17453SOL    HW263988   0.963   2.589  19.587
17454SOL     OW63989   1.976   4.670   2.751
17454SOL    HW163990   1.889   4.710   2.744
17454SOL    HW263991   2.022   4.699   2.672
17455SOL     OW63992   0.136   1.423  21.390
17455SOL    HW163993   0.157   1.438  21.298
17455SOL    HW263994   0.042   1.405  21.391
17456SOL     OW63995   1.052   3.174   6.612
17456SOL    HW163996   1.032   3.109   6.544
17456SOL    HW263997   0.979   3.168   6.673
17457SOL     OW63998   0.624   0.200   8.988
17457SOL    HW163999   0.656   0.110   8.975
17457SOL    HW264000   0.602   0.230   8.899
17458SOL     OW64001   1.856   3.018  26.059
17458SOL    HW164002   1.913   3.094  26.067
17458SOL    HW264003   1.831   3.017  25.967
17459SOL     OW64004   2.248   1.219  20.473
17459SOL    HW164005   2.276   1.128  20.470
17459SOL    HW264006   2.229   1.236  20.565
17460SOL     OW64007   3.031   2.962  24.076
17460SOL    HW164008   2.987   2.894  24.025
17460SOL    HW264009   3.003   3.044  24.035
17461SOL     OW64010   1.884   4.132  28.059
17461SOL    HW164011   1.818   4.171  28.002
17461SOL    HW264012   1.878   4.038  28.043
17462SOL     OW64013   2.956   4.206  25.335
17462SOL    HW164014   2.887   4.220  25.400
17462SOL    HW264015   2.961   4.111  25.325
17463SOL     OW64016   3.310   3.505  24.598
17463SOL    HW164017   3.397   3.474  24.623
17463SOL    HW264018   3.250   3.439  24.632
17464SOL     OW64019   2.192   2.444  22.800
17464SOL    HW164020   2.121   2.461  22.862
17464SOL    HW264021   2.272   2.464  22.849
17465SOL     OW64022   4.289   1.213   1.341
17465SOL    HW164023   4.323   1.210   1.252
17465SOL    HW264024   4.274   1.306   1.359
17466SOL     OW64025   1.158   3.065  21.488
17466SOL    HW164026   1.247   3.084  21.459
17466SOL    HW264027   1.102   3.094  21.416
17467SOL     OW64028   2.806   1.826   5.640
17467SOL    HW164029   2.714   1.806   5.622
17467SOL    HW264030   2.803   1.893   5.708
17468SOL     OW64031   0.441   0.865   4.942
17468SOL    HW164032   0.518   0.843   4.994
17468SOL    HW264033   0.366   0.844   4.998
17469SOL     OW64034   4.052   2.626   5.965
17469SOL    HW164035   4.098   2.563   6.021
17469SOL    HW264036   3.972   2.647   6.013
17470SOL     OW64037   2.515   4.384  10.174
17470SOL    HW164038   2.448   4.341  10.227
17470SOL    HW264039   2.521   4.472  10.209
17471SOL     OW64040   2.566   4.436   4.047
17471SOL    HW164041   2.480   4.422   4.087
17471SOL    HW264042   2.560   4.393   3.962
17472SOL     OW64043   3.212   3.533   2.243
17472SOL    HW164044   3.232   3.488   2.325
17472SOL    HW264045   3.162   3.610   2.270
17473SOL     OW64046   0.817   2.729   0.925
17473SOL    HW164047   0.761   2.715   1.000
17473SOL    HW264048   0.897   2.681   0.945
17474SOL     OW64049   3.113   0.507  28.304
17474SOL    HW164050   3.183   0.484  28.243
17474SOL    HW264051   3.096   0.599  28.288
17475SOL     OW64052   0.263   2.163  25.352
17475SOL    HW164053   0.207   2.122  25.286
17475SOL    HW264054   0.232   2.253  25.356
17476SOL     OW64055   2.272   3.366   5.400
17476SOL    HW164056   2.338   3.307   5.363
17476SOL    HW264057   2.272   3.346   5.494
17477SOL     OW64058   3.521   1.162  19.279
17477SOL    HW164059   3.440   1.184  19.234
17477SOL    HW264060   3.559   1.091  19.227
17478SOL     OW64061   1.778   1.375   4.018
17478SOL    HW164062   1.690   1.410   4.033
17478SOL    HW264063   1.825   1.392   4.100
17479SOL     OW64064   3.487   4.723  20.716
17479SOL    HW164065   3.465   0.024  20.672
17479SOL    HW264066   3.560   4.687  20.666
17480SOL     OW64067   1.318   2.023  25.266
17480SOL    HW164068   1.275   1.956  25.319
17480SOL    HW264069   1.268   2.103  25.283
17481SOL     OW64070   0.193   1.634  21.850
17481SOL    HW164071   0.134   1.657  21.922
17481SOL    HW264072   0.281   1.655  21.883
17482SOL     OW64073   3.573   3.461   2.308
17482SOL    HW164074   3.526   3.544   2.312
17482SOL    HW264075   3.664   3.485   2.290
17483SOL     OW64076   0.662   2.018  23.351
17483SOL    HW164077   0.642   2.069  23.272
17483SOL    HW264078   0.646   1.927  23.326
17484SOL     OW64079   0.526   2.717  23.159
17484SOL    HW164080   0.482   2.633  23.145
17484SOL    HW264081   0.562   2.710  23.247
17485SOL     OW64082   0.151   0.946   5.595
17485SOL    HW164083   0.085   0.879   5.616
17485SOL    HW264084   0.102   1.013   5.547
17486SOL     OW64085   4.336   4.161   1.190
17486SOL    HW164086   4.373   4.091   1.136
17486SOL    HW264087   4.246   4.134   1.205
17487SOL     OW64088   2.623   0.652   2.521
17487SOL    HW164089   2.624   0.712   2.596
17487SOL    HW264090   2.563   0.692   2.459
17488SOL     OW64091   0.417   3.659  21.216
17488SOL    HW164092   0.496   3.671  21.164
17488SOL    HW264093   0.416   3.735  21.275
17489SOL     OW64094   3.018   0.665  24.976
17489SOL    HW164095   3.078   0.690  25.047
17489SOL    HW264096   2.950   0.613  25.019
17490SOL     OW64097   3.412   1.260  22.089
17490SOL    HW164098   3.485   1.235  22.033
17490SOL    HW264099   3.449   1.260  22.178
17491SOL     OW64100   1.108   1.800   5.746
17491SOL    HW164101   1.142   1.728   5.693
17491SOL    HW264102   1.049   1.758   5.809
17492SOL     OW64103   0.263   3.027   7.707
17492SOL    HW164104   0.244   3.098   7.646
17492SOL    HW264105   0.328   2.973   7.663
17493SOL     OW64106   1.520   2.716   3.737
17493SOL    HW164107   1.478   2.671   3.810
17493SOL    HW264108   1.505   2.659   3.661
17494SOL     OW64109   3.958   1.301  24.937
17494SOL    HW164110   3.902   1.225  24.952
17494SOL    HW264111   3.898   1.370  24.910
17495SOL     OW64112   4.390   4.100  22.259
17495SOL    HW164113   4.444   4.159  22.206
17495SOL    HW264114   4.440   4.088  22.340
17496SOL     OW64115   1.354   2.332   2.624
17496SOL    HW164116   1.283   2.342   2.688
17496SOL    HW264117   1.380   2.240   2.631
17497SOL     OW64118   2.812   3.255  24.975
17497SOL    HW164119   2.838   3.187  25.036
17497SOL    HW264120   2.849   3.336  25.011
17498SOL     OW64121   3.388   2.197   3.729
17498SOL    HW164122   3.348   2.281   3.751
17498SOL    HW264123   3.426   2.210   3.642
17499SOL     OW64124   4.750   2.174   6.281
17499SOL    HW164125   4.668   2.125   6.277
17499SOL    HW264126   4.756   2.203   6.372
17500SOL     OW64127   4.283   1.464  26.056
17500SOL    HW164128   4.279   1.442  25.963
17500SOL    HW264129   4.239   1.549  26.062
17501SOL     OW64130   3.483   1.963  22.666
17501SOL    HW164131   3.421   1.891  22.655
17501SOL    HW264132   3.486   1.977  22.760
17502SOL     OW64133   3.852   1.141  26.901
17502SOL    HW164134   3.770   1.114  26.941
17502SOL    HW264135   3.861   1.234  26.924
17503SOL     OW64136   3.718   3.620   9.424
17503SOL    HW164137   3.696   3.621   9.518
17503SOL    HW264138   3.780   3.692   9.414
17504SOL     OW64139   0.227   0.519   4.476
17504SOL    HW164140   0.310   0.495   4.517
17504SOL    HW264141   0.192   0.437   4.442
17505SOL     OW64142   1.999   3.734   4.310
17505SOL    HW164143   2.019   3.779   4.228
17505SOL    HW264144   1.967   3.648   4.283
17506SOL     OW64145   1.929   1.159   2.309
17506SOL    HW164146   1.922   1.117   2.395
17506SOL    HW264147   1.959   1.090   2.250
17507SOL     OW64148   1.755   2.597  27.088
17507SOL    HW164149   1.819   2.651  27.042
17507SOL    HW264150   1.671   2.624  27.050
17508SOL     OW64151   0.200   2.338  18.272
17508SOL    HW164152   0.177   2.269  18.210
17508SOL    HW264153   0.228   2.411  18.217
17509SOL     OW64154   0.898   1.199   4.827
17509SOL    HW164155   0.885   1.137   4.755
17509SOL    HW264156   0.809   1.222   4.855
17510SOL     OW64157   1.849   2.871  22.959
17510SOL    HW164158   1.834   2.936  22.890
17510SOL    HW264159   1.880   2.922  23.034
17511SOL     OW64160   1.781   2.174  17.340
17511SOL    HW164161   1.799   2.098  17.286
17511SOL    HW264162   1.782   2.248  17.278
17512SOL     OW64163   3.099   3.144   3.939
17512SOL    HW164164   3.021   3.089   3.945
17512SOL    HW264165   3.144   3.130   4.022
17513SOL     OW64166   3.201   0.910  19.789
17513SOL    HW164167   3.224   0.965  19.865
17513SOL    HW264168   3.106   0.908  19.789
17514SOL     OW64169   3.986   0.077  20.589
17514SOL    HW164170   3.987   0.047  20.680
17514SOL    HW264171   4.064   0.130  20.581
17515SOL     OW64172   3.579   0.191  21.556
17515SOL    HW164173   3.634   0.206  21.633
17515SOL    HW264174   3.625   0.126  21.505
17516SOL     OW64175   4.335   1.232   9.551
17516SOL    HW164176   4.412   1.202   9.599
17516SOL    HW264177   4.358   1.320   9.521
17517SOL     OW64178   2.459   4.701  23.010
17517SOL    HW164179   2.384   4.690  22.952
17517SOL    HW264180   2.451   4.630  23.074
17518SOL     OW64181   1.224   3.025   6.770
17518SOL    HW164182   1.203   3.110   6.808
17518SOL    HW264183   1.150   3.005   6.713
17519SOL     OW64184   3.935   4.751  28.084
17519SOL    HW164185   3.938   4.657  28.102
17519SOL    HW264186   4.017   4.769  28.038
17520SOL     OW64187   0.496   4.597   3.817
17520SOL    HW164188   0.535   4.581   3.731
17520SOL    HW264189   0.403   4.581   3.805
17521SOL     OW64190   1.766   2.447  21.014
17521SOL    HW164191   1.745   2.365  21.058
17521SOL    HW264192   1.706   2.451  20.939
17522SOL     OW64193   1.767   2.007   7.452
17522SOL    HW164194   1.742   2.099   7.446
17522SOL    HW264195   1.819   2.001   7.532
17523SOL     OW64196   3.453   2.249   5.897
17523SOL    HW164197   3.367   2.254   5.857
17523SOL    HW264198   3.487   2.164   5.870
17524SOL     OW64199   3.577   4.336   9.509
17524SOL    HW164200   3.641   4.269   9.533
17524SOL    HW264201   3.629   4.410   9.480
17525SOL     OW64202   3.403   2.706  27.576
17525SOL    HW164203   3.405   2.632  27.516
17525SOL    HW264204   3.353   2.774  27.530
17526SOL     OW64205   1.820   0.296  27.476
17526SOL    HW164206   1.850   0.271  27.563
17526SOL    HW264207   1.745   0.353  27.491
17527SOL     OW64208   3.908   2.058  20.328
17527SOL    HW164209   3.924   2.020  20.415
17527SOL    HW264210   3.874   2.145  20.346
17528SOL     OW64211   2.526   0.697  24.069
17528SOL    HW164212   2.460   0.730  24.129
17528SOL    HW264213   2.490   0.713  23.982
17529SOL     OW64214   1.972   0.141   6.355
17529SOL    HW164215   1.947   0.142   6.263
17529SOL    HW264216   1.920   0.070   6.393
17530SOL     OW64217   2.541   1.390   0.228
17530SOL    HW164218   2.541   1.315   0.289
17530SOL    HW264219   2.521   1.465   0.283
17531SOL     OW64220   3.845   0.334  20.169
17531SOL    HW164221   3.849   0.426  20.143
17531SOL    HW264222   3.915   0.324  20.233
17532SOL     OW64223   0.633   3.219  25.206
17532SOL    HW164224   0.639   3.294  25.265
17532SOL    HW264225   0.619   3.144  25.263
17533SOL     OW64226   2.141   2.159  19.984
17533SOL    HW164227   2.172   2.184  19.897
17533SOL    HW264228   2.108   2.240  20.022
17534SOL     OW64229   1.542   1.290   5.637
17534SOL    HW164230   1.467   1.304   5.578
17534SOL    HW264231   1.524   1.345   5.713
17535SOL     OW64232   0.457   3.676   6.688
17535SOL    HW164233   0.426   3.589   6.712
17535SOL    HW264234   0.395   3.707   6.623
17536SOL     OW64235   2.193   1.797   3.501
17536SOL    HW164236   2.224   1.807   3.411
17536SOL    HW264237   2.173   1.887   3.529
17537SOL     OW64238   4.027   0.248   1.706
17537SOL    HW164239   4.076   0.166   1.700
17537SOL    HW264240   4.083   0.312   1.662
17538SOL     OW64241   2.811   2.593   7.455
17538SOL    HW164242   2.860   2.675   7.449
17538SOL    HW264243   2.792   2.570   7.364
17539SOL     OW64244   0.409   1.449   4.968
17539SOL    HW164245   0.410   1.500   5.049
17539SOL    HW264246   0.333   1.480   4.920
17540SOL     OW64247   1.648   0.850   4.459
17540SOL    HW164248   1.638   0.832   4.365
17540SOL    HW264249   1.582   0.796   4.501
17541SOL     OW64250   0.433   3.763   5.848
17541SOL    HW164251   0.384   3.699   5.899
17541SOL    HW264252   0.446   3.721   5.763
17542SOL     OW64253   1.875   4.568  24.230
17542SOL    HW164254   1.878   4.504  24.301
17542SOL    HW264255   1.845   4.648  24.271
17543SOL     OW64256   1.744   1.792   9.368
17543SOL    HW164257   1.725   1.715   9.314
17543SOL    HW264258   1.704   1.772   9.453
17544SOL     OW64259   0.207   3.537   5.623
17544SOL    HW164260   0.129   3.589   5.645
17544SOL    HW264261   0.182   3.491   5.543
17545SOL     OW64262   4.085   2.696  23.347
17545SOL    HW164263   4.160   2.711  23.404
17545SOL    HW264264   4.011   2.683  23.407
17546SOL     OW64265   3.830   2.188   1.377
17546SOL    HW164266   3.834   2.284   1.371
17546SOL    HW264267   3.797   2.160   1.292
17547SOL     OW64268   4.436   3.175  25.639
17547SOL    HW164269   4.429   3.262  25.600
17547SOL    HW264270   4.460   3.190  25.730
17548SOL     OW64271   2.623   4.327  21.204
17548SOL    HW164272   2.572   4.306  21.282
17548SOL    HW264273   2.560   4.323  21.132
17549SOL     OW64274   4.680   3.969  21.339
17549SOL    HW164275   4.754   3.963  21.398
17549SOL    HW264276   4.681   4.060  21.308
17550SOL     OW64277   0.486   3.968   4.970
17550SOL    HW164278   0.432   4.011   5.036
17550SOL    HW264279   0.574   3.968   5.007
17551SOL     OW64280   2.935   3.571   4.072
17551SOL    HW164281   3.008   3.621   4.110
17551SOL    HW264282   2.869   3.638   4.052
17552SOL     OW64283   2.254   3.110  28.505
17552SOL    HW164284   2.161   3.129  28.498
17552SOL    HW264285   2.258   3.020   0.015
17553SOL     OW64286   0.397   1.173  28.241
17553SOL    HW164287   0.311   1.170  28.283
17553SOL    HW264288   0.381   1.208  28.154
17554SOL     OW64289   3.898   1.401   1.837
17554SOL    HW164290   3.961   1.469   1.860
17554SOL    HW264291   3.884   1.353   1.918
17555SOL     OW64292   3.905   1.932   6.908
17555SOL    HW164293   3.932   1.879   6.983
17555SOL    HW264294   3.986   1.953   6.863
17556SOL     OW64295   1.985   4.286   7.885
17556SOL    HW164296   2.033   4.368   7.874
17556SOL    HW264297   1.962   4.283   7.978
17557SOL     OW64298   2.366   3.932  10.451
17557SOL    HW164299   2.310   3.856  10.433
17557SOL    HW264300   2.382   3.929  10.545
17558SOL     OW64301   0.590   1.706   1.110
17558SOL    HW164302   0.517   1.702   1.048
17558SOL    HW264303   0.577   1.788   1.157
17559SOL     OW64304   0.690   1.234   1.382
17559SOL    HW164305   0.769   1.282   1.359
17559SOL    HW264306   0.694   1.225   1.477
17560SOL     OW64307   1.925   2.867   9.057
17560SOL    HW164308   2.013   2.905   9.054
17560SOL    HW264309   1.901   2.857   8.964
17561SOL     OW64310   1.327   4.000  22.392
17561SOL    HW164311   1.411   4.028  22.429
17561SOL    HW264312   1.271   4.078  22.398
17562SOL     OW64313   2.462   3.428  20.940
17562SOL    HW164314   2.421   3.459  21.020
17562SOL    HW264315   2.461   3.504  20.882
17563SOL     OW64316   0.730   4.684   3.953
17563SOL    HW164317   0.656   4.668   3.894
17563SOL    HW264318   0.806   4.692   3.896
17564SOL     OW64319   0.553   3.019  28.077
17564SOL    HW164320   0.558   2.996  27.984
17564SOL    HW264321   0.639   2.994  28.112
17565SOL     OW64322   1.088   0.906  26.016
17565SOL    HW164323   1.130   0.883  26.099
17565SOL    HW264324   1.076   1.001  26.021
17566SOL     OW64325   0.955   3.594  22.436
17566SOL    HW164326   0.944   3.680  22.394
17566SOL    HW264327   1.049   3.575  22.428
17567SOL     OW64328   1.132   0.315  20.190
17567SOL    HW164329   1.146   0.278  20.103
17567SOL    HW264330   1.058   0.265  20.226
17568SOL     OW64331   3.403   2.561  19.923
17568SOL    HW164332   3.383   2.578  19.831
17568SOL    HW264333   3.321   2.580  19.970
17569SOL     OW64334   1.870   4.656   8.060
17569SOL    HW164335   1.812   4.730   8.075
17569SOL    HW264336   1.812   4.581   8.049
17570SOL     OW64337   3.837   2.864  28.309
17570SOL    HW164338   3.784   2.915  28.247
17570SOL    HW264339   3.892   2.929  28.352
17571SOL     OW64340   4.234   2.155  26.804
17571SOL    HW164341   4.252   2.214  26.877
17571SOL    HW264342   4.148   2.117  26.825
17572SOL     OW64343   4.640   2.075   3.186
17572SOL    HW164344   4.694   2.003   3.153
17572SOL    HW264345   4.552   2.056   3.154
17573SOL     OW64346   4.733   2.417  20.894
17573SOL    HW164347   0.043   2.415  20.862
17573SOL    HW264348   4.727   2.342  20.954
17574SOL     OW64349   3.003   1.201  19.931
17574SOL    HW164350   2.971   1.234  19.847
17574SOL    HW264351   2.927   1.156  19.970
17575SOL     OW64352   0.761   3.848  28.229
17575SOL    HW164353   0.855   3.856  28.249
17575SOL    HW264354   0.721   3.831  28.315
17576SOL     OW64355   1.085   4.157  23.692
17576SOL    HW164356   1.070   4.238  23.741
17576SOL    HW264357   0.998   4.125  23.671
17577SOL     OW64358   1.026   2.095  20.932
17577SOL    HW164359   1.020   2.014  20.983
17577SOL    HW264360   1.085   2.151  20.983
17578SOL     OW64361   0.028   0.715   5.704
17578SOL    HW164362   4.753   0.745   5.776
17578SOL    HW264363   4.774   0.630   5.681
17579SOL     OW64364   4.640   2.641  22.751
17579SOL    HW164365   4.673   2.731  22.758
17579SOL    HW264366   4.638   2.624  22.657
17580SOL     OW64367   2.266   0.319   5.847
17580SOL    HW164368   2.204   0.264   5.894
17580SOL    HW264369   2.351   0.276   5.860
17581SOL     OW64370   0.826   0.509   8.906
17581SOL    HW164371   0.834   0.604   8.914
17581SOL    HW264372   0.820   0.477   8.996
17582SOL     OW64373   4.481   3.743   5.454
17582SOL    HW164374   4.436   3.828   5.448
17582SOL    HW264375   4.469   3.703   5.368
17583SOL     OW64376   0.307   0.349   7.796
17583SOL    HW164377   0.325   0.413   7.727
17583SOL    HW264378   0.218   0.319   7.778
17584SOL     OW64379   4.651   1.125  27.125
17584SOL    HW164380   4.627   1.049  27.073
17584SOL    HW264381   4.745   1.134  27.112
17585SOL     OW64382   3.736   1.462  23.150
17585SOL    HW164383   3.747   1.385  23.206
17585SOL    HW264384   3.735   1.428  23.061
17586SOL     OW64385   3.853   0.830  18.964
17586SOL    HW164386   3.947   0.813  18.959
17586SOL    HW264387   3.817   0.792  18.884
17587SOL     OW64388   3.365   2.833  21.164
17587SOL    HW164389   3.320   2.900  21.216
17587SOL    HW264390   3.433   2.882  21.117
17588SOL     OW64391   4.543   3.530   4.734
17588SOL    HW164392   4.639   3.538   4.732
17588SOL    HW264393   4.518   3.522   4.642
17589SOL     OW64394   2.749   4.765  22.965
17589SOL    HW164395   2.671   4.714  22.989
17589SOL    HW264396   2.753   0.053  23.031
17590SOL     OW64397   3.197   0.717  23.883
17590SOL    HW164398   3.158   0.706  23.796
17590SOL    HW264399   3.198   0.629  23.920
17591SOL     OW64400   0.443   2.064  21.097
17591SOL    HW164401   0.456   2.121  21.173
17591SOL    HW264402   0.530   2.053  21.061
17592SOL     OW64403   3.591   1.577   4.545
17592SOL    HW164404   3.626   1.535   4.466
17592SOL    HW264405   3.517   1.628   4.514
17593SOL     OW64406   4.487   1.204   2.732
17593SOL    HW164407   4.444   1.211   2.647
17593SOL    HW264408   4.580   1.200   2.712
17594SOL     OW64409   1.505   0.683  11.470
17594SOL    HW164410   1.434   0.691  11.407
17594SOL    HW264411   1.541   0.771  11.478
17595SOL     OW64412   1.527   0.266  17.540
17595SOL    HW164413   1.518   0.330  17.470
17595SOL    HW264414   1.476   0.190  17.511
17596SOL     OW64415   0.471   1.327  24.505
17596SOL    HW164416   0.395   1.347  24.451
17596SOL    HW264417   0.477   1.232  24.506
17597SOL     OW64418   2.635   3.133  23.226
17597SOL    HW164419   2.566   3.094  23.172
17597SOL    HW264420   2.684   3.058  23.259
17598SOL     OW64421   1.020   2.581   3.359
17598SOL    HW164422   1.031   2.486   3.352
17598SOL    HW264423   1.078   2.607   3.431
17599SOL     OW64424   1.172   4.458   9.491
17599SOL    HW164425   1.267   4.452   9.477
17599SOL    HW264426   1.152   4.384   9.548
17600SOL     OW64427   3.781   4.597   0.810
17600SOL    HW164428   3.829   4.567   0.887
17600SOL    HW264429   3.848   4.639   0.755
17601SOL     OW64430   1.159   2.609  20.038
17601SOL    HW164431   1.200   2.588  20.122
17601SOL    HW264432   1.193   2.696  20.015
17602SOL     OW64433   2.963   4.243  26.122
17602SOL    HW164434   3.057   4.246  26.141
17602SOL    HW264435   2.927   4.317  26.170
17603SOL     OW64436   4.515   2.882   7.261
17603SOL    HW164437   4.433   2.928   7.279
17603SOL    HW264438   4.575   2.912   7.330
17604SOL     OW64439   3.398   1.802   0.234
17604SOL    HW164440   3.311   1.774   0.206
17604SOL    HW264441   3.389   1.814   0.329
17605SOL     OW64442   3.837   4.538  24.431
17605SOL    HW164443   3.787   4.614  24.402
17605SOL    HW264444   3.785   4.503  24.504
17606SOL     OW64445   2.600   3.060  27.270
17606SOL    HW164446   2.684   3.075  27.228
17606SOL    HW264447   2.542   3.125  27.230
17607SOL     OW64448   3.181   0.674   6.787
17607SOL    HW164449   3.165   0.722   6.706
17607SOL    HW264450   3.111   0.701   6.846
17608SOL     OW64451   3.878   1.726   6.568
17608SOL    HW164452   3.963   1.709   6.609
17608SOL    HW264453   3.874   1.822   6.561
17609SOL     OW64454   2.701   3.958  11.796
17609SOL    HW164455   2.771   4.023  11.799
17609SOL    HW264456   2.647   3.976  11.873
17610SOL     OW64457   1.728   4.682  26.626
17610SOL    HW164458   1.694   4.641  26.546
17610SOL    HW264459   1.674   4.760  26.639
17611SOL     OW64460   1.054   1.559  21.511
17611SOL    HW164461   1.114   1.622  21.549
17611SOL    HW264462   1.017   1.603  21.435
17612SOL     OW64463   1.137   2.128  21.280
17612SOL    HW164464   1.116   2.050  21.331
17612SOL    HW264465   1.108   2.201  21.335
17613SOL     OW64466   0.837   2.729  26.816
17613SOL    HW164467   0.831   2.641  26.851
17613SOL    HW264468   0.927   2.756  26.832
17614SOL     OW64469   4.025   3.757  26.234
17614SOL    HW164470   4.072   3.775  26.152
17614SOL    HW264471   4.066   3.678  26.268
17615SOL     OW64472   4.504   0.891   5.631
17615SOL    HW164473   4.418   0.858   5.657
17615SOL    HW264474   4.527   0.840   5.553
17616SOL     OW64475   3.511   0.911   6.283
17616SOL    HW164476   3.435   0.896   6.228
17616SOL    HW264477   3.526   1.006   6.279
17617SOL     OW64478   1.627   0.305   1.409
17617SOL    HW164479   1.619   0.395   1.379
17617SOL    HW264480   1.541   0.266   1.392
17618SOL     OW64481   3.134   4.265   3.102
17618SOL    HW164482   3.118   4.350   3.061
17618SOL    HW264483   3.216   4.235   3.064
17619SOL     OW64484   0.030   3.504   9.944
17619SOL    HW164485   0.037   3.409   9.945
17619SOL    HW264486   0.050   3.531  10.034
17620SOL     OW64487   1.464   0.025   6.802
17620SOL    HW164488   1.514   0.009   6.722
17620SOL    HW264489   1.437   4.719   6.831
17621SOL     OW64490   2.902   0.357   3.567
17621SOL    HW164491   2.916   0.281   3.624
17621SOL    HW264492   2.941   0.430   3.615
17622SOL     OW64493   2.850   4.561   8.572
17622SOL    HW164494   2.806   4.646   8.580
17622SOL    HW264495   2.934   4.573   8.616
17623SOL     OW64496   4.343   1.875  10.927
17623SOL    HW164497   4.413   1.880  10.992
17623SOL    HW264498   4.304   1.788  10.941
17624SOL     OW64499   3.790   0.024   6.575
17624SOL    HW164500   3.782   4.713   6.601
17624SOL    HW264501   3.722   0.069   6.626
17625SOL     OW64502   3.857   2.603  23.493
17625SOL    HW164503   3.779   2.599  23.438
17625SOL    HW264504   3.853   2.525  23.548
17626SOL     OW64505   3.621   4.569  11.986
17626SOL    HW164506   3.657   4.501  12.043
17626SOL    HW264507   3.561   4.618  12.043
17627SOL     OW64508   3.701   2.659   6.804
17627SOL    HW164509   3.741   2.705   6.877
17627SOL    HW264510   3.708   2.566   6.826
17628SOL     OW64511   0.907   3.005   3.980
17628SOL    HW164512   0.831   3.012   4.038
17628SOL    HW264513   0.877   2.951   3.907
17629SOL     OW64514   1.783   3.302   5.793
17629SOL    HW164515   1.775   3.369   5.861
17629SOL    HW264516   1.700   3.306   5.746
17630SOL     OW64517   0.826   0.061   8.162
17630SOL    HW164518   0.898   0.022   8.210
17630SOL    HW264519   0.769   0.098   8.230
17631SOL     OW64520   2.326   1.852   7.728
17631SOL    HW164521   2.308   1.945   7.732
17631SOL    HW264522   2.243   1.812   7.701
17632SOL     OW64523   1.099   3.783   4.578
17632SOL    HW164524   1.074   3.740   4.496
17632SOL    HW264525   1.085   3.876   4.561
17633SOL     OW64526   0.496   1.357  25.278
17633SOL    HW164527   0.466   1.424  25.340
17633SOL    HW264528   0.591   1.364  25.279
17634SOL     OW64529   0.470   3.879   6.877
17634SOL    HW164530   0.462   3.785   6.864
17634SOL    HW264531   0.515   3.910   6.798
17635SOL     OW64532   4.172   3.990   8.598
17635SOL    HW164533   4.110   3.948   8.538
17635SOL    HW264534   4.217   4.055   8.544
17636SOL     OW64535   1.465   3.454   3.691
17636SOL    HW164536   1.516   3.462   3.772
17636SOL    HW264537   1.381   3.496   3.711
17637SOL     OW64538   1.762   0.541   9.471
17637SOL    HW164539   1.724   0.625   9.498
17637SOL    HW264540   1.719   0.477   9.527
17638SOL     OW64541   1.791   4.540   0.713
17638SOL    HW164542   1.868   4.558   0.658
17638SOL    HW264543   1.776   4.621   0.760
17639SOL     OW64544   1.490   2.039  24.246
17639SOL    HW164545   1.543   2.098  24.192
17639SOL    HW264546   1.541   1.959  24.250
17640SOL     OW64547   2.857   1.848   5.295
17640SOL    HW164548   2.827   1.757   5.298
17640SOL    HW264549   2.807   1.892   5.364
17641SOL     OW64550   0.515   4.534   5.350
17641SOL    HW164551   0.610   4.542   5.353
17641SOL    HW264552   0.487   4.597   5.284
17642SOL     OW64553   3.126   0.226   1.437
17642SOL    HW164554   3.191   0.223   1.507
17642SOL    HW264555   3.051   0.272   1.475
17643SOL     OW64556   1.013   3.520   9.941
17643SOL    HW164557   0.991   3.555   9.855
17643SOL    HW264558   1.005   3.425   9.931
17644SOL     OW64559   3.306   2.332  25.532
17644SOL    HW164560   3.401   2.323  25.530
17644SOL    HW264561   3.273   2.245  25.508
17645SOL     OW64562   4.744   0.655   8.732
17645SOL    HW164563   0.033   0.704   8.690
17645SOL    HW264564   4.748   0.568   8.693
17646SOL     OW64565   4.147   0.820  19.392
17646SOL    HW164566   4.148   0.865  19.477
17646SOL    HW264567   4.109   0.884  19.332
17647SOL     OW64568   2.163   3.430   9.784
17647SOL    HW164569   2.150   3.335   9.777
17647SOL    HW264570   2.210   3.453   9.703
17648SOL     OW64571   1.820   4.710   6.492
17648SOL    HW164572   1.893   4.666   6.534
17648SOL    HW264573   1.791   4.651   6.423
17649SOL     OW64574   3.746   1.663   7.807
17649SOL    HW164575   3.651   1.671   7.800
17649SOL    HW264576   3.762   1.569   7.799
17650SOL     OW64577   4.060   2.280  23.345
17650SOL    HW164578   3.985   2.222  23.332
17650SOL    HW264579   4.043   2.323  23.428
17651SOL     OW64580   0.574   4.627  23.804
17651SOL    HW164581   0.541   4.654  23.718
17651SOL    HW264582   0.537   4.539  23.818
17652SOL     OW64583   0.388   4.757  19.507
17652SOL    HW164584   0.332   0.016  19.574
17652SOL    HW264585   0.333   4.691  19.465
17653SOL     OW64586   2.229   0.981   6.761
17653SOL    HW164587   2.256   1.026   6.841
17653SOL    HW264588   2.245   0.888   6.778
17654SOL     OW64589   0.956   2.602   5.706
17654SOL    HW164590   1.015   2.669   5.672
17654SOL    HW264591   0.928   2.635   5.792
17655SOL     OW64592   1.858   2.875   3.881
17655SOL    HW164593   1.910   2.866   3.801
17655SOL    HW264594   1.769   2.889   3.850
17656SOL     OW64595   1.555   3.920   1.672
17656SOL    HW164596   1.463   3.931   1.650
17656SOL    HW264597   1.557   3.913   1.767
17657SOL     OW64598   0.042   1.731  22.066
17657SOL    HW164599   4.767   1.666  22.110
17657SOL    HW264600   4.763   1.801  22.041
17658SOL     OW64601   2.734   2.588  23.839
17658SOL    HW164602   2.649   2.556  23.870
17658SOL    HW264603   2.719   2.612  23.747
17659SOL     OW64604   0.776   1.440   4.619
17659SOL    HW164605   0.710   1.472   4.680
17659SOL    HW264606   0.745   1.352   4.596
17660SOL     OW64607   3.484   0.135  21.983
17660SOL    HW164608   3.451   0.084  21.909
17660SOL    HW264609   3.573   0.159  21.958
17661SOL     OW64610   4.737   0.879   2.079
17661SOL    HW164611   0.009   0.954   2.105
17661SOL    HW264612   4.705   0.843   2.162
17662SOL     OW64613   1.191   1.647   3.724
17662SOL    HW164614   1.119   1.586   3.718
17662SOL    HW264615   1.259   1.600   3.773
17663SOL     OW64616   2.328   4.105  25.543
17663SOL    HW164617   2.244   4.074  25.579
17663SOL    HW264618   2.369   4.151  25.616
17664SOL     OW64619   3.994   1.412  11.405
17664SOL    HW164620   3.914   1.407  11.353
17664SOL    HW264621   3.965   1.393  11.494
17665SOL     OW64622   1.354   4.768   3.704
17665SOL    HW164623   1.439   4.770   3.660
17665SOL    HW264624   1.302   0.055   3.660
17666SOL     OW64625   4.744   2.802  17.190
17666SOL    HW164626   0.021   2.819  17.264
17666SOL    HW264627   0.014   2.826  17.113
17667SOL     OW64628   2.548   1.029   3.024
17667SOL    HW164629   2.553   1.039   3.119
17667SOL    HW264630   2.532   0.936   3.011
17668SOL     OW64631   1.833   3.060  28.249
17668SOL    HW164632   1.758   3.008  28.280
17668SOL    HW264633   1.877   3.003  28.186
17669SOL     OW64634   1.478   3.973  25.036
17669SOL    HW164635   1.393   3.936  25.060
17669SOL    HW264636   1.531   3.898  25.010
17670SOL     OW64637   4.487   2.766  17.341
17670SOL    HW164638   4.444   2.841  17.382
17670SOL    HW264639   4.449   2.690  17.384
17671SOL     OW64640   3.699   2.676   4.638
17671SOL    HW164641   3.793   2.693   4.631
17671SOL    HW264642   3.662   2.716   4.559
17672SOL     OW64643   2.331   1.732   2.255
17672SOL    HW164644   2.395   1.776   2.199
17672SOL    HW264645   2.350   1.763   2.343
17673SOL     OW64646   2.271   4.411  25.131
17673SOL    HW164647   2.217   4.375  25.201
17673SOL    HW264648   2.297   4.497  25.163
17674SOL     OW64649   3.395   3.907  10.688
17674SOL    HW164650   3.468   3.846  10.677
17674SOL    HW264651   3.379   3.908  10.782
17675SOL     OW64652   3.529   4.761   3.595
17675SOL    HW164653   3.475   4.685   3.618
17675SOL    HW264654   3.499   0.004   3.507
17676SOL     OW64655   0.692   3.344   4.802
17676SOL    HW164656   0.664   3.276   4.740
17676SOL    HW264657   0.766   3.387   4.759
17677SOL     OW64658   1.696   1.200   8.301
17677SOL    HW164659   1.780   1.190   8.257
17677SOL    HW264660   1.718   1.209   8.394
17678SOL     OW64661   3.260   4.670  19.749
17678SOL    HW164662   3.248   4.739  19.814
17678SOL    HW264663   3.272   4.717  19.666
17679SOL     OW64664   4.089   2.428   2.121
17679SOL    HW164665   4.164   2.449   2.177
17679SOL    HW264666   4.094   2.490   2.049
17680SOL     OW64667   0.348   3.671   7.263
17680SOL    HW164668   0.287   3.734   7.301
17680SOL    HW264669   0.296   3.591   7.253
17681SOL     OW64670   4.168   3.837   5.719
17681SOL    HW164671   4.109   3.905   5.752
17681SOL    HW264672   4.118   3.793   5.650
17682SOL     OW64673   1.112   3.351  24.472
17682SOL    HW164674   1.163   3.431  24.462
17682SOL    HW264675   1.170   3.281  24.441
17683SOL     OW64676   1.083   1.380   1.411
17683SOL    HW164677   1.116   1.379   1.501
17683SOL    HW264678   1.145   1.436   1.365
17684SOL     OW64679   3.289   2.665  25.853
17684SOL    HW164680   3.197   2.656  25.877
17684SOL    HW264681   3.300   2.757  25.832
17685SOL     OW64682   2.511   3.205  26.479
17685SOL    HW164683   2.504   3.125  26.428
17685SOL    HW264684   2.423   3.243  26.477
17686SOL     OW64685   0.795   3.563   3.271
17686SOL    HW164686   0.806   3.659   3.273
17686SOL    HW264687   0.719   3.549   3.214
17687SOL     OW64688   3.358   4.477   9.221
17687SOL    HW164689   3.325   4.535   9.152
17687SOL    HW264690   3.365   4.533   9.298
17688SOL     OW64691   2.167   4.331   5.286
17688SOL    HW164692   2.183   4.276   5.363
17688SOL    HW264693   2.198   4.277   5.212
17689SOL     OW64694   0.851   4.570  24.283
17689SOL    HW164695   0.758   4.564  24.303
17689SOL    HW264696   0.887   4.485  24.307
17690SOL     OW64697   2.623   2.738  28.428
17690SOL    HW164698   2.542   2.730  28.479
17690SOL    HW264699   2.649   2.648  28.410
17691SOL     OW64700   3.630   3.765   2.774
17691SOL    HW164701   3.554   3.709   2.762
17691SOL    HW264702   3.703   3.712   2.741
17692SOL     OW64703   0.741   3.435   8.914
17692SOL    HW164704   0.824   3.400   8.882
17692SOL    HW264705   0.766   3.497   8.983
17693SOL     OW64706   2.603   2.917   3.901
17693SOL    HW164707   2.510   2.902   3.915
17693SOL    HW264708   2.610   3.009   3.878
17694SOL     OW64709   2.887   3.867  21.063
17694SOL    HW164710   2.893   3.771  21.062
17694SOL    HW264711   2.878   3.891  20.971
17695SOL     OW64712   2.179   0.300   9.480
17695SOL    HW164713   2.123   0.275   9.553
17695SOL    HW264714   2.185   0.396   9.486
17696SOL     OW64715   3.285   3.000   8.771
17696SOL    HW164716   3.379   3.017   8.777
17696SOL    HW264717   3.245   3.055   8.838
17697SOL     OW64718   1.385   3.907   0.625
17697SOL    HW164719   1.314   3.971   0.616
17697SOL    HW264720   1.460   3.959   0.655
17698SOL     OW64721   3.014   2.548   4.787
17698SOL    HW164722   3.066   2.497   4.848
17698SOL    HW264723   3.038   2.514   4.701
17699SOL     OW64724   0.808   3.225   3.159
17699SOL    HW164725   0.801   3.136   3.195
17699SOL    HW264726   0.718   3.250   3.137
17700SOL     OW64727   0.183   1.056  25.713
17700SOL    HW164728   0.141   1.038  25.797
17700SOL    HW264729   0.244   1.127  25.730
17701SOL     OW64730   4.460   2.827   5.485
17701SOL    HW164731   4.534   2.791   5.436
17701SOL    HW264732   4.385   2.775   5.457
17702MG      MG64733   2.754   3.630  10.427
17703MG      MG64734   1.539   3.265  10.800
17704MG      MG64735   3.082   0.593  10.230
17705MG      MG64736   3.492   2.062  17.925
17706MG      MG64737   2.136   4.583   9.162
17707MG      MG64738   2.893   1.861  10.092
17708MG      MG64739   3.153   0.602  11.040
17709MG      MG64740   1.178   1.817  19.227
17710MG      MG64741   3.923   1.701  11.866
17711MG      MG64742   2.765   2.829  12.021
17712MG      MG64743   0.511   0.835  10.154
17713MG      MG64744   3.031   4.460  20.000
17714MG      MG64745   2.665   3.068  21.324
17715MG      MG64746   4.551   2.734  17.146
   4.78094   4.78094  28.52244
